/*--------------------------------*- C++ -*----------------------------------*\
| =========                 |                                                 |
| \\      /  F ield         | OpenFOAM: The Open Source CFD Toolbox           |
|  \\    /   O peration     | Version:  2212                                  |
|   \\  /    A nd           | Website:  www.openfoam.com                      |
|    \\/     M anipulation  |                                                 |
\*---------------------------------------------------------------------------*/
FoamFile
{
    version     2.0;
    format      ascii;
    arch        "LSB;label=32;scalar=64";
    class       volScalarField;
    location    "0.064";
    object      epsilon;
}
// * * * * * * * * * * * * * * * * * * * * * * * * * * * * * * * * * * * * * //

dimensions      [0 2 -3 0 0 0 0];

internalField   nonuniform List<scalar> 
31639
(
0.172545
0.174373
0.174977
0.168166
0.17733
0.178654
0.182595
0.174014
0.174434
0.170077
0.172031
0.170398
0.172748
0.168877
0.174799
0.184719
0.173548
0.180471
0.181207
0.176545
0.197089
0.171119
0.169816
0.180679
0.185694
0.175405
0.175982
0.142791
0.181282
0.17034
0.169269
0.182506
0.168234
0.184721
0.192663
0.170311
0.199182
0.16958
0.170345
0.208062
0.190932
0.195863
0.169553
0.172371
0.173082
0.169791
0.176033
0.177708
0.172174
0.168552
0.17008
0.202207
0.169596
0.201726
0.178607
0.175543
0.198432
0.175194
0.174047
0.195663
0.174079
0.173694
0.187215
0.176811
0.172313
0.168238
0.173739
0.173692
0.191181
0.1684
0.170199
0.177131
0.170045
0.174297
0.169813
0.194122
0.169397
0.179504
0.174223
0.172108
0.185582
0.208425
0.169762
0.172734
0.171014
0.170345
0.168812
0.169103
0.189244
0.168636
0.173546
0.176048
0.194288
0.174984
0.18443
0.176273
0.175924
0.17436
0.173581
0.196389
0.16944
0.170334
0.174095
0.19667
0.194931
0.169308
0.198492
0.202868
0.184769
0.201104
0.170188
0.196553
0.176615
0.180115
0.173344
0.201046
0.178782
0.180126
0.173371
0.174636
0.172425
0.170434
0.170193
0.17356
0.176378
0.170493
0.175042
0.184642
0.185818
0.16976
0.16796
0.169423
0.170051
0.180859
0.171432
0.173484
0.194623
0.19904
0.169987
0.174157
0.174505
0.169805
0.170147
0.198503
0.204382
0.16974
0.171189
0.194117
0.193931
0.16971
0.190132
0.176955
0.181276
0.172324
0.193928
0.16865
0.175632
0.193246
0.193376
0.182499
0.169662
0.194876
0.189253
0.199248
0.198814
0.174223
0.195409
0.169714
0.17036
0.195441
0.175825
0.177509
0.194506
0.172807
0.168688
0.171261
0.173365
0.17014
0.172935
0.172834
0.17523
0.179109
0.175576
0.204802
0.17631
0.169172
0.173978
0.169456
0.197927
0.198064
0.172071
0.172085
0.172971
0.174968
0.174254
0.180098
0.180902
0.16971
0.195869
0.179061
0.170903
0.169769
0.170123
0.170312
0.178714
0.174727
0.175889
0.174311
0.17118
0.205506
0.175103
0.179751
0.173121
0.171419
0.175688
0.169064
0.19401
0.183279
0.173111
0.170838
0.1703
0.178103
0.196017
0.179968
0.196724
0.180405
0.172029
0.18611
0.194474
0.173558
0.172189
0.169606
0.191885
0.200259
0.173636
0.171842
0.196256
0.16917
0.189053
0.197931
0.174966
0.17327
0.175487
0.186357
0.187395
0.17449
0.174371
0.175385
0.194616
0.174507
0.175349
0.195908
0.186247
0.170181
0.171638
0.181491
0.19333
0.170735
0.171483
0.181345
0.167957
0.169389
0.176122
0.169934
0.175406
0.180126
0.196164
0.182412
0.16858
0.175542
0.162757
0.182664
0.177179
0.174349
0.168573
0.177766
0.196505
0.179366
0.187127
0.170133
0.178825
0.170275
0.169169
0.18013
0.193262
0.190787
0.192942
0.201986
0.169901
0.189677
0.174869
0.175102
0.182265
0.191597
0.170193
0.181988
0.189208
0.171099
0.176161
0.189239
0.175091
0.18992
0.174686
0.17522
0.195486
0.179739
0.176287
0.204773
0.201056
0.169946
0.168796
0.163053
0.197301
0.1941
0.170526
0.189551
0.185464
0.170453
0.172396
0.17558
0.170886
0.168636
0.193259
0.169196
0.201026
0.202286
0.172937
0.170103
0.169858
0.168759
0.171878
0.190875
0.173585
0.174739
0.170819
0.170636
0.167855
0.175215
0.176685
0.174049
0.170231
0.172051
0.175061
0.176664
0.174504
0.177249
0.172687
0.175246
0.19398
0.176096
0.168845
0.179372
0.172123
0.169072
0.175234
0.195888
0.175337
0.175049
0.197616
0.171186
0.192222
0.175503
0.164846
0.203413
0.174805
0.175433
0.195367
0.174611
0.192496
0.177193
0.170395
0.175132
0.201858
0.17324
0.191811
0.173227
0.169605
0.171068
0.172647
0.192086
0.1708
0.197097
0.17514
0.201625
0.169023
0.170011
0.169342
0.169323
0.183277
0.172455
0.174454
0.173446
0.175239
0.196596
0.176077
0.171811
0.171035
0.171395
0.175638
0.170047
0.178855
0.194886
0.179818
0.172767
0.171525
0.20258
0.169587
0.169984
0.175257
0.171514
0.170392
0.177175
0.169396
0.186416
0.172985
0.170727
0.199952
0.175436
0.173538
0.192395
0.196475
0.196176
0.183429
0.198831
0.176446
0.167453
0.182622
0.172273
0.195709
0.170655
0.16896
0.174761
0.171439
0.179148
0.170858
0.176337
0.178845
0.168699
0.173903
0.195571
0.174813
0.170433
0.169629
0.172922
0.169161
0.176122
0.172493
0.172489
0.170313
0.172735
0.193866
0.176852
0.203419
0.184302
0.175174
0.197433
0.202717
0.181312
0.171588
0.170934
0.195226
0.172668
0.18435
0.174554
0.172945
0.162151
0.175235
0.202696
0.175437
0.169619
0.169497
0.171321
0.179284
0.19647
0.173729
0.173581
0.170371
0.199985
0.196222
0.175048
0.19684
0.191172
0.174058
0.20018
0.179219
0.188982
0.173998
0.195668
0.168836
0.170644
0.17021
0.170069
0.188158
0.169742
0.170048
0.174067
0.171973
0.17369
0.169463
0.173621
0.184134
0.170838
0.169322
0.174613
0.18226
0.168579
0.174475
0.20245
0.203125
0.174633
0.171311
0.168842
0.176445
0.172819
0.17394
0.170783
0.174496
0.179585
0.177913
0.192819
0.174774
0.175395
0.169415
0.191225
0.188951
0.189772
0.176238
0.174854
0.202146
0.173728
0.184545
0.172294
0.177605
0.169917
0.178537
0.19383
0.172041
0.168288
0.189169
0.170441
0.163609
0.167219
0.175852
0.143208
0.189918
0.174729
0.174836
0.192648
0.193881
0.174441
0.173704
0.172428
0.189611
0.178199
0.169943
0.175106
0.195044
0.186907
0.174084
0.169159
0.196618
0.203911
0.171633
0.198127
0.173258
0.169295
0.196422
0.174256
0.173219
0.179089
0.200019
0.16952
0.178902
0.192026
0.169525
0.17292
0.175483
0.170999
0.202492
0.183452
0.175573
0.181475
0.189427
0.181737
0.175323
0.169731
0.171437
0.170904
0.169455
0.170916
0.185599
0.170425
0.17085
0.171285
0.18861
0.17433
0.175806
0.168859
0.192855
0.202674
0.168537
0.187839
0.168059
0.176387
0.19295
0.175222
0.170129
0.177097
0.173629
0.196163
0.170435
0.173602
0.202538
0.170041
0.170885
0.150175
0.195153
0.194792
0.182691
0.173348
0.175077
0.176597
0.173919
0.170479
0.17532
0.176488
0.195601
0.168322
0.200543
0.173754
0.180376
0.175038
0.169513
0.173401
0.187844
0.198066
0.196649
0.179642
0.169664
0.186949
0.168581
0.180009
0.169827
0.194848
0.176633
0.172179
0.167443
0.169936
0.169626
0.173319
0.176322
0.168754
0.169583
0.170636
0.188355
0.170282
0.193702
0.171072
0.177774
0.175652
0.191613
0.176179
0.20252
0.169068
0.17758
0.170442
0.174704
0.176702
0.192256
0.160874
0.196799
0.206895
0.194374
0.191862
0.194875
0.177293
0.200806
0.169354
0.174708
0.203723
0.170567
0.194039
0.181862
0.175408
0.180282
0.173018
0.168708
0.167218
0.171304
0.177054
0.172672
0.181352
0.179916
0.197637
0.177236
0.169102
0.175493
0.171436
0.170609
0.19618
0.170341
0.170528
0.170659
0.170453
0.17082
0.173362
0.169406
0.16896
0.175954
0.17097
0.170889
0.192509
0.17064
0.181664
0.175027
0.175659
0.173939
0.183949
0.170562
0.174855
0.175237
0.179849
0.19327
0.168847
0.174881
0.182585
0.196753
0.170574
0.197469
0.168693
0.17253
0.176163
0.174611
0.168731
0.172604
0.198296
0.172997
0.1813
0.17801
0.190235
0.169772
0.170578
0.176989
0.175802
0.175333
0.173824
0.180932
0.177129
0.200375
0.170178
0.173535
0.169067
0.189964
0.174157
0.173137
0.176201
0.183953
0.171658
0.170383
0.177018
0.198229
0.199295
0.175624
0.199285
0.188002
0.175404
0.174067
0.168966
0.199549
0.174846
0.169343
0.191031
0.195088
0.172069
0.191388
0.176058
0.191401
0.172143
0.186709
0.182792
0.169642
0.199153
0.176289
0.176066
0.170859
0.170898
0.168538
0.195035
0.170516
0.171619
0.182484
0.168914
0.171214
0.174489
0.16354
0.173829
0.170815
0.169202
0.170434
0.171737
0.17974
0.173775
0.17407
0.193809
0.176235
0.174304
0.170169
0.172748
0.177089
0.169049
0.1704
0.17289
0.171051
0.16974
0.170674
0.173272
0.195862
0.179004
0.170613
0.205072
0.175939
0.176563
0.180034
0.176765
0.168885
0.171286
0.169695
0.176971
0.171881
0.173804
0.172106
0.174254
0.181543
0.194905
0.17077
0.197916
0.178501
0.179147
0.176717
0.173545
0.16829
0.196027
0.17128
0.192115
0.172181
0.183038
0.176046
0.176322
0.168888
0.195253
0.170461
0.169861
0.173882
0.176099
0.176361
0.201569
0.170124
0.172061
0.173399
0.169541
0.169273
0.172606
0.176968
0.170666
0.190355
0.179082
0.169061
0.195515
0.188201
0.170294
0.16938
0.182138
0.180082
0.178507
0.18441
0.175361
0.187393
0.170499
0.171708
0.205095
0.174557
0.168496
0.172503
0.174077
0.17328
0.169954
0.191333
0.191144
0.167685
0.169965
0.174032
0.19011
0.170671
0.170821
0.189109
0.171874
0.169596
0.170063
0.173713
0.170224
0.176361
0.172194
0.17389
0.181356
0.194339
0.173251
0.173246
0.189742
0.169051
0.198691
0.177162
0.178012
0.194918
0.177657
0.180826
0.172167
0.176384
0.172088
0.197286
0.198348
0.178371
0.19498
0.176719
0.169285
0.175836
0.169998
0.181248
0.174512
0.17195
0.181496
0.177816
0.174124
0.175226
0.175388
0.192269
0.175272
0.173307
0.168276
0.169071
0.199075
0.196043
0.175456
0.168936
0.186973
0.177575
0.175349
0.174396
0.169699
0.178492
0.176131
0.175422
0.194276
0.170333
0.173624
0.192955
0.184993
0.17343
0.181388
0.169855
0.170599
0.176421
0.192738
0.169878
0.195006
0.178145
0.173766
0.185824
0.17192
0.198878
0.174529
0.171908
0.176774
0.202396
0.195626
0.168804
0.171154
0.181912
0.168679
0.174777
0.174859
0.197721
0.191704
0.176302
0.176208
0.17594
0.169863
0.168009
0.171115
0.168171
0.174632
0.175598
0.170975
0.197925
0.172857
0.171851
0.17313
0.175384
0.171735
0.180363
0.169059
0.177108
0.201324
0.169398
0.187534
0.170081
0.181185
0.168642
0.194611
0.171673
0.169293
0.176785
0.174296
0.199044
0.169676
0.170574
0.169757
0.195831
0.168196
0.176719
0.170388
0.172471
0.171364
0.171309
0.173915
0.181307
0.171879
0.193716
0.194359
0.195184
0.186179
0.174123
0.197115
0.169318
0.171008
0.173684
0.178
0.174692
0.175259
0.171646
0.174948
0.181034
0.170188
0.17558
0.183088
0.169379
0.173481
0.176857
0.17167
0.183754
0.170747
0.170235
0.168646
0.170982
0.171407
0.182783
0.17
0.176543
0.175229
0.17521
0.174624
0.168721
0.174478
0.171181
0.179972
0.176489
0.172934
0.19275
0.200513
0.171615
0.18354
0.172084
0.182361
0.197689
0.175611
0.170695
0.187523
0.181789
0.174124
0.169081
0.170286
0.176524
0.190853
0.175338
0.174683
0.181013
0.174768
0.175084
0.20258
0.18412
0.183295
0.174425
0.173003
0.17578
0.172304
0.173873
0.175439
0.175617
0.189065
0.183993
0.20416
0.174358
0.174319
0.171046
0.16896
0.168178
0.195589
0.173841
0.180537
0.174882
0.173238
0.170509
0.197141
0.167197
0.194086
0.173822
0.175397
0.175815
0.171813
0.181172
0.175204
0.188981
0.176166
0.179635
0.172762
0.181375
0.193551
0.169847
0.172153
0.174315
0.17117
0.171204
0.193258
0.180861
0.176361
0.190316
0.170153
0.172224
0.168935
0.16882
0.168741
0.195333
0.197866
0.192606
0.169384
0.198659
0.170035
0.173379
0.191897
0.181465
0.171851
0.17027
0.184413
0.181236
0.175776
0.173511
0.171172
0.17553
0.18977
0.175655
0.172605
0.171551
0.172476
0.169457
0.168702
0.169286
0.173548
0.194557
0.198812
0.17518
0.183731
0.1727
0.200073
0.17221
0.17628
0.168471
0.193077
0.174691
0.172374
0.17528
0.18173
0.194324
0.170857
0.187735
0.173648
0.176079
0.16854
0.167512
0.174752
0.200184
0.196392
0.176618
0.176826
0.180733
0.171544
0.198372
0.162989
0.171076
0.182473
0.17202
0.16661
0.172005
0.168918
0.170422
0.17417
0.173515
0.199594
0.181241
0.169551
0.194123
0.172187
0.177624
0.189133
0.174386
0.15448
0.175356
0.170795
0.170692
0.19799
0.176943
0.175068
0.194488
0.18105
0.175445
0.179429
0.172039
0.192149
0.193325
0.17577
0.179717
0.167845
0.169266
0.168863
0.175288
0.174287
0.173624
0.17365
0.169132
0.189161
0.174491
0.177195
0.170064
0.173257
0.181517
0.177358
0.172008
0.19627
0.1757
0.170639
0.176344
0.207631
0.175899
0.197244
0.17329
0.202449
0.171586
0.169747
0.173437
0.173695
0.189275
0.192885
0.170962
0.171884
0.172465
0.174432
0.18121
0.170089
0.17135
0.170363
0.196501
0.184228
0.171167
0.17166
0.175834
0.175367
0.196004
0.171139
0.170183
0.172972
0.173767
0.173171
0.174713
0.169487
0.171851
0.19181
0.175107
0.172257
0.175372
0.175584
0.172854
0.203333
0.187442
0.169812
0.172522
0.172457
0.171207
0.172218
0.169495
0.174191
0.176582
0.171424
0.170422
0.183163
0.178483
0.176239
0.174749
0.170605
0.200972
0.174639
0.19533
0.170386
0.196041
0.193255
0.174203
0.199416
0.181367
0.173373
0.169918
0.169652
0.182495
0.178941
0.167181
0.187933
0.190729
0.181067
0.185388
0.169807
0.172415
0.174326
0.196917
0.17278
0.170534
0.169206
0.1935
0.190809
0.176264
0.1735
0.171611
0.187285
0.193072
0.177027
0.180745
0.168841
0.17179
0.199123
0.172967
0.17178
0.192307
0.201827
0.170427
0.187499
0.188362
0.168683
0.172093
0.169118
0.168695
0.172373
0.180219
0.17029
0.183108
0.168926
0.182962
0.168113
0.171231
0.175165
0.193864
0.16928
0.168065
0.1785
0.175917
0.174958
0.188257
0.149593
0.173153
0.179155
0.167998
0.18018
0.165528
0.194918
0.171428
0.170231
0.197973
0.170514
0.176137
0.203919
0.194631
0.174814
0.173674
0.171747
0.181837
0.192046
0.170103
0.170008
0.170852
0.172998
0.167976
0.195524
0.17108
0.175576
0.19439
0.194025
0.208546
0.190284
0.170668
0.181524
0.174994
0.17096
0.1838
0.182044
0.200895
0.200506
0.169219
0.169327
0.19208
0.171299
0.173281
0.194028
0.176992
0.177041
0.189875
0.178742
0.167545
0.190514
0.201102
0.168461
0.17094
0.186632
0.172467
0.184313
0.187373
0.193988
0.171639
0.190461
0.195994
0.175585
0.169777
0.17613
0.174419
0.171188
0.175509
0.167527
0.155382
0.172053
0.193141
0.168969
0.171169
0.174804
0.182225
0.173364
0.190365
0.172052
0.175443
0.18082
0.195922
0.199005
0.204879
0.181373
0.195219
0.177808
0.190943
0.179756
0.169599
0.171316
0.1788
0.173594
0.173437
0.177577
0.170018
0.199934
0.174058
0.168814
0.168688
0.175313
0.168219
0.188151
0.17495
0.176479
0.195991
0.173841
0.168373
0.170584
0.165405
0.170948
0.174803
0.201996
0.196317
0.175864
0.168973
0.175566
0.169477
0.182258
0.179453
0.190328
0.198239
0.197692
0.201138
0.171849
0.174511
0.1659
0.175609
0.180183
0.170161
0.201428
0.170414
0.17254
0.17059
0.177211
0.174964
0.170365
0.169835
0.170985
0.158772
0.17622
0.170732
0.168493
0.171433
0.170133
0.172869
0.169502
0.171886
0.184063
0.171824
0.171938
0.170694
0.17168
0.197643
0.169126
0.170934
0.171281
0.169317
0.194623
0.203966
0.175487
0.171845
0.183191
0.170754
0.168938
0.167971
0.168399
0.181652
0.172858
0.176216
0.171462
0.19946
0.198821
0.177749
0.173325
0.191084
0.17059
0.193973
0.178829
0.175787
0.173419
0.179531
0.16784
0.173655
0.172888
0.17312
0.172308
0.174174
0.182008
0.202111
0.169885
0.208127
0.205414
0.154057
0.195293
0.199156
0.17728
0.175716
0.19317
0.181774
0.206584
0.191743
0.172583
0.17244
0.198009
0.197909
0.169987
0.197675
0.173377
0.168876
0.17748
0.170746
0.190171
0.194356
0.17814
0.17112
0.188165
0.193403
0.177059
0.184284
0.174248
0.174785
0.196596
0.170989
0.198272
0.197858
0.178886
0.170703
0.1829
0.1809
0.179407
0.16938
0.20127
0.190146
0.176854
0.163379
0.172151
0.200159
0.203881
0.179575
0.167222
0.174586
0.176879
0.176407
0.172921
0.173568
0.192223
0.169196
0.183032
0.193789
0.203126
0.169768
0.174378
0.169041
0.17289
0.170593
0.194477
0.179272
0.200836
0.210176
0.174936
0.193831
0.183297
0.174623
0.155851
0.195369
0.169707
0.171215
0.168781
0.172824
0.210264
0.173454
0.196607
0.170372
0.19759
0.169451
0.204644
0.175192
0.177173
0.184046
0.181059
0.202397
0.184779
0.174003
0.170571
0.172041
0.171343
0.170344
0.195646
0.169572
0.146194
0.174188
0.172347
0.171168
0.172073
0.164559
0.17094
0.179319
0.18273
0.182643
0.170545
0.170242
0.182686
0.186327
0.17302
0.177583
0.17129
0.165083
0.173852
0.176373
0.175837
0.169301
0.169862
0.170474
0.178051
0.171045
0.173163
0.162382
0.173702
0.181008
0.172154
0.176365
0.168259
0.190537
0.191999
0.174201
0.16512
0.1671
0.162073
0.170154
0.173924
0.170867
0.190939
0.181902
0.170017
0.170844
0.169955
0.169041
0.180643
0.167975
0.192675
0.169069
0.182391
0.174729
0.179698
0.174752
0.172953
0.170663
0.194762
0.170972
0.167581
0.175973
0.192198
0.169482
0.168879
0.170592
0.1744
0.174354
0.173223
0.194782
0.168582
0.179502
0.174437
0.186241
0.183555
0.190326
0.198193
0.182154
0.170362
0.176334
0.191607
0.177677
0.195999
0.1756
0.17541
0.202358
0.194138
0.184909
0.175088
0.173011
0.18075
0.156786
0.178624
0.157117
0.185953
0.168571
0.16962
0.170974
0.1605
0.175786
0.198882
0.191257
0.17174
0.182748
0.178924
0.170731
0.168214
0.172748
0.167071
0.198899
0.163402
0.169512
0.178584
0.166887
0.166904
0.17413
0.167623
0.168586
0.182078
0.192306
0.176416
0.196858
0.2014
0.177305
0.175257
0.174927
0.174146
0.174113
0.172945
0.204431
0.181651
0.166278
0.170807
0.198194
0.178044
0.186742
0.175204
0.169695
0.180527
0.172445
0.170575
0.171798
0.198467
0.170704
0.19735
0.167738
0.170322
0.172462
0.167662
0.173534
0.16819
0.195162
0.164272
0.169982
0.184713
0.171454
0.176607
0.18099
0.171288
0.176646
0.170819
0.169461
0.167048
0.173799
0.168866
0.177485
0.168811
0.190141
0.176449
0.195973
0.195951
0.174882
0.174526
0.17512
0.17113
0.16549
0.169814
0.197865
0.172325
0.169351
0.174653
0.16851
0.193867
0.200511
0.17569
0.200265
0.169348
0.172676
0.20202
0.17764
0.171339
0.175637
0.19632
0.18751
0.200109
0.169847
0.200393
0.171492
0.174093
0.199062
0.171608
0.170665
0.17028
0.168732
0.187867
0.169829
0.171033
0.188256
0.172435
0.169295
0.173406
0.191857
0.16514
0.175124
0.168855
0.180327
0.173555
0.179277
0.179713
0.18087
0.179886
0.163695
0.171183
0.170144
0.186146
0.175819
0.17311
0.167907
0.17245
0.200949
0.168216
0.188833
0.172744
0.169359
0.1666
0.181407
0.173213
0.17285
0.174498
0.173594
0.177944
0.195502
0.193608
0.175279
0.170427
0.157861
0.181667
0.169209
0.193142
0.173545
0.196409
0.170812
0.169718
0.171352
0.19549
0.170507
0.194304
0.173168
0.173687
0.186292
0.172715
0.18762
0.183269
0.171944
0.194845
0.182866
0.176189
0.203369
0.174377
0.170765
0.203636
0.182889
0.163447
0.177397
0.175483
0.169657
0.171365
0.168608
0.184295
0.198668
0.202335
0.139869
0.168556
0.161133
0.170652
0.171732
0.192115
0.192366
0.174927
0.173056
0.201319
0.173287
0.172197
0.182262
0.17041
0.177655
0.166839
0.188849
0.178016
0.171057
0.208458
0.168488
0.160877
0.170593
0.168979
0.1698
0.175039
0.197675
0.170102
0.172084
0.171993
0.170246
0.165811
0.168186
0.172172
0.173297
0.16834
0.175757
0.172527
0.193595
0.177057
0.168437
0.159624
0.169967
0.174644
0.174875
0.168597
0.192837
0.170065
0.193886
0.171127
0.172275
0.178162
0.171263
0.180739
0.176851
0.168356
0.177848
0.160753
0.156517
0.171473
0.198785
0.174685
0.174728
0.184036
0.169663
0.174596
0.17063
0.169294
0.195794
0.17025
0.170622
0.168832
0.176296
0.174583
0.200397
0.190316
0.164406
0.194404
0.171835
0.171411
0.190187
0.175166
0.167385
0.182967
0.184003
0.185858
0.180009
0.17797
0.165152
0.18081
0.167616
0.161226
0.170327
0.198593
0.172232
0.170011
0.168851
0.192727
0.184421
0.176171
0.144275
0.193297
0.174443
0.17735
0.170427
0.164672
0.170595
0.171118
0.175918
0.170772
0.173879
0.179618
0.181797
0.169752
0.171364
0.175723
0.163738
0.167444
0.189702
0.19624
0.176257
0.151302
0.173345
0.169537
0.171841
0.168456
0.17172
0.162835
0.171511
0.167309
0.187868
0.178071
0.179331
0.167082
0.172198
0.168239
0.171306
0.17505
0.177669
0.172043
0.172897
0.173562
0.168481
0.173534
0.182547
0.182313
0.190608
0.178329
0.172048
0.191231
0.169754
0.177844
0.169921
0.175352
0.170213
0.173139
0.162373
0.162487
0.173844
0.174754
0.169354
0.182778
0.196275
0.173819
0.177055
0.172464
0.174483
0.174796
0.169414
0.174848
0.199289
0.183571
0.195156
0.172784
0.175887
0.192906
0.16902
0.177722
0.18004
0.172195
0.187127
0.190293
0.168693
0.188271
0.193668
0.143059
0.150148
0.17216
0.185983
0.171047
0.171332
0.182944
0.172039
0.166816
0.164681
0.170092
0.198333
0.16984
0.154543
0.166329
0.189527
0.187757
0.16895
0.198328
0.181249
0.17686
0.170579
0.168198
0.167816
0.178782
0.176745
0.159263
0.175076
0.174367
0.170241
0.177873
0.192062
0.162594
0.175089
0.165785
0.140938
0.190853
0.174546
0.197457
0.19463
0.174689
0.168776
0.181006
0.176096
0.169289
0.166917
0.171933
0.168321
0.201485
0.167289
0.196527
0.170562
0.194401
0.173249
0.167493
0.169123
0.193734
0.178678
0.169168
0.169653
0.173486
0.165791
0.17711
0.170506
0.175487
0.193572
0.174601
0.183024
0.163436
0.165986
0.170805
0.177292
0.168844
0.177204
0.181838
0.19442
0.167786
0.167838
0.20219
0.171257
0.175001
0.172504
0.19263
0.173923
0.178784
0.173212
0.159718
0.179914
0.174648
0.205895
0.172918
0.196777
0.193442
0.17582
0.171092
0.200004
0.171631
0.172372
0.146791
0.201734
0.164897
0.169062
0.204706
0.176425
0.206012
0.197724
0.170469
0.169608
0.176618
0.162316
0.170966
0.174572
0.181049
0.16401
0.175038
0.175541
0.178937
0.165676
0.191639
0.160898
0.178211
0.179158
0.170919
0.168239
0.175337
0.169675
0.177213
0.167415
0.170773
0.178054
0.17519
0.170802
0.176816
0.176176
0.170274
0.170821
0.172866
0.155133
0.16128
0.166004
0.176613
0.184343
0.163491
0.164708
0.185178
0.173327
0.158757
0.194346
0.192409
0.165991
0.171712
0.177071
0.171107
0.169148
0.187648
0.171892
0.172441
0.188468
0.180924
0.195326
0.163675
0.174373
0.174561
0.169124
0.195279
0.175668
0.174222
0.17012
0.166645
0.14913
0.175
0.171185
0.170306
0.161199
0.173566
0.155301
0.167054
0.168171
0.184914
0.202471
0.182427
0.165454
0.171627
0.188451
0.184144
0.171415
0.171868
0.175629
0.180625
0.20577
0.185061
0.18499
0.175109
0.177605
0.175576
0.170397
0.166958
0.153754
0.171222
0.167723
0.175147
0.181834
0.171442
0.160235
0.192359
0.182672
0.174385
0.153332
0.157495
0.172258
0.175201
0.167856
0.19851
0.17934
0.174181
0.160787
0.161354
0.165743
0.168173
0.170689
0.168537
0.174954
0.178628
0.165711
0.168449
0.170263
0.171504
0.168531
0.16731
0.192234
0.18332
0.199836
0.176478
0.156405
0.17911
0.190892
0.171555
0.184138
0.185149
0.177931
0.166274
0.176828
0.163056
0.174449
0.176997
0.165872
0.191614
0.165965
0.188952
0.171799
0.16291
0.176145
0.175944
0.168821
0.162626
0.188116
0.188105
0.179537
0.179391
0.176181
0.150435
0.17258
0.179901
0.167645
0.176683
0.182165
0.183073
0.151138
0.168892
0.17441
0.207147
0.194349
0.180786
0.163579
0.169101
0.189638
0.151043
0.167887
0.196675
0.17055
0.17223
0.169451
0.196564
0.170044
0.188984
0.187778
0.193258
0.16655
0.176167
0.176403
0.170796
0.171782
0.17383
0.19271
0.206146
0.170403
0.176637
0.17187
0.164566
0.190929
0.168005
0.180163
0.157021
0.174852
0.182283
0.183391
0.170132
0.16761
0.185772
0.192058
0.159635
0.164454
0.166357
0.180184
0.189736
0.19352
0.168981
0.172398
0.162538
0.164831
0.180399
0.173385
0.167311
0.161271
0.17651
0.167121
0.178981
0.173031
0.162338
0.169644
0.179209
0.160039
0.173564
0.162429
0.157351
0.166981
0.168823
0.177086
0.164681
0.167914
0.152351
0.191442
0.191677
0.169596
0.187931
0.180307
0.173439
0.157856
0.170063
0.158245
0.193049
0.19085
0.170035
0.147922
0.169586
0.194592
0.184303
0.17204
0.191743
0.172289
0.182714
0.203064
0.176333
0.168089
0.170132
0.171141
0.168304
0.169667
0.169638
0.168157
0.170092
0.176371
0.16549
0.182063
0.168918
0.164921
0.172107
0.170433
0.172593
0.156856
0.171997
0.171198
0.174573
0.182271
0.176367
0.199672
0.165899
0.172184
0.171942
0.169601
0.159816
0.17616
0.198813
0.170859
0.179005
0.180895
0.155215
0.19527
0.168848
0.177363
0.169391
0.171568
0.158888
0.193612
0.17766
0.163481
0.189003
0.162866
0.166463
0.156498
0.176447
0.185673
0.183171
0.157988
0.154234
0.156147
0.189007
0.177791
0.155766
0.169066
0.194881
0.173155
0.165737
0.164467
0.158941
0.172695
0.16124
0.17768
0.174487
0.163688
0.163686
0.185745
0.184239
0.172095
0.180395
0.19672
0.150703
0.169464
0.188521
0.178104
0.190581
0.170193
0.169939
0.174099
0.146457
0.170892
0.170827
0.173608
0.169092
0.174966
0.172546
0.162681
0.177434
0.17593
0.165934
0.176056
0.181948
0.182359
0.170551
0.154352
0.185489
0.156955
0.16062
0.164601
0.157453
0.170287
0.171041
0.170683
0.17608
0.173711
0.162099
0.155897
0.139074
0.17434
0.164597
0.178355
0.181756
0.19212
0.165223
0.168304
0.171047
0.161173
0.159563
0.164332
0.168139
0.185801
0.176722
0.174879
0.156352
0.192215
0.185211
0.192435
0.16017
0.168047
0.155758
0.147493
0.174066
0.155141
0.197177
0.173392
0.194663
0.188575
0.158367
0.1853
0.185807
0.156047
0.149987
0.169331
0.195974
0.171815
0.173182
0.179304
0.164611
0.167006
0.155765
0.159025
0.194351
0.182156
0.174316
0.178794
0.168105
0.176848
0.160483
0.1797
0.173744
0.173691
0.162003
0.142784
0.143105
0.161506
0.166554
0.169351
0.175879
0.165079
0.192307
0.171543
0.177359
0.157879
0.195875
0.165709
0.161797
0.173572
0.195378
0.156096
0.16964
0.139631
0.155751
0.144282
0.171093
0.192084
0.185033
0.165161
0.18497
0.166657
0.193979
0.143682
0.170514
0.185066
0.170936
0.154044
0.203002
0.155304
0.167908
0.151176
0.172484
0.170353
0.159656
0.202639
0.161947
0.176457
0.167612
0.170288
0.17394
0.157761
0.184905
0.196753
0.164612
0.196736
0.149748
0.196351
0.187267
0.158182
0.174276
0.171467
0.177055
0.15245
0.188991
0.169329
0.156732
0.165022
0.189218
0.178688
0.167082
0.149221
0.16653
0.173821
0.168667
0.173398
0.165697
0.167704
0.189405
0.167479
0.172591
0.183677
0.14647
0.160128
0.168998
0.177211
0.17178
0.15051
0.164833
0.160922
0.160622
0.145025
0.140741
0.139954
0.170918
0.180422
0.171325
0.169874
0.185603
0.176785
0.171861
0.176864
0.168445
0.16487
0.172041
0.161281
0.171756
0.196576
0.192811
0.160034
0.171821
0.167607
0.160603
0.175941
0.16605
0.186526
0.157249
0.173835
0.160551
0.163149
0.156804
0.188289
0.156597
0.172546
0.158871
0.163711
0.152291
0.151281
0.167967
0.190037
0.152611
0.197913
0.1759
0.186251
0.145741
0.174232
0.160624
0.160678
0.160673
0.175106
0.166285
0.13707
0.162859
0.151683
0.173463
0.18032
0.175146
0.158323
0.170751
0.169659
0.167733
0.15406
0.16219
0.165891
0.162016
0.14509
0.142539
0.171263
0.152188
0.148743
0.157572
0.167749
0.170028
0.16332
0.152055
0.1529
0.177643
0.161037
0.150096
0.13979
0.16591
0.160464
0.178236
0.186644
0.170498
0.180194
0.162256
0.162185
0.155346
0.140523
0.139577
0.169782
0.183017
0.163786
0.171417
0.167518
0.166244
0.161461
0.149226
0.15428
0.191472
0.166564
0.18127
0.147294
0.17138
0.172519
0.189617
0.190559
0.160178
0.151594
0.15244
0.179462
0.164434
0.170078
0.170671
0.152925
0.154033
0.199716
0.154181
0.138201
0.153204
0.162912
0.155329
0.165424
0.153933
0.163735
0.163707
0.141323
0.184277
0.183733
0.166886
0.1652
0.155552
0.163396
0.167654
0.15346
0.19263
0.156298
0.172186
0.182636
0.160306
0.160586
0.171725
0.162595
0.163576
0.169888
0.181587
0.163022
0.168889
0.155549
0.159338
0.149803
0.158222
0.170385
0.164506
0.162993
0.163537
0.176535
0.153994
0.14767
0.150037
0.171349
0.187751
0.143836
0.162004
0.178698
0.176678
0.177317
0.188891
0.148401
0.159573
0.155586
0.150372
0.17503
0.184971
0.179987
0.183262
0.163877
0.169173
0.161888
0.174624
0.157469
0.150737
0.167382
0.147234
0.189963
0.160695
0.164442
0.156882
0.15674
0.185744
0.153085
0.147418
0.15427
0.150685
0.177212
0.1665
0.157343
0.14657
0.157581
0.145437
0.167911
0.176048
0.176855
0.170043
0.15848
0.176505
0.1742
0.191319
0.161904
0.168717
0.153531
0.169015
0.160531
0.155378
0.159901
0.19119
0.155377
0.169865
0.156209
0.167293
0.138128
0.141415
0.153102
0.16581
0.156175
0.14995
0.160022
0.179606
0.169413
0.164899
0.162386
0.175293
0.168489
0.167471
0.150345
0.154762
0.170368
0.151296
0.183986
0.15595
0.14449
0.176672
0.154255
0.167089
0.157865
0.152639
0.152265
0.147763
0.183768
0.18287
0.171056
0.158216
0.155379
0.156423
0.154821
0.16543
0.153937
0.167959
0.154303
0.179543
0.145244
0.179633
0.157116
0.154037
0.172866
0.171028
0.159294
0.162533
0.141578
0.15445
0.155538
0.145149
0.156116
0.167874
0.185321
0.17951
0.175074
0.159553
0.160219
0.153294
0.151752
0.164605
0.168026
0.187717
0.16437
0.162648
0.175064
0.149071
0.155194
0.187414
0.1834
0.195268
0.169796
0.141208
0.148596
0.19368
0.167878
0.153074
0.167885
0.185467
0.191557
0.156569
0.156868
0.170892
0.149577
0.137813
0.176673
0.138528
0.178885
0.154473
0.145601
0.167995
0.152408
0.178841
0.173989
0.144523
0.144387
0.169911
0.148213
0.158866
0.14423
0.151269
0.15906
0.180243
0.148767
0.15945
0.181463
0.160109
0.158745
0.147316
0.169613
0.161568
0.158273
0.149034
0.156298
0.164707
0.167311
0.157586
0.181783
0.156637
0.171067
0.145248
0.159495
0.153583
0.175038
0.159393
0.173359
0.187647
0.158615
0.183396
0.171484
0.16191
0.168834
0.148955
0.154113
0.161207
0.162026
0.171213
0.156717
0.15558
0.16961
0.154371
0.151082
0.146582
0.158451
0.158736
0.175608
0.143531
0.160755
0.172576
0.149392
0.14605
0.177601
0.147561
0.159851
0.158911
0.157168
0.139181
0.141344
0.157634
0.151964
0.168635
0.157705
0.166308
0.145006
0.16146
0.168064
0.158372
0.148443
0.161157
0.184416
0.161888
0.157966
0.177307
0.138219
0.14172
0.164449
0.135721
0.187524
0.166109
0.165396
0.167651
0.158947
0.148838
0.18494
0.170469
0.146321
0.172475
0.165435
0.15535
0.165009
0.153597
0.15012
0.155713
0.168865
0.183936
0.146026
0.176969
0.162458
0.146055
0.191565
0.148215
0.142265
0.148499
0.154847
0.15773
0.155879
0.16559
0.167847
0.170481
0.151045
0.15235
0.147604
0.175516
0.150304
0.137649
0.149687
0.14953
0.145156
0.162637
0.151586
0.167985
0.179027
0.158146
0.175193
0.161477
0.172242
0.168145
0.15949
0.183058
0.173793
0.14644
0.146539
0.162117
0.139624
0.136207
0.143718
0.167628
0.141346
0.137476
0.157655
0.168505
0.168859
0.170054
0.149486
0.141352
0.158765
0.155094
0.146382
0.166809
0.152062
0.170926
0.148693
0.143392
0.145935
0.14438
0.195573
0.15506
0.166753
0.167665
0.166469
0.157248
0.148722
0.163262
0.144386
0.154785
0.170839
0.148043
0.168738
0.139222
0.137279
0.162051
0.152916
0.154287
0.151612
0.165839
0.161277
0.180933
0.192419
0.175248
0.145378
0.137434
0.152391
0.153178
0.138839
0.138533
0.141198
0.156967
0.163442
0.172361
0.165342
0.156638
0.171058
0.137006
0.149875
0.154911
0.168879
0.164639
0.147814
0.154327
0.154439
0.166649
0.175173
0.148037
0.149968
0.169389
0.182762
0.177483
0.155876
0.170424
0.162211
0.165214
0.174435
0.170646