/*--------------------------------*- C++ -*----------------------------------*\
| =========                 |                                                 |
| \\      /  F ield         | OpenFOAM: The Open Source CFD Toolbox           |
|  \\    /   O peration     | Version:  2212                                  |
|   \\  /    A nd           | Website:  www.openfoam.com                      |
|    \\/     M anipulation  |                                                 |
\*---------------------------------------------------------------------------*/
FoamFile
{
    version     2.0;
    format      ascii;
    arch        "LSB;label=32;scalar=64";
    class       volScalarField;
    location    "0.064";
    object      k;
}
// * * * * * * * * * * * * * * * * * * * * * * * * * * * * * * * * * * * * * //

dimensions      [0 2 -2 0 0 0 0];

internalField   nonuniform List<scalar> 
31639
(
0.00713122
0.00706906
0.00712514
0.00734495
0.00709226
0.00702863
0.00694998
0.00718497
0.00708822
0.00727061
0.00723769
0.00726505
0.0071146
0.00728705
0.00695585
0.00685803
0.00718672
0.00698346
0.00679067
0.0071677
0.00648264
0.00728271
0.00728964
0.00677734
0.00678252
0.00707007
0.00712456
0.0058262
0.00695215
0.00732877
0.0072675
0.00690821
0.00729585
0.00674993
0.00663812
0.00731226
0.00626676
0.00742915
0.00731207
0.00629177
0.00657641
0.0066796
0.00723974
0.00727474
0.007217
0.00726698
0.00699259
0.00696478
0.00717275
0.00732408
0.00726827
0.00628479
0.0072894
0.00645661
0.0069076
0.00714231
0.00648629
0.00712924
0.00703263
0.0064935
0.00705734
0.00727998
0.00684784
0.00713063
0.0070916
0.00733536
0.0070198
0.00708537
0.00677543
0.00731427
0.00723982
0.00685101
0.00719951
0.00712606
0.00721325
0.00668648
0.00721756
0.00695176
0.00694347
0.00714099
0.00684215
0.00622606
0.00731376
0.00713528
0.00713177
0.00725107
0.00730636
0.0072855
0.00671171
0.0073426
0.00713792
0.00713572
0.00651643
0.00698345
0.00668027
0.00703416
0.00693419
0.00710304
0.00712263
0.00654023
0.00725377
0.00721765
0.00698111
0.00645392
0.00647452
0.00727565
0.00650203
0.00635889
0.00667232
0.00646969
0.00722357
0.00656597
0.00702689
0.00688466
0.00709137
0.00642577
0.0070365
0.00709632
0.00718366
0.00703652
0.00723975
0.00722569
0.00723141
0.00709286
0.00714341
0.00728876
0.00710734
0.00671183
0.00661548
0.00718945
0.0072364
0.00723424
0.00728456
0.00697555
0.00722429
0.00707852
0.0064978
0.00637684
0.00722062
0.00709911
0.00709629
0.00723301
0.00726141
0.00640506
0.00633058
0.0072773
0.00716282
0.00659578
0.00661058
0.00722548
0.00681203
0.00728572
0.00680678
0.00716415
0.00674294
0.00733236
0.00705119
0.0067013
0.00666376
0.00680059
0.00730235
0.00676944
0.00683589
0.00652075
0.00659587
0.00702231
0.00674454
0.00735347
0.00725658
0.00641565
0.00698948
0.00688224
0.00661343
0.00707849
0.00734384
0.00712754
0.00712145
0.00734156
0.00707801
0.00708465
0.00696743
0.00698342
0.00692822
0.00631417
0.00712534
0.00738817
0.00709348
0.00732977
0.00659868
0.00660557
0.00752279
0.00722549
0.00720234
0.00705301
0.00712059
0.00697821
0.00696167
0.00720561
0.00646458
0.00693749
0.00730714
0.00735792
0.00723581
0.00716166
0.00705837
0.00700765
0.00703579
0.00690017
0.00731326
0.00631254
0.00706344
0.00698453
0.0071537
0.00725511
0.00733562
0.00729948
0.00662302
0.00684502
0.00731003
0.00716027
0.00714565
0.00706871
0.006464
0.00708863
0.00651794
0.00693405
0.00724514
0.00690778
0.00661538
0.00717869
0.00713682
0.00736482
0.00671077
0.00662554
0.00716151
0.00717102
0.00644874
0.00732984
0.00683738
0.00647807
0.00698163
0.00717197
0.00706085
0.00691189
0.00687738
0.00720328
0.00697458
0.00693436
0.00662585
0.00703217
0.00694905
0.00667697
0.00693341
0.00734892
0.00720475
0.00693772
0.00668034
0.0071911
0.0072305
0.00721973
0.00731729
0.00727825
0.00704524
0.00729068
0.00697597
0.00700077
0.00637684
0.00677658
0.00729118
0.00694285
0.00692983
0.00690504
0.00708873
0.00745679
0.00735815
0.00723422
0.00654222
0.00700534
0.00679187
0.00728515
0.00703824
0.00736336
0.00730635
0.0069604
0.00658154
0.00686554
0.00670691
0.00655477
0.00728274
0.00672418
0.00720796
0.00701689
0.00685579
0.00668646
0.00741138
0.00693259
0.00702933
0.00727236
0.00712341
0.00687225
0.00698655
0.0067734
0.00709871
0.00700991
0.006626
0.00687791
0.00691639
0.00616409
0.00635495
0.00728107
0.00728085
0.00699152
0.00645368
0.00674877
0.00720505
0.00674453
0.00661482
0.00731019
0.00746196
0.00702829
0.00727396
0.00731741
0.00664676
0.00721342
0.00646224
0.00646923
0.0073937
0.0072874
0.00729463
0.0073521
0.00722405
0.00667743
0.00704748
0.00702335
0.00730256
0.00737685
0.00736706
0.00702237
0.0069166
0.00726119
0.00718592
0.00708967
0.00700815
0.00698001
0.00697132
0.00705464
0.00711612
0.00702634
0.0066515
0.00713312
0.00731029
0.00694093
0.00723626
0.00732163
0.00707156
0.00662757
0.00705873
0.00703679
0.00645332
0.00748863
0.00675873
0.00714155
0.00708099
0.00642935
0.0070714
0.00706212
0.0065495
0.0070758
0.00666764
0.00706207
0.00730791
0.00720936
0.00637012
0.00710303
0.00667352
0.00711782
0.00725895
0.00734066
0.00733911
0.00675069
0.00723404
0.00650156
0.00698267
0.00651328
0.00731695
0.00722437
0.00728335
0.00724976
0.006728
0.00735106
0.00703524
0.00721711
0.00702314
0.00686021
0.00701721
0.00716232
0.0071967
0.00719681
0.00707396
0.00716481
0.0069872
0.00669996
0.0070501
0.00712429
0.0071719
0.0063939
0.007261
0.00727232
0.007018
0.00712962
0.00716454
0.00711996
0.00732486
0.0063235
0.00712811
0.00727152
0.00639353
0.00703919
0.00716015
0.00669845
0.0065369
0.00651467
0.0069168
0.00656908
0.00703436
0.00681115
0.00690976
0.00732958
0.00658731
0.0072243
0.00729822
0.0070599
0.007252
0.00693404
0.00730948
0.00703854
0.00717368
0.00734209
0.00703456
0.00659494
0.00708648
0.00726427
0.00725784
0.0071883
0.00728026
0.00699282
0.00709606
0.00726276
0.00735631
0.00725948
0.0066526
0.00704515
0.00628623
0.0071203
0.00700091
0.00660825
0.00660599
0.00689626
0.0072066
0.00722581
0.00654323
0.00720929
0.00689701
0.00703233
0.00721747
0.00592091
0.00701826
0.00649261
0.0069538
0.00727324
0.00731372
0.0072408
0.00702913
0.00642809
0.0071906
0.00709079
0.00714213
0.00649774
0.00668934
0.0070351
0.0065535
0.00666281
0.00704965
0.00647902
0.00695477
0.00628056
0.00719608
0.00660971
0.00733165
0.00726059
0.00723078
0.00728044
0.00692596
0.00720717
0.0072733
0.00705189
0.00723924
0.00708135
0.00722751
0.00735044
0.00688691
0.00726367
0.00728103
0.00704588
0.00680097
0.00733923
0.0070884
0.00639692
0.00647418
0.00706269
0.00740423
0.00728742
0.00709376
0.00747724
0.00739301
0.00718229
0.00710359
0.00696667
0.00690801
0.00666275
0.00707157
0.00718806
0.00731418
0.00686349
0.00678301
0.00671071
0.0070019
0.00700826
0.00630927
0.00716141
0.00689432
0.00715705
0.00704806
0.00726361
0.00704472
0.0066959
0.00720057
0.00728493
0.00678569
0.00723485
0.00717479
0.00681106
0.00705474
0.00583539
0.0067397
0.00704156
0.00708129
0.0067064
0.00664875
0.00708607
0.00647542
0.00715742
0.00685239
0.00698079
0.00728802
0.00704708
0.00645475
0.00695032
0.00708836
0.00729707
0.00661093
0.00624781
0.00726157
0.00650053
0.00711597
0.00735395
0.00666817
0.0070419
0.00728721
0.00710307
0.00660953
0.00724974
0.00710878
0.00654432
0.00722011
0.00710228
0.00702454
0.00713811
0.00639317
0.00678129
0.00723288
0.0069079
0.00709128
0.00706532
0.00732925
0.00722105
0.00714762
0.00725803
0.00731019
0.00719972
0.00676223
0.0072376
0.00729302
0.0073534
0.00678695
0.00709496
0.00707961
0.0074457
0.00672656
0.00636696
0.00730167
0.00665409
0.00739682
0.00699864
0.00664006
0.00708858
0.00727304
0.00720997
0.00712323
0.00638546
0.0071511
0.00703384
0.00645267
0.00728708
0.00724653
0.00595067
0.00659954
0.0068067
0.00688803
0.00714335
0.00711863
0.00707397
0.00706751
0.00728292
0.00705899
0.0070445
0.00664397
0.00735423
0.00649963
0.00703508
0.00697976
0.00674071
0.0073366
0.00704323
0.00678909
0.00651295
0.00658624
0.00695772
0.00725737
0.00674072
0.00732406
0.0071219
0.00726545
0.0066514
0.00697194
0.00720745
0.00733597
0.00732587
0.0072148
0.0070753
0.00708535
0.00731854
0.0073316
0.00726948
0.00684797
0.00725211
0.00662377
0.00731397
0.00718214
0.00707764
0.00672257
0.00701727
0.00624918
0.00730981
0.00715807
0.00737554
0.00700828
0.00686534
0.00655167
0.00705146
0.00649018
0.00642778
0.00668066
0.00695092
0.00660352
0.00705275
0.00654989
0.00725505
0.00715342
0.00640609
0.00733197
0.00671848
0.00671998
0.00697109
0.00683826
0.00718244
0.00731261
0.00733923
0.00723778
0.00703674
0.00711717
0.00696051
0.00694241
0.00651755
0.00536832
0.00732106
0.00700606
0.00718338
0.00726394
0.00655677
0.00728514
0.00728028
0.00721964
0.00722992
0.00718651
0.00713064
0.00736507
0.00737241
0.00711452
0.00726152
0.00724349
0.00672215
0.00727061
0.00682754
0.00715681
0.00690018
0.00699839
0.00681181
0.0073716
0.0070345
0.00709407
0.00704467
0.0067801
0.00735467
0.00710932
0.00692984
0.00672016
0.00720954
0.00645525
0.0072701
0.0071903
0.00686867
0.00728453
0.00739652
0.00728417
0.0065171
0.0071267
0.00704786
0.00713848
0.00667475
0.00727907
0.00726511
0.00696089
0.00708403
0.00694234
0.00720369
0.00686581
0.00698931
0.00648361
0.00721705
0.00713259
0.00718431
0.00691718
0.00705087
0.0071694
0.00709137
0.00690502
0.00724504
0.00722442
0.00702708
0.00646207
0.00642603
0.00704568
0.00627055
0.00654401
0.00711518
0.00713259
0.00725818
0.00643255
0.00702189
0.00730547
0.00676477
0.00647738
0.00709885
0.00667465
0.00719369
0.00679994
0.00725241
0.00679551
0.00687581
0.00735827
0.00643499
0.0069413
0.00700333
0.00725087
0.00732273
0.00728603
0.00671905
0.00714972
0.00730521
0.00690767
0.00732895
0.00727742
0.00712607
0.00706792
0.00709219
0.00733622
0.00740324
0.00735458
0.00718082
0.00686048
0.00719924
0.00706597
0.00645723
0.00697768
0.00727061
0.00728663
0.00734865
0.00706572
0.00729346
0.00729423
0.00693317
0.00726212
0.00723451
0.00712277
0.00725087
0.00657642
0.00693047
0.00714944
0.0063797
0.00712701
0.00701981
0.00702971
0.0069959
0.00734672
0.00719018
0.00725522
0.00693177
0.00719461
0.00705285
0.00732309
0.0071257
0.00697503
0.00668812
0.00727251
0.00681149
0.00697421
0.00702773
0.00702014
0.00712367
0.00731914
0.00662612
0.00728293
0.00670143
0.00717289
0.00693798
0.00698444
0.00703019
0.00728297
0.00656487
0.00715957
0.00728656
0.00732833
0.00716555
0.00701708
0.00632103
0.00721163
0.00726144
0.00711684
0.00720179
0.00727107
0.00715659
0.00728519
0.00701301
0.00670618
0.00698332
0.00731984
0.00646976
0.00672524
0.00741878
0.00724215
0.00684202
0.00699488
0.00706343
0.00680212
0.00704052
0.00676534
0.0072666
0.00731201
0.0063642
0.00711768
0.00729665
0.00727238
0.00741802
0.0070268
0.0072683
0.00674209
0.00671912
0.00727659
0.00723483
0.00708978
0.00676941
0.00723921
0.00725127
0.00687895
0.00735783
0.00728337
0.00729463
0.00717054
0.00721628
0.00716181
0.00713239
0.00700433
0.00684379
0.00657554
0.00708362
0.0070851
0.00669607
0.00728825
0.00654904
0.00698636
0.00700889
0.00666069
0.00701145
0.00687997
0.00708554
0.0070337
0.00724201
0.00666823
0.00665764
0.00696658
0.00655213
0.00689217
0.00724847
0.00703005
0.00727424
0.00715397
0.00698794
0.00734914
0.0068935
0.00714398
0.00700053
0.00700633
0.00710929
0.00669783
0.00708643
0.00722811
0.00729902
0.00734978
0.00673286
0.00655169
0.00710163
0.00725906
0.00674168
0.00694971
0.0072438
0.00701823
0.00746136
0.00698365
0.00698121
0.00723845
0.00662314
0.00725517
0.00738678
0.00669915
0.00682713
0.00706954
0.00691412
0.00732919
0.00738027
0.00723164
0.00674315
0.007256
0.00658491
0.00698748
0.00729372
0.0069742
0.0074577
0.00643945
0.00711164
0.00713381
0.00714161
0.00650297
0.00655812
0.00721689
0.00737247
0.00691381
0.00732335
0.00717877
0.0070648
0.00661766
0.00686132
0.00717579
0.00701436
0.00706337
0.00736692
0.00732267
0.00738949
0.00733671
0.00715079
0.00713692
0.00719811
0.00676818
0.00727953
0.00718613
0.00714719
0.00715198
0.00735435
0.00703901
0.00731472
0.00698896
0.00635026
0.00738445
0.00686929
0.00723485
0.00684927
0.00728833
0.00676565
0.00717365
0.00736938
0.00699039
0.00707455
0.00647104
0.00723032
0.00724577
0.00710838
0.00655592
0.00739852
0.00699728
0.0071151
0.00728639
0.00732424
0.00723957
0.00704802
0.00709968
0.00740145
0.00676674
0.00680219
0.00669562
0.00675354
0.00713822
0.00656772
0.00732842
0.00731506
0.00742058
0.0069657
0.00688405
0.00708196
0.00723726
0.00708652
0.00710401
0.00730165
0.00733171
0.00709055
0.00728977
0.00715689
0.00696366
0.00712443
0.00686002
0.00730689
0.00729712
0.00735479
0.00739945
0.00725568
0.00683957
0.00738723
0.00712809
0.00707386
0.00698518
0.00718531
0.00729491
0.00705691
0.00724711
0.00693811
0.00707611
0.00713857
0.00677606
0.00653292
0.00692749
0.00698307
0.00733559
0.00685293
0.00654273
0.00711217
0.00727437
0.00687282
0.00686879
0.00709032
0.00734213
0.00722772
0.0069832
0.00691647
0.00708953
0.00728866
0.00690391
0.00700881
0.00704198
0.00653591
0.00693124
0.00697853
0.00720429
0.00724961
0.00702973
0.00727857
0.00719734
0.00704362
0.00704794
0.00660577
0.00677167
0.00655728
0.00728726
0.00716876
0.0074223
0.00752043
0.00711083
0.00654112
0.00730956
0.0069026
0.00712693
0.00714733
0.0072623
0.0065644
0.00725917
0.00665965
0.00711274
0.00705005
0.00702471
0.00743282
0.00698072
0.00721725
0.00674997
0.00699036
0.00700909
0.00730646
0.00679964
0.00690015
0.00721557
0.0072326
0.00720662
0.00722648
0.00731708
0.00672563
0.00708291
0.00692917
0.00687527
0.00718871
0.00737985
0.0073408
0.00725879
0.00737776
0.00669466
0.00668148
0.00671647
0.00724585
0.00655468
0.00726892
0.00715194
0.00663616
0.00692114
0.00724295
0.00726469
0.00685147
0.00691051
0.00692518
0.00715392
0.00736673
0.00699421
0.00666102
0.00714323
0.00742252
0.00723206
0.00742659
0.00732757
0.0074585
0.00734026
0.0073064
0.00678692
0.00653326
0.00709341
0.0068251
0.00736727
0.00669171
0.00717506
0.00699505
0.00736897
0.00684043
0.00725116
0.00723427
0.00714868
0.00703703
0.0066727
0.00727601
0.00693229
0.0073952
0.00704286
0.00734048
0.00732077
0.00711248
0.00656157
0.00664727
0.00703502
0.00722037
0.00678553
0.00746601
0.00672023
0.00716204
0.00720214
0.00688251
0.00718762
0.007162
0.00733132
0.0073391
0.00729876
0.00712062
0.00711956
0.00653813
0.00684416
0.00737898
0.00677973
0.00720752
0.00704899
0.00674143
0.00702663
0.00681296
0.00704149
0.00717142
0.00724621
0.00675742
0.007046
0.00710329
0.00670383
0.00684362
0.00706945
0.00712796
0.00720734
0.00664211
0.00660852
0.00706144
0.00695996
0.00738456
0.00740998
0.00734014
0.0069313
0.00696813
0.00714439
0.0068781
0.00714488
0.00657824
0.00709636
0.00700935
0.00737297
0.00725061
0.00707575
0.00715193
0.00735944
0.00665577
0.0071617
0.0073869
0.00695745
0.00627554
0.00703414
0.00675607
0.00708276
0.00649844
0.00728925
0.00744257
0.00735815
0.00710769
0.00657614
0.00663597
0.0072725
0.00733158
0.00730951
0.00713104
0.007065
0.00721077
0.00733619
0.00724049
0.00647054
0.00702459
0.00724109
0.00717814
0.00681569
0.00717697
0.00647681
0.00734595
0.00728779
0.00704183
0.00714657
0.00719057
0.0070464
0.00738887
0.00721699
0.00672311
0.00700952
0.00727772
0.0069955
0.00703856
0.00717206
0.00651626
0.00667073
0.00732449
0.00740272
0.00733991
0.00740524
0.00713936
0.00728584
0.00710828
0.00717134
0.00718172
0.00731013
0.00687539
0.00702962
0.00692449
0.00707249
0.00726757
0.00641076
0.00711163
0.00651899
0.0072983
0.00653998
0.00644551
0.00702573
0.00646544
0.00717643
0.00712514
0.00727816
0.00732008
0.00689713
0.00679365
0.00733597
0.00694779
0.00666485
0.0070904
0.00678841
0.00734443
0.00718553
0.00710843
0.00671308
0.00724221
0.00721206
0.00732322
0.00653863
0.00691656
0.007173
0.00715802
0.00745564
0.00666988
0.00663327
0.00727551
0.00718254
0.00734958
0.0070845
0.00640942
0.00716227
0.00725747
0.00655995
0.00649076
0.00732222
0.00671222
0.00672828
0.00729068
0.00738875
0.00725827
0.00742555
0.00705602
0.00695281
0.00733523
0.00677385
0.00732101
0.00688248
0.00700839
0.00727862
0.00703776
0.00656514
0.00726617
0.00725949
0.00690974
0.00706473
0.00707165
0.00686965
0.0063485
0.00707945
0.00712711
0.00722971
0.00691884
0.00704952
0.00659991
0.00724007
0.00738431
0.00647073
0.00715185
0.0071812
0.0063424
0.00657871
0.00713713
0.00705743
0.0072893
0.00697293
0.00671205
0.00723826
0.00732247
0.00726636
0.0071752
0.00733756
0.00662909
0.00734879
0.00709404
0.00670964
0.00659634
0.00623298
0.00667495
0.00714278
0.00700159
0.00719445
0.00703573
0.00674072
0.00684184
0.0065074
0.00645984
0.00735255
0.0073336
0.00676869
0.00733123
0.00734056
0.00671024
0.00707191
0.00709519
0.00685405
0.00691799
0.00731449
0.0068572
0.00644655
0.00732134
0.00731666
0.00693033
0.00737251
0.00690328
0.00675336
0.0067141
0.00691308
0.00648065
0.00671955
0.00718565
0.00715043
0.00698631
0.00728548
0.00735798
0.00703138
0.00716548
0.00494165
0.00693117
0.00662948
0.00696668
0.00724902
0.00704939
0.00682983
0.00701304
0.00672816
0.00718785
0.0070479
0.0068382
0.00664897
0.00638721
0.00640816
0.0069658
0.00666885
0.00701261
0.006663
0.00694316
0.00729115
0.00705407
0.00693796
0.00710333
0.00721157
0.00708009
0.00722284
0.00651078
0.00709526
0.00729825
0.00734058
0.00697228
0.00742735
0.00680982
0.00718561
0.00704508
0.00656069
0.00730262
0.00732031
0.00715786
0.00707545
0.00721889
0.0071283
0.00637035
0.00644222
0.00699648
0.00737582
0.0070569
0.00730353
0.00689018
0.00697221
0.00672243
0.0066138
0.00663095
0.00657777
0.00717894
0.00716456
0.00722176
0.00693706
0.00690551
0.00743735
0.00672249
0.00702384
0.00738982
0.00725921
0.00685352
0.00698734
0.00722862
0.00725705
0.0072835
0.00615671
0.00715952
0.00726584
0.0070434
0.00701615
0.00731079
0.00719743
0.0073315
0.00717103
0.00681196
0.00715018
0.00728717
0.00715266
0.00696235
0.00666446
0.00730703
0.00731061
0.00725989
0.00728556
0.00644168
0.00626339
0.00699222
0.00721187
0.00693997
0.00716663
0.00722626
0.007248
0.00726061
0.00691291
0.00723595
0.00708067
0.0072625
0.00674106
0.00672621
0.0070002
0.00736929
0.00672008
0.00725497
0.00665427
0.00698655
0.0070914
0.00742239
0.00704647
0.00730319
0.0073809
0.00723386
0.00709974
0.00722311
0.00706707
0.00689756
0.00641508
0.00741551
0.00618681
0.00662297
0.00608246
0.00642402
0.00651031
0.00698262
0.00716732
0.00666369
0.0068672
0.0063158
0.00669641
0.00678067
0.00735873
0.00654308
0.00656845
0.00722157
0.00654397
0.00687117
0.00706292
0.00724405
0.00691801
0.00657299
0.00638414
0.00679708
0.0074246
0.00676787
0.00648988
0.00718186
0.00687022
0.0071212
0.00707016
0.00671905
0.00724485
0.00639988
0.00654978
0.00691031
0.00725175
0.00691382
0.00698274
0.00698539
0.00702879
0.00637606
0.00675035
0.00698539
0.00716426
0.00724382
0.00660979
0.00628643
0.00693484
0.0073687
0.00703745
0.00711171
0.00670301
0.00700298
0.00707974
0.00659533
0.00732845
0.0068552
0.00655954
0.00631764
0.00719739
0.00706603
0.00731252
0.00706818
0.0072843
0.00663407
0.0069443
0.00642043
0.00632264
0.00725482
0.00670759
0.00705318
0.00710368
0.00674581
0.00655836
0.007332
0.00726666
0.00736393
0.00713558
0.00615452
0.00702239
0.00636552
0.00729501
0.00668979
0.00729114
0.00631457
0.00721151
0.00719321
0.00683112
0.00686321
0.00641476
0.00681948
0.00705112
0.00718061
0.00716269
0.00736729
0.00719972
0.00671175
0.00734799
0.00629654
0.00713088
0.00717678
0.00730419
0.00724188
0.00685545
0.00735639
0.00700103
0.00687929
0.00684745
0.0070768
0.0072101
0.00680797
0.00657161
0.00732512
0.00718826
0.00695522
0.0072483
0.00715596
0.00717055
0.00716918
0.00722049
0.00720998
0.00699232
0.00702368
0.00727625
0.00721301
0.00631908
0.00706048
0.00669442
0.00736358
0.00719724
0.00731395
0.00655493
0.00655568
0.00708454
0.0070762
0.00706477
0.00713163
0.00725424
0.00699945
0.00717622
0.0066724
0.00713966
0.00695259
0.00733568
0.00724593
0.00731716
0.00713896
0.00732375
0.00684734
0.00728612
0.00675906
0.00699606
0.0069041
0.00712527
0.00699213
0.00719871
0.00649437
0.00730236
0.00713601
0.00693565
0.00658746
0.00727598
0.00709862
0.00723661
0.00701086
0.007068
0.00726902
0.00657117
0.00729392
0.00703477
0.00708767
0.00675024
0.00682601
0.00689913
0.00653847
0.00691185
0.00743239
0.00712969
0.00625418
0.00706932
0.00653549
0.00712942
0.00718487
0.00643196
0.00646518
0.00684464
0.00708651
0.00725769
0.00688822
0.00692287
0.00702736
0.00629658
0.00692954
0.00730185
0.00724829
0.00729129
0.00699664
0.00721252
0.00667446
0.00670735
0.00740945
0.00706753
0.00717116
0.00718308
0.00732877
0.0070801
0.00705597
0.006441
0.00707011
0.00728427
0.00681586
0.00723742
0.00718354
0.00713718
0.00667918
0.00710127
0.00694634
0.00621069
0.00716234
0.00680442
0.00660759
0.00712872
0.00707113
0.00721757
0.00723092
0.00713882
0.00742331
0.00622982
0.00687112
0.00721785
0.00731858
0.00637006
0.00718599
0.00665833
0.00678095
0.00735128
0.00671902
0.00714464
0.0073932
0.00719815
0.00638895
0.00718885
0.00668301
0.00726339
0.0071837
0.00718955
0.00730398
0.00714081
0.00724836
0.00657616
0.007099
0.00724625
0.00661066
0.00716494
0.0070957
0.00688784
0.00724981
0.00686963
0.00729524
0.00733219
0.00733461
0.00701406
0.00718488
0.00713186
0.00714404
0.0068583
0.00679573
0.00654919
0.0064524
0.00715277
0.00724834
0.00707327
0.00737085
0.00674695
0.00735469
0.00643945
0.00740593
0.00737156
0.00724159
0.00734938
0.00683074
0.00640554
0.00701511
0.0066211
0.00731612
0.00703619
0.00646786
0.00694409
0.00743481
0.00713971
0.00655815
0.00677834
0.00642673
0.00742069
0.00658069
0.00725827
0.00675965
0.00674631
0.00730137
0.00730611
0.00730576
0.00716568
0.00639162
0.00703341
0.00731066
0.0066527
0.00738068
0.00693901
0.00742282
0.00622098
0.00710602
0.00673511
0.00702317
0.00680891
0.00696734
0.00689422
0.00674808
0.00698102
0.00700502
0.00699371
0.00692135
0.00738411
0.0065953
0.00705767
0.00700506
0.00714649
0.00733425
0.00671612
0.00724705
0.0066049
0.00701671
0.00727893
0.00717089
0.00698458
0.00715022
0.00716514
0.00672809
0.00705204
0.00696587
0.00652367
0.00652615
0.00721443
0.00723104
0.00666202
0.00695869
0.0072175
0.00663395
0.00713771
0.00674672
0.00718618
0.00735359
0.00701412
0.00660162
0.00723357
0.00642859
0.00714055
0.00737368
0.00618797
0.0074744
0.00661223
0.00692513
0.00678172
0.00661027
0.0069812
0.00688268
0.00645497
0.007311
0.00728479
0.00616187
0.00690003
0.00701213
0.00705858
0.00719184
0.00737263
0.00724338
0.00681602
0.0067593
0.0064288
0.00636855
0.00578169
0.00733314
0.00705871
0.00714935
0.00722419
0.00658475
0.00647834
0.00701236
0.00725839
0.00645552
0.0072424
0.00705079
0.00702136
0.00716288
0.00687164
0.00710956
0.00694959
0.00701764
0.00731216
0.0061644
0.00706877
0.00700665
0.00727932
0.00707691
0.00726312
0.00707405
0.00664727
0.00736586
0.00752116
0.00706715
0.00694514
0.00660733
0.00689293
0.00715076
0.00729999
0.00694429
0.00698686
0.00689259
0.006362
0.0068313
0.00732298
0.00686626
0.00750001
0.00704833
0.00683087
0.00728311
0.0065538
0.0071668
0.00655621
0.00731692
0.00715032
0.00688469
0.00744708
0.00687004
0.0070383
0.00727299
0.00694556
0.00711058
0.00686685
0.0071934
0.00657419
0.00706736
0.00704217
0.00662439
0.00724645
0.00690831
0.00681729
0.00730964
0.00665873
0.00734003
0.0069611
0.00724915
0.00668763
0.00710427
0.00661544
0.00655914
0.00723956
0.00665587
0.00696606
0.00722029
0.00635923
0.00694163
0.00717672
0.00688653
0.00650003
0.00680954
0.00699994
0.00689608
0.00706677
0.0069871
0.00716842
0.00680363
0.0072459
0.00629387
0.00641436
0.00733389
0.00684572
0.00635651
0.00648592
0.00703611
0.00575765
0.00654365
0.00704844
0.0070506
0.00745065
0.00667511
0.00728698
0.00726176
0.00727765
0.00730021
0.0073708
0.00694312
0.00689602
0.00725815
0.0068865
0.00688619
0.00711847
0.00689533
0.00629469
0.00655873
0.00692828
0.00599173
0.0071633
0.00721024
0.00690768
0.00723663
0.00728965
0.0070192
0.00750493
0.00672336
0.00643851
0.00694449
0.00696062
0.00714232
0.00688348
0.00706986
0.00730496
0.00690399
0.00678911
0.00704266
0.007401
0.00721875
0.0074241
0.00719578
0.00696417
0.00703882
0.00678759
0.0067603
0.00739508
0.0068333
0.0073839
0.00692167
0.00725702
0.00617462
0.00713749
0.00705346
0.00704622
0.00675337
0.00718618
0.00702969
0.00725828
0.00624466
0.00681413
0.00705336
0.00685781
0.00706344
0.00704135
0.00709042
0.00727576
0.007041
0.00639063
0.00676517
0.0065585
0.00705879
0.00703738
0.00660181
0.00743238
0.00712967
0.00706845
0.00725794
0.006722
0.0065851
0.00736797
0.0065573
0.00645193
0.00624016
0.00632942
0.00625317
0.00686021
0.00736435
0.00731618
0.00697199
0.00705711
0.00715726
0.00682318
0.00716762
0.00645242
0.00729947
0.00480328
0.00714454
0.00653635
0.00637132
0.00720128
0.00656629
0.00714079
0.00717452
0.00725081
0.00663611
0.00713825
0.00699688
0.00707579
0.0065575
0.0072692
0.00711949
0.00728306
0.00716303
0.00660793
0.00700837
0.00707068
0.00683899
0.00621613
0.00676401
0.00674314
0.0064842
0.0065547
0.00707142
0.00679273
0.00650926
0.00679168
0.00717861
0.00728614
0.00733296
0.00507239
0.00645852
0.00723456
0.00649366
0.00712188
0.00637272
0.00736943
0.00712699
0.00721285
0.00659415
0.00701967
0.00731138
0.00730115
0.00709905
0.00722383
0.00707018
0.00699737
0.00703829
0.00653269
0.00704363
0.00682092
0.00680686
0.00681018
0.0063308
0.00702689
0.0072921
0.0066019
0.00677772
0.00653968
0.00720804
0.00715481
0.00638647
0.00691644
0.00706593
0.00710756
0.00653605
0.00704998
0.00709234
0.00748653
0.00594613
0.00707373
0.00698468
0.00648407
0.00734465
0.00675558
0.00665781
0.00711832
0.00738299
0.00651714
0.0072791
0.0071397
0.0064695
0.00644755
0.00720942
0.00733706
0.0065342
0.00712742
0.00642254
0.00680425
0.00732406
0.00671318
0.00712592
0.00701019
0.00742084
0.00692279
0.00688531
0.00673919
0.00691728
0.00708081
0.00684231
0.0072158
0.00659082
0.00656567
0.00710269
0.00691841
0.00724838
0.00684823
0.00725028
0.00711987
0.00715025
0.00726667
0.00714954
0.00690245
0.00660715
0.00719646
0.00698939
0.00687915
0.00710522
0.00737814
0.00721514
0.00684579
0.00653854
0.00706137
0.0066494
0.00634497
0.00678258
0.00691722
0.00628532
0.00714467
0.00665404
0.00604315
0.00650546
0.00705268
0.00615612
0.00693984
0.00719513
0.00701991
0.00638508
0.00703927
0.00746614
0.00656123
0.0063079
0.00667295
0.00714653
0.00704246
0.00694591
0.00721627
0.00653352
0.00725319
0.00708976
0.0073559
0.00725016
0.00491085
0.00709404
0.00709369
0.00711712
0.00675843
0.00699974
0.00614958
0.00693104
0.00733899
0.0068428
0.00644087
0.00693052
0.00717086
0.00716168
0.00630843
0.00707807
0.00726359
0.00736007
0.00703298
0.00707843
0.00640716
0.00641157
0.00639619
0.00706421
0.00697566
0.00713536
0.00741893
0.00719271
0.00615086
0.00729893
0.00722866
0.00727727
0.00688114
0.00731303
0.00663288
0.00669595
0.00688297
0.0069806
0.00670761
0.00639117
0.00712071
0.0067429
0.00721254
0.0067369
0.00602909
0.00688412
0.00711176
0.00694686
0.0065293
0.00668496
0.00717922
0.007253
0.00674654
0.00694957
0.00714986
0.00733104
0.00715828
0.00738803
0.00715325
0.00716055
0.00631241
0.00705187
0.00662925
0.00723434
0.00697046
0.00681093
0.00644527
0.00734574
0.00632473
0.00682067
0.00639234
0.00678727
0.00613659
0.00694526
0.00702638
0.007026
0.00680455
0.0067696
0.00722275
0.00652398
0.00715274
0.00677344
0.00696592
0.00617009
0.00717964
0.00692584
0.00664147
0.00675867
0.00699176
0.00692177
0.00696002
0.00564237
0.00707696
0.00689434
0.00692888
0.00665392
0.00683363
0.00681732
0.00573873
0.00714859
0.00700369
0.00406369
0.00668142
0.0072433
0.00713609
0.00717969
0.00671507
0.00601311
0.0072579
0.00663348
0.00724957
0.0073916
0.00693467
0.00670769
0.00730632
0.00638389
0.00614938
0.00620929
0.00702205
0.00700612
0.0066935
0.00737482
0.00718824
0.00707635
0.00667431
0.00630226
0.00739739
0.00711124
0.0074371
0.00718342
0.00643813
0.00681857
0.00691301
0.0065691
0.0070048
0.00687644
0.00703964
0.0074796
0.00691817
0.00702882
0.00660179
0.00680605
0.00676628
0.0070009
0.00690631
0.00637936
0.00660651
0.00700259
0.00717504
0.00652935
0.00706163
0.00674266
0.00723163
0.00651654
0.006578
0.00578927
0.0072771
0.00726508
0.00712956
0.0070977
0.00683458
0.00649476
0.00644861
0.00595217
0.0069259
0.00643238
0.00688665
0.0068114
0.00715026
0.00684193
0.00717412
0.00657564
0.00417036
0.00656455
0.00720604
0.00465234
0.00703824
0.00742615
0.00685993
0.00739735
0.00650528
0.00664916
0.00661121
0.00733731
0.00550357
0.00725006
0.00659884
0.00601393
0.00724901
0.00667032
0.00729389
0.00433054
0.00630473
0.00701316
0.00716821
0.00735081
0.00714558
0.00729657
0.00716803
0.00717685
0.00727993
0.007156
0.0070395
0.00674887
0.00577026
0.0071705
0.0067383
0.00679385
0.00724915
0.00721171
0.00694913
0.00633289
0.00736368
0.00719404
0.00691951
0.0064652
0.00644304
0.00712108
0.00719003
0.0073128
0.00720704
0.00693741
0.00712631
0.00648183
0.0071479
0.00696425
0.00718849
0.0067576
0.00647982
0.00600016
0.0069258
0.00745414
0.00717721
0.00680832
0.00666723
0.00692515
0.0064782
0.00637795
0.00710575
0.00675949
0.00521967
0.00563733
0.00603895
0.00642054
0.00695761
0.00679731
0.00686281
0.00685831
0.00622583
0.00688232
0.00725739
0.00614911
0.0074726
0.00630457
0.00719351
0.00661975
0.00724845
0.00702909
0.00713094
0.0071564
0.00673553
0.00649952
0.00667088
0.00672065
0.00714763
0.00697217
0.00665329
0.0065982
0.00698816
0.00633652
0.00699263
0.00666804
0.00717833
0.00671591
0.0069242
0.0052456
0.00728981
0.00734688
0.00701831
0.0072103
0.00695943
0.00692799
0.00699605
0.00710122
0.00713816
0.00723458
0.00715917
0.00632264
0.00627565
0.00745996
0.00650143
0.00629482
0.0062528
0.00691468
0.0072288
0.0069127
0.00740787
0.00741864
0.00720731
0.00722869
0.00687699
0.00648996
0.00681924
0.00584667
0.00710089
0.00690697
0.00680644
0.00686055
0.00668718
0.00684764
0.00730195
0.00621795
0.00667442
0.00687437
0.00626542
0.00718402
0.0059718
0.0061527
0.00635186
0.00696985
0.00661704
0.00636736
0.00664446
0.00645908
0.00690237
0.00589294
0.00585174
0.00684409
0.0064532
0.00615786
0.00693245
0.0064318
0.00675747
0.00682855
0.00663323
0.00636473
0.00688906
0.0065376
0.00662902
0.00632475
0.00678539
0.00665883
0.0059894
0.00717919
0.00685366
0.00687921
0.0066006
0.00658581
0.00633217
0.00697268
0.00692524
0.00725515
0.00702804
0.00702804
0.00679305
0.00707042
0.00719718
0.00703317
0.00546804
0.00574711
0.0062044
0.00713015
0.00630158
0.00710549
0.00558045
0.00668821
0.00701863
0.00656892
0.00677978
0.00677888
0.00676187
0.0068091
0.00733231
0.00659658
0.00672656
0.00728205
0.00607803