/*--------------------------------*- C++ -*----------------------------------*\
| =========                 |                                                 |
| \\      /  F ield         | OpenFOAM: The Open Source CFD Toolbox           |
|  \\    /   O peration     | Version:  2212                                  |
|   \\  /    A nd           | Website:  www.openfoam.com                      |
|    \\/     M anipulation  |                                                 |
\*---------------------------------------------------------------------------*/
FoamFile
{
    version     2.0;
    format      ascii;
    arch        "LSB;label=32;scalar=64";
    class       volScalarField;
    location    "0.064";
    object      nut;
}
// * * * * * * * * * * * * * * * * * * * * * * * * * * * * * * * * * * * * * //

dimensions      [0 2 -1 0 0 0 0];

internalField   nonuniform List<scalar> 
31639
(
2.65257e-05
2.57921e-05
2.61125e-05
2.88724e-05
2.55288e-05
2.48869e-05
2.38078e-05
2.66998e-05
2.59231e-05
2.7973e-05
2.74053e-05
2.78777e-05
2.63712e-05
2.82992e-05
2.49118e-05
2.29155e-05
2.67846e-05
2.43207e-05
2.2903e-05
2.61907e-05
1.91904e-05
2.78952e-05
2.81628e-05
2.28798e-05
2.2296e-05
2.56478e-05
2.59592e-05
2.1395e-05
2.39953e-05
2.83784e-05
2.80824e-05
2.35341e-05
2.84762e-05
2.21986e-05
2.05842e-05
2.82555e-05
1.77451e-05
2.92919e-05
2.82484e-05
1.71236e-05
2.03864e-05
2.05017e-05
2.78217e-05
2.76319e-05
2.70835e-05
2.79921e-05
2.49991e-05
2.45668e-05
2.68935e-05
2.86428e-05
2.79545e-05
1.75803e-05
2.81975e-05
1.85989e-05
2.40436e-05
2.61539e-05
1.9082e-05
2.61102e-05
2.55748e-05
1.93951e-05
2.575e-05
2.74611e-05
2.25429e-05
2.58814e-05
2.62672e-05
2.87847e-05
2.55267e-05
2.60128e-05
2.16108e-05
2.85919e-05
2.77167e-05
2.38482e-05
2.74337e-05
2.62211e-05
2.75761e-05
2.07283e-05
2.76769e-05
2.42302e-05
2.49052e-05
2.66661e-05
2.27034e-05
1.67386e-05
2.83585e-05
2.65269e-05
2.67674e-05
2.7779e-05
2.84604e-05
2.82495e-05
2.14233e-05
2.87734e-05
2.64223e-05
2.60308e-05
1.96705e-05
2.50833e-05
2.17771e-05
2.52628e-05
2.45985e-05
2.60425e-05
2.63039e-05
1.96025e-05
2.79482e-05
2.75254e-05
2.51944e-05
1.90612e-05
1.93543e-05
2.81389e-05
1.91689e-05
1.79387e-05
2.16855e-05
1.87322e-05
2.75942e-05
1.97405e-05
2.51618e-05
2.36842e-05
2.61092e-05
1.84841e-05
2.49248e-05
2.51613e-05
2.6789e-05
2.55166e-05
2.73584e-05
2.75705e-05
2.76533e-05
2.60877e-05
2.60381e-05
2.80442e-05
2.59726e-05
2.1958e-05
2.11971e-05
2.74031e-05
2.80596e-05
2.78007e-05
2.80847e-05
2.42137e-05
2.73994e-05
2.59936e-05
1.95245e-05
1.83871e-05
2.76041e-05
2.60441e-05
2.59715e-05
2.77288e-05
2.78908e-05
1.86004e-05
1.76476e-05
2.80802e-05
2.69733e-05
2.01703e-05
2.02803e-05
2.76866e-05
2.19654e-05
2.69976e-05
2.30031e-05
2.68057e-05
2.11009e-05
2.86909e-05
2.54779e-05
2.09146e-05
2.06671e-05
2.28074e-05
2.82868e-05
2.11636e-05
2.22223e-05
1.92063e-05
1.96943e-05
2.5474e-05
2.09508e-05
2.86754e-05
2.78189e-05
1.89544e-05
2.50063e-05
2.4015e-05
2.02378e-05
2.60953e-05
2.87743e-05
2.66971e-05
2.63281e-05
2.85109e-05
2.60725e-05
2.61366e-05
2.49333e-05
2.45054e-05
2.46049e-05
1.75203e-05
2.59166e-05
2.90394e-05
2.60296e-05
2.85343e-05
1.97994e-05
1.9827e-05
2.96001e-05
2.73045e-05
2.69909e-05
2.55878e-05
2.61874e-05
2.43345e-05
2.41116e-05
2.75345e-05
1.92025e-05
2.41906e-05
2.81183e-05
2.87009e-05
2.76983e-05
2.71034e-05
2.50896e-05
2.52945e-05
2.53297e-05
2.45831e-05
2.81198e-05
1.74513e-05
2.56437e-05
2.44256e-05
2.66044e-05
2.76357e-05
2.75661e-05
2.83646e-05
2.03484e-05
2.3008e-05
2.77815e-05
2.70096e-05
2.69843e-05
2.52494e-05
1.91846e-05
2.51288e-05
1.94359e-05
2.39865e-05
2.74621e-05
2.30754e-05
2.0253e-05
2.67232e-05
2.66223e-05
2.87823e-05
2.11226e-05
1.97284e-05
2.65835e-05
2.69324e-05
1.90708e-05
2.8583e-05
2.22556e-05
1.90818e-05
2.50728e-05
2.67175e-05
2.55688e-05
2.30722e-05
2.27159e-05
2.67628e-05
2.51076e-05
2.46753e-05
2.03024e-05
2.5504e-05
2.4785e-05
2.04809e-05
2.32298e-05
2.85614e-05
2.72186e-05
2.38682e-05
2.0775e-05
2.72591e-05
2.74384e-05
2.5869e-05
2.8691e-05
2.81456e-05
2.53642e-05
2.81513e-05
2.49694e-05
2.44883e-05
1.86566e-05
2.26575e-05
2.83812e-05
2.47136e-05
2.65552e-05
2.34921e-05
2.5525e-05
2.8703e-05
2.89063e-05
2.64959e-05
1.96029e-05
2.4624e-05
2.21864e-05
2.80757e-05
2.49311e-05
2.86578e-05
2.84003e-05
2.42061e-05
2.01721e-05
2.22353e-05
2.09827e-05
1.91442e-05
2.80955e-05
2.14539e-05
2.67396e-05
2.53069e-05
2.32088e-05
2.10013e-05
2.90468e-05
2.37679e-05
2.35035e-05
2.78193e-05
2.59244e-05
2.2461e-05
2.50902e-05
2.17413e-05
2.59622e-05
2.52396e-05
2.0213e-05
2.36872e-05
2.4422e-05
1.66997e-05
1.8078e-05
2.80751e-05
2.82648e-05
2.69808e-05
1.89988e-05
2.11187e-05
2.73984e-05
2.15983e-05
2.12334e-05
2.8216e-05
2.90684e-05
2.53202e-05
2.78662e-05
2.85764e-05
2.05742e-05
2.76781e-05
1.86963e-05
1.86201e-05
2.84498e-05
2.8098e-05
2.81945e-05
2.88269e-05
2.73265e-05
2.10239e-05
2.57512e-05
2.54063e-05
2.80967e-05
2.87021e-05
2.91002e-05
2.53302e-05
2.43684e-05
2.72638e-05
2.73003e-05
2.62928e-05
2.52499e-05
2.48203e-05
2.5065e-05
2.52702e-05
2.63918e-05
2.53543e-05
2.05269e-05
2.60048e-05
2.84854e-05
2.41726e-05
2.738e-05
2.85355e-05
2.56835e-05
2.0181e-05
2.55754e-05
2.54585e-05
1.89665e-05
2.94835e-05
2.1388e-05
2.61544e-05
2.73749e-05
1.82893e-05
2.57455e-05
2.5586e-05
1.9761e-05
2.58061e-05
2.07857e-05
2.53314e-05
2.8208e-05
2.67097e-05
1.80922e-05
2.62109e-05
2.08968e-05
2.63222e-05
2.7961e-05
2.83494e-05
2.80783e-05
2.13522e-05
2.7575e-05
1.93018e-05
2.50553e-05
1.89364e-05
2.85073e-05
2.76289e-05
2.81928e-05
2.79366e-05
2.22283e-05
2.82011e-05
2.5534e-05
2.70274e-05
2.53323e-05
2.15449e-05
2.51691e-05
2.68719e-05
2.72536e-05
2.71972e-05
2.56419e-05
2.71696e-05
2.45668e-05
2.07304e-05
2.48771e-05
2.64402e-05
2.69888e-05
1.81626e-05
2.79797e-05
2.80014e-05
2.52926e-05
2.66732e-05
2.71125e-05
2.57511e-05
2.85061e-05
1.93053e-05
2.64353e-05
2.78734e-05
1.83991e-05
2.54196e-05
2.65884e-05
2.09893e-05
1.9574e-05
1.94708e-05
2.34739e-05
1.9533e-05
2.52395e-05
2.49339e-05
2.35296e-05
2.80661e-05
1.99548e-05
2.75243e-05
2.83721e-05
2.56682e-05
2.76089e-05
2.41548e-05
2.81436e-05
2.52851e-05
2.58971e-05
2.87587e-05
2.56099e-05
2.00151e-05
2.58541e-05
2.78659e-05
2.79483e-05
2.68934e-05
2.81991e-05
2.49881e-05
2.62727e-05
2.75223e-05
2.85967e-05
2.74583e-05
2.05458e-05
2.52588e-05
1.74837e-05
2.47577e-05
2.51815e-05
1.99066e-05
1.93744e-05
2.36072e-05
2.72406e-05
2.74909e-05
1.97373e-05
2.70904e-05
2.32232e-05
2.54982e-05
2.71085e-05
1.9458e-05
2.52977e-05
1.8717e-05
2.48065e-05
2.80688e-05
2.84025e-05
2.75426e-05
2.4803e-05
1.89282e-05
2.67856e-05
2.60692e-05
2.69465e-05
1.90007e-05
2.05239e-05
2.54464e-05
1.96371e-05
2.08994e-05
2.56971e-05
1.8873e-05
2.42898e-05
1.87853e-05
2.67849e-05
2.0095e-05
2.86537e-05
2.78032e-05
2.76457e-05
2.805e-05
2.29445e-05
2.75412e-05
2.79984e-05
2.57121e-05
2.74263e-05
2.59836e-05
2.77425e-05
2.80071e-05
2.31824e-05
2.77953e-05
2.81782e-05
2.5588e-05
2.28399e-05
2.87568e-05
2.59182e-05
1.81914e-05
1.85716e-05
2.57074e-05
2.88017e-05
2.8308e-05
2.56676e-05
2.91161e-05
2.82804e-05
2.71847e-05
2.60264e-05
2.43233e-05
2.41402e-05
2.07205e-05
2.57511e-05
2.65124e-05
2.84199e-05
2.21712e-05
2.19149e-05
2.13573e-05
2.50365e-05
2.52806e-05
1.7723e-05
2.65687e-05
2.31805e-05
2.67571e-05
2.51724e-05
2.79454e-05
2.50174e-05
2.0818e-05
2.71234e-05
2.83819e-05
2.1907e-05
2.76393e-05
2.83174e-05
2.49681e-05
2.54716e-05
2.14e-05
2.15258e-05
2.55397e-05
2.58128e-05
2.10114e-05
2.05205e-05
2.59063e-05
2.17255e-05
2.67391e-05
2.22876e-05
2.4612e-05
2.81293e-05
2.55247e-05
1.92251e-05
2.32609e-05
2.59761e-05
2.83299e-05
2.00052e-05
1.7229e-05
2.76505e-05
1.91953e-05
2.63037e-05
2.87501e-05
2.03735e-05
2.56114e-05
2.75911e-05
2.53552e-05
1.96568e-05
2.79041e-05
2.54225e-05
2.00729e-05
2.76756e-05
2.62538e-05
2.53071e-05
2.68173e-05
1.81663e-05
2.25603e-05
2.68168e-05
2.36656e-05
2.38919e-05
2.47208e-05
2.75755e-05
2.76491e-05
2.68202e-05
2.77413e-05
2.83821e-05
2.72955e-05
2.21742e-05
2.76629e-05
2.80183e-05
2.84118e-05
2.198e-05
2.59879e-05
2.56583e-05
2.95481e-05
2.11153e-05
1.80016e-05
2.84703e-05
2.12146e-05
2.93002e-05
2.49922e-05
2.05657e-05
2.5809e-05
2.79832e-05
2.64179e-05
2.63012e-05
1.87072e-05
2.7004e-05
2.56492e-05
1.85018e-05
2.81058e-05
2.76566e-05
2.12216e-05
2.00861e-05
2.14065e-05
2.33731e-05
2.64928e-05
2.60499e-05
2.55027e-05
2.58481e-05
2.80016e-05
2.55797e-05
2.53063e-05
2.03108e-05
2.89186e-05
1.89589e-05
2.56357e-05
2.43078e-05
2.33627e-05
2.85779e-05
2.57474e-05
2.20835e-05
1.92747e-05
1.9853e-05
2.42532e-05
2.7939e-05
2.18742e-05
2.86378e-05
2.53595e-05
2.79743e-05
2.04349e-05
2.47673e-05
2.71535e-05
2.89262e-05
2.84234e-05
2.76184e-05
2.59947e-05
2.56247e-05
2.85652e-05
2.85272e-05
2.78727e-05
2.24073e-05
2.77973e-05
2.03854e-05
2.8143e-05
2.61145e-05
2.56665e-05
2.12269e-05
2.5155e-05
1.73549e-05
2.84442e-05
2.59682e-05
2.87246e-05
2.53024e-05
2.40063e-05
2.0094e-05
2.78173e-05
1.92634e-05
1.79727e-05
2.06653e-05
2.26641e-05
2.0139e-05
2.52504e-05
1.9228e-05
2.79723e-05
2.63608e-05
1.81296e-05
2.83654e-05
2.0936e-05
2.23479e-05
2.49342e-05
2.33443e-05
2.68346e-05
2.85267e-05
2.89908e-05
2.75223e-05
2.51697e-05
2.64019e-05
2.40438e-05
2.41097e-05
1.93438e-05
1.46342e-05
2.8526e-05
2.51727e-05
2.70893e-05
2.78345e-05
1.97227e-05
2.80413e-05
2.79732e-05
2.74881e-05
2.75998e-05
2.72107e-05
2.63965e-05
2.88183e-05
2.89519e-05
2.58901e-05
2.77572e-05
2.76327e-05
2.11256e-05
2.78807e-05
2.30941e-05
2.63376e-05
2.43945e-05
2.5342e-05
2.27024e-05
2.86738e-05
2.54701e-05
2.58469e-05
2.48345e-05
2.14067e-05
2.88321e-05
2.60109e-05
2.36714e-05
2.06576e-05
2.74249e-05
1.8992e-05
2.81985e-05
2.69695e-05
2.4103e-05
2.73511e-05
2.91812e-05
2.76664e-05
1.92769e-05
2.64229e-05
2.46581e-05
2.57638e-05
2.10776e-05
2.80885e-05
2.78487e-05
2.46391e-05
2.56909e-05
2.47395e-05
2.68684e-05
2.34482e-05
2.48211e-05
1.88814e-05
2.75461e-05
2.63846e-05
2.7476e-05
2.26688e-05
2.56914e-05
2.67188e-05
2.56858e-05
2.33274e-05
2.75207e-05
2.7569e-05
2.51059e-05
1.89591e-05
1.8648e-05
2.54392e-05
1.77574e-05
2.05006e-05
2.59761e-05
2.63039e-05
2.80608e-05
1.8662e-05
2.53802e-05
2.83643e-05
2.15598e-05
1.93558e-05
2.63581e-05
2.09501e-05
2.6454e-05
2.17424e-05
2.7499e-05
2.22598e-05
2.32773e-05
2.87251e-05
1.87133e-05
2.4598e-05
2.50713e-05
2.76939e-05
2.8239e-05
2.83482e-05
2.08327e-05
2.69809e-05
2.79861e-05
2.35332e-05
2.86195e-05
2.78392e-05
2.61923e-05
2.74918e-05
2.60424e-05
2.8357e-05
2.91528e-05
2.85629e-05
2.70225e-05
2.35672e-05
2.68428e-05
2.58143e-05
1.93625e-05
2.48641e-05
2.72946e-05
2.80813e-05
2.81349e-05
2.53725e-05
2.83203e-05
2.81017e-05
2.50228e-05
2.77488e-05
2.77509e-05
2.6753e-05
2.73084e-05
1.98734e-05
2.41493e-05
2.69634e-05
1.78623e-05
2.59834e-05
2.51184e-05
2.47037e-05
2.49192e-05
2.87632e-05
2.71644e-05
2.79173e-05
2.44359e-05
2.71037e-05
2.57579e-05
2.80436e-05
2.6225e-05
2.41187e-05
2.06551e-05
2.7874e-05
2.10982e-05
2.4524e-05
2.48121e-05
2.5099e-05
2.63171e-05
2.86486e-05
2.01579e-05
2.78708e-05
2.10386e-05
2.68934e-05
2.36684e-05
2.4939e-05
2.52273e-05
2.82658e-05
1.98654e-05
2.70639e-05
2.81316e-05
2.7797e-05
2.62413e-05
2.51278e-05
1.784e-05
2.75133e-05
2.75806e-05
2.62888e-05
2.75327e-05
2.81094e-05
2.67053e-05
2.69916e-05
2.59361e-05
2.12632e-05
2.45084e-05
2.85235e-05
1.92681e-05
2.16289e-05
2.90877e-05
2.78686e-05
2.31319e-05
2.4453e-05
2.51546e-05
2.25812e-05
2.54401e-05
2.19821e-05
2.7873e-05
2.80236e-05
1.77736e-05
2.61206e-05
2.84381e-05
2.75929e-05
2.84496e-05
2.56453e-05
2.79754e-05
2.13817e-05
2.12572e-05
2.84187e-05
2.77165e-05
2.59943e-05
2.16939e-05
2.76354e-05
2.77032e-05
2.25203e-05
2.83486e-05
2.81509e-05
2.81605e-05
2.66388e-05
2.75326e-05
2.6175e-05
2.65885e-05
2.53923e-05
2.32436e-05
2.00238e-05
2.60661e-05
2.60779e-05
2.12677e-05
2.82794e-05
1.94276e-05
2.47956e-05
2.48365e-05
2.04847e-05
2.49044e-05
2.35589e-05
2.62445e-05
2.52437e-05
2.7429e-05
2.02847e-05
2.0112e-05
2.44882e-05
1.98161e-05
2.4192e-05
2.79329e-05
2.52959e-05
2.8014e-05
2.54134e-05
2.51835e-05
2.82693e-05
2.35643e-05
2.58316e-05
2.53306e-05
2.52129e-05
2.59356e-05
2.09992e-05
2.57861e-05
2.71316e-05
2.84937e-05
2.87556e-05
2.04939e-05
1.9706e-05
2.58697e-05
2.80724e-05
2.18776e-05
2.44791e-05
2.69322e-05
2.54192e-05
2.95257e-05
2.45917e-05
2.49039e-05
2.68812e-05
2.03213e-05
2.78124e-05
2.82841e-05
2.09327e-05
2.26758e-05
2.59358e-05
2.37196e-05
2.84626e-05
2.8735e-05
2.66787e-05
2.12325e-05
2.78934e-05
2.00122e-05
2.46665e-05
2.75535e-05
2.35575e-05
2.91156e-05
1.87652e-05
2.60804e-05
2.66434e-05
2.59667e-05
1.88046e-05
1.97868e-05
2.7769e-05
2.85813e-05
2.36491e-05
2.86155e-05
2.65373e-05
2.56894e-05
1.99342e-05
2.21018e-05
2.62861e-05
2.51301e-05
2.55212e-05
2.87552e-05
2.87244e-05
2.87199e-05
2.88067e-05
2.63529e-05
2.61063e-05
2.72738e-05
2.08299e-05
2.75907e-05
2.70446e-05
2.65547e-05
2.62485e-05
2.83447e-05
2.4724e-05
2.84838e-05
2.48215e-05
1.80273e-05
2.89715e-05
2.26457e-05
2.76977e-05
2.33029e-05
2.83487e-05
2.11687e-05
2.69787e-05
2.88712e-05
2.48771e-05
2.58436e-05
1.8934e-05
2.77292e-05
2.77013e-05
2.6789e-05
1.97528e-05
2.92899e-05
2.49355e-05
2.67402e-05
2.77046e-05
2.81739e-05
2.75352e-05
2.57063e-05
2.5021e-05
2.86849e-05
2.12734e-05
2.14257e-05
2.06719e-05
2.20482e-05
2.6337e-05
1.96948e-05
2.85469e-05
2.81619e-05
2.85338e-05
2.45331e-05
2.4415e-05
2.57554e-05
2.74635e-05
2.58345e-05
2.50894e-05
2.8194e-05
2.75536e-05
2.47139e-05
2.82365e-05
2.6573e-05
2.46773e-05
2.66102e-05
2.30492e-05
2.81421e-05
2.81512e-05
2.88673e-05
2.88198e-05
2.76421e-05
2.30337e-05
2.88906e-05
2.59023e-05
2.5701e-05
2.50632e-05
2.6609e-05
2.83865e-05
2.56881e-05
2.76132e-05
2.40724e-05
2.55337e-05
2.65207e-05
2.14389e-05
1.91564e-05
2.51674e-05
2.39113e-05
2.81431e-05
2.31774e-05
1.94885e-05
2.59236e-05
2.79006e-05
2.26703e-05
2.3358e-05
2.59846e-05
2.86941e-05
2.76101e-05
2.48626e-05
2.25586e-05
2.57989e-05
2.73708e-05
2.36986e-05
2.52971e-05
2.5491e-05
1.89783e-05
2.34835e-05
2.39121e-05
2.67803e-05
2.73413e-05
2.53018e-05
2.76719e-05
2.68136e-05
2.54511e-05
2.54567e-05
2.0772e-05
2.24302e-05
1.89548e-05
2.74113e-05
2.6533e-05
2.89873e-05
3.01261e-05
2.70592e-05
1.9688e-05
2.76614e-05
2.37521e-05
2.61398e-05
2.65391e-05
2.78383e-05
1.96723e-05
2.83653e-05
2.0566e-05
2.61945e-05
2.55038e-05
2.52606e-05
2.89396e-05
2.42077e-05
2.67572e-05
2.16984e-05
2.49642e-05
2.46135e-05
2.78105e-05
2.29424e-05
2.21393e-05
2.75884e-05
2.73475e-05
2.68146e-05
2.74579e-05
2.81451e-05
2.10655e-05
2.49643e-05
2.45021e-05
2.23536e-05
2.73341e-05
2.84606e-05
2.87085e-05
2.80897e-05
2.90316e-05
2.06502e-05
2.03057e-05
2.10792e-05
2.78964e-05
1.94642e-05
2.79668e-05
2.65517e-05
2.06541e-05
2.37578e-05
2.7474e-05
2.78958e-05
2.29096e-05
2.37147e-05
2.45553e-05
2.65462e-05
2.85337e-05
2.50824e-05
2.10424e-05
2.6144e-05
2.87272e-05
2.74394e-05
2.87801e-05
2.85169e-05
2.96773e-05
2.86447e-05
2.7684e-05
2.13079e-05
1.93224e-05
2.58504e-05
2.2818e-05
2.82855e-05
2.01431e-05
2.69051e-05
2.49817e-05
2.90088e-05
2.18111e-05
2.70887e-05
2.7325e-05
2.62398e-05
2.45243e-05
2.06214e-05
2.78867e-05
2.30382e-05
2.83447e-05
2.53532e-05
2.87732e-05
2.87946e-05
2.60533e-05
1.93565e-05
2.02491e-05
2.52196e-05
2.65347e-05
2.29284e-05
2.92445e-05
2.04894e-05
2.83243e-05
2.72883e-05
2.33635e-05
2.70292e-05
2.77083e-05
2.81233e-05
2.86981e-05
2.81329e-05
2.62002e-05
2.62913e-05
1.92753e-05
2.32609e-05
2.89025e-05
2.13104e-05
2.71528e-05
2.51764e-05
2.16261e-05
2.54814e-05
2.70422e-05
2.54479e-05
2.71006e-05
2.76854e-05
2.07568e-05
2.52519e-05
2.59391e-05
2.07968e-05
2.32818e-05
2.56373e-05
2.54847e-05
2.71748e-05
2.06641e-05
2.03311e-05
2.55319e-05
2.42587e-05
2.92404e-05
2.91949e-05
2.87155e-05
2.46671e-05
2.50732e-05
2.64583e-05
2.45191e-05
2.71648e-05
2.05888e-05
2.59742e-05
2.49543e-05
2.87684e-05
2.73088e-05
2.48239e-05
2.59559e-05
2.8339e-05
2.03136e-05
2.62727e-05
2.87799e-05
2.47049e-05
1.70708e-05
2.53164e-05
2.0827e-05
2.6054e-05
1.87735e-05
2.78694e-05
2.93688e-05
2.80956e-05
2.61765e-05
2.05632e-05
2.05472e-05
2.78427e-05
2.8145e-05
2.78816e-05
2.62375e-05
2.47904e-05
2.75124e-05
2.82683e-05
2.76951e-05
1.9176e-05
2.41062e-05
2.75696e-05
2.70145e-05
2.37771e-05
2.64349e-05
1.92619e-05
2.83784e-05
2.80878e-05
2.5801e-05
2.64527e-05
2.68717e-05
2.55771e-05
2.89909e-05
2.72775e-05
2.12086e-05
2.52532e-05
2.7673e-05
2.51142e-05
2.53937e-05
2.67824e-05
1.87945e-05
2.1366e-05
2.84334e-05
2.85878e-05
2.81153e-05
2.88269e-05
2.66369e-05
2.81867e-05
2.61063e-05
2.62118e-05
2.70788e-05
2.82207e-05
2.32273e-05
2.49179e-05
2.4486e-05
2.57615e-05
2.7863e-05
1.84046e-05
2.6064e-05
1.95809e-05
2.81353e-05
1.96358e-05
1.93476e-05
2.55017e-05
1.88659e-05
2.55565e-05
2.63541e-05
2.80573e-05
2.8426e-05
2.34601e-05
2.32134e-05
2.89715e-05
2.31171e-05
2.09607e-05
2.49888e-05
2.23716e-05
2.85892e-05
2.69516e-05
2.60872e-05
2.05969e-05
2.73207e-05
2.74504e-05
2.85254e-05
1.98855e-05
2.25644e-05
2.62713e-05
2.65785e-05
2.91519e-05
2.13784e-05
2.05106e-05
2.69111e-05
2.56882e-05
2.87931e-05
2.62943e-05
1.85677e-05
2.66919e-05
2.75956e-05
2.01395e-05
1.87869e-05
2.83132e-05
2.1626e-05
2.163e-05
2.83601e-05
2.8551e-05
2.80361e-05
2.9417e-05
2.59952e-05
2.41415e-05
2.84368e-05
2.25531e-05
2.85554e-05
2.33009e-05
2.62952e-05
2.78458e-05
2.54485e-05
2.00093e-05
2.80703e-05
2.82212e-05
2.40728e-05
2.55344e-05
2.57247e-05
2.2561e-05
2.42479e-05
2.60503e-05
2.55176e-05
2.80014e-05
2.39113e-05
2.70203e-05
2.01125e-05
2.75199e-05
2.88286e-05
1.90345e-05
2.69973e-05
2.63504e-05
1.77539e-05
2.00129e-05
2.6225e-05
2.58108e-05
2.78436e-05
2.40653e-05
2.11128e-05
2.77204e-05
2.83849e-05
2.78135e-05
2.67837e-05
2.88469e-05
2.02279e-05
2.84102e-05
2.57967e-05
2.08433e-05
2.01833e-05
1.67661e-05
2.10734e-05
2.69044e-05
2.43053e-05
2.66205e-05
2.60595e-05
2.2249e-05
2.31425e-05
1.8971e-05
1.87309e-05
2.87521e-05
2.85859e-05
2.14668e-05
2.82385e-05
2.79866e-05
2.0886e-05
2.54309e-05
2.55916e-05
2.22674e-05
2.40977e-05
2.87394e-05
2.22131e-05
1.85986e-05
2.86368e-05
2.81854e-05
2.31614e-05
2.8364e-05
2.32701e-05
2.19066e-05
2.09143e-05
2.50593e-05
1.98461e-05
2.07339e-05
2.64659e-05
2.71036e-05
2.49404e-05
2.73884e-05
2.84633e-05
2.53527e-05
2.75834e-05
1.41445e-05
2.51301e-05
2.04799e-05
2.58515e-05
2.76296e-05
2.55856e-05
2.30385e-05
2.55327e-05
2.14017e-05
2.70259e-05
2.54816e-05
2.32745e-05
2.0308e-05
1.84501e-05
1.8039e-05
2.40776e-05
2.05032e-05
2.48915e-05
2.09257e-05
2.41365e-05
2.82105e-05
2.61411e-05
2.42291e-05
2.61597e-05
2.69873e-05
2.54059e-05
2.76162e-05
1.90819e-05
2.60306e-05
2.83969e-05
2.87487e-05
2.49563e-05
2.95146e-05
2.21823e-05
2.65617e-05
2.53118e-05
1.97654e-05
2.76088e-05
2.86437e-05
2.70316e-05
2.72397e-05
2.74359e-05
2.61617e-05
1.80812e-05
1.90264e-05
2.5051e-05
2.89766e-05
2.55288e-05
2.83267e-05
2.34432e-05
2.43799e-05
2.13694e-05
1.98589e-05
2.00173e-05
1.93601e-05
2.69908e-05
2.64727e-05
2.82932e-05
2.46631e-05
2.38188e-05
2.92563e-05
2.01922e-05
2.60547e-05
2.84853e-05
2.78014e-05
2.3855e-05
2.51141e-05
2.7604e-05
2.79084e-05
2.79232e-05
2.14866e-05
2.61791e-05
2.78291e-05
2.64987e-05
2.58431e-05
2.82736e-05
2.69701e-05
2.854e-05
2.69256e-05
2.26893e-05
2.67789e-05
2.77963e-05
2.69749e-05
2.54117e-05
2.02251e-05
2.84128e-05
2.81398e-05
2.76945e-05
2.82142e-05
1.91887e-05
1.73103e-05
2.50741e-05
2.72397e-05
2.36621e-05
2.70708e-05
2.78191e-05
2.81478e-05
2.8174e-05
2.36769e-05
2.72612e-05
2.56062e-05
2.76851e-05
2.05042e-05
2.04796e-05
2.48116e-05
2.81989e-05
2.127e-05
2.7769e-05
2.05448e-05
2.45658e-05
2.57467e-05
2.85912e-05
2.48913e-05
2.86003e-05
2.82342e-05
2.72407e-05
2.62048e-05
2.72512e-05
2.5807e-05
2.35257e-05
1.83255e-05
2.91319e-05
1.65519e-05
1.92184e-05
2.16133e-05
1.90182e-05
1.91537e-05
2.47525e-05
2.63114e-05
2.06887e-05
2.33492e-05
1.73781e-05
2.10478e-05
2.39767e-05
2.82625e-05
1.9459e-05
1.96202e-05
2.76115e-05
1.94973e-05
2.45083e-05
2.65854e-05
2.66106e-05
2.52263e-05
2.04467e-05
1.88734e-05
2.33413e-05
2.89927e-05
2.19082e-05
1.95998e-05
2.6218e-05
2.30514e-05
2.61928e-05
2.57393e-05
2.06673e-05
2.76269e-05
1.85919e-05
1.95138e-05
2.40249e-05
2.77259e-05
2.35215e-05
2.4258e-05
2.44785e-05
2.62507e-05
1.81789e-05
2.15678e-05
2.48317e-05
2.82741e-05
2.74326e-05
1.96446e-05
1.74451e-05
2.41029e-05
2.92235e-05
2.55308e-05
2.57344e-05
2.29228e-05
2.55248e-05
2.59901e-05
2.03662e-05
2.85678e-05
2.31076e-05
1.99829e-05
1.76843e-05
2.74622e-05
2.57692e-05
2.84699e-05
2.60068e-05
2.79936e-05
2.03674e-05
2.42096e-05
1.84726e-05
1.71181e-05
2.70779e-05
2.08907e-05
2.44262e-05
2.6008e-05
2.62785e-05
1.98142e-05
2.85094e-05
2.77569e-05
2.8916e-05
2.65154e-05
1.62131e-05
2.55874e-05
1.85486e-05
2.81123e-05
2.03845e-05
2.82351e-05
1.7536e-05
2.67167e-05
2.62839e-05
2.28192e-05
2.3414e-05
1.82979e-05
2.26513e-05
2.5716e-05
2.72057e-05
2.68388e-05
2.85096e-05
2.73872e-05
2.07225e-05
2.86567e-05
2.44072e-05
2.62731e-05
2.68966e-05
2.8052e-05
2.74304e-05
2.57036e-05
2.84923e-05
2.46002e-05
2.33088e-05
2.31046e-05
2.64288e-05
2.74826e-05
2.28335e-05
2.08597e-05
2.79111e-05
2.61872e-05
2.54175e-05
2.86425e-05
2.65093e-05
2.62371e-05
2.6307e-05
2.77151e-05
2.75432e-05
2.58124e-05
2.49361e-05
2.78577e-05
2.70409e-05
2.21316e-05
2.58289e-05
2.22829e-05
2.83468e-05
2.6434e-05
2.86133e-05
2.02955e-05
2.01456e-05
2.59308e-05
2.72925e-05
2.6882e-05
2.82428e-05
2.78346e-05
2.53519e-05
2.71254e-05
2.09852e-05
2.52209e-05
2.55884e-05
2.8348e-05
2.78033e-05
2.85059e-05
2.53917e-05
2.87385e-05
2.19008e-05
2.826e-05
2.2543e-05
2.52107e-05
2.38733e-05
2.61471e-05
2.5441e-05
2.73283e-05
1.94901e-05
2.80701e-05
2.73482e-05
2.4602e-05
2.03202e-05
2.81127e-05
2.68543e-05
2.76283e-05
2.53651e-05
2.57871e-05
2.74529e-05
1.99516e-05
2.84023e-05
2.48126e-05
2.59185e-05
2.20194e-05
2.2846e-05
2.25079e-05
1.94136e-05
2.36043e-05
2.91828e-05
2.59446e-05
1.83727e-05
2.53143e-05
1.96131e-05
2.60511e-05
2.64865e-05
1.83996e-05
1.93772e-05
2.28027e-05
2.58137e-05
2.7401e-05
2.36253e-05
2.75111e-05
2.4882e-05
2.27107e-05
2.32407e-05
2.84659e-05
2.78764e-05
2.79848e-05
2.74503e-05
2.66338e-05
2.01594e-05
2.11703e-05
2.87702e-05
2.45994e-05
2.58674e-05
2.7199e-05
2.8737e-05
2.61162e-05
2.68197e-05
1.87723e-05
2.75319e-05
2.81718e-05
2.34121e-05
2.82479e-05
2.78262e-05
2.63283e-05
2.39528e-05
2.69211e-05
2.38505e-05
1.80522e-05
2.61706e-05
2.11676e-05
1.95105e-05
2.57955e-05
2.5677e-05
2.68021e-05
2.70218e-05
2.63429e-05
2.86768e-05
1.70862e-05
2.33916e-05
2.81983e-05
2.82221e-05
1.84264e-05
2.61029e-05
2.13663e-05
2.362e-05
2.86614e-05
2.25067e-05
2.66412e-05
2.88399e-05
2.71435e-05
1.85103e-05
2.72469e-05
2.0368e-05
2.83067e-05
2.72689e-05
2.69744e-05
2.8637e-05
2.64456e-05
2.8114e-05
1.99431e-05
2.76104e-05
2.78014e-05
2.12929e-05
2.69475e-05
2.56581e-05
2.35914e-05
2.76166e-05
2.40439e-05
2.80405e-05
2.85523e-05
2.89838e-05
2.54762e-05
2.7513e-05
2.57921e-05
2.72101e-05
2.22638e-05
2.35556e-05
1.9698e-05
1.91221e-05
2.63296e-05
2.70932e-05
2.57126e-05
2.85728e-05
2.47563e-05
2.86681e-05
1.88613e-05
2.86453e-05
2.88785e-05
2.7023e-05
2.88482e-05
2.16608e-05
1.84169e-05
2.52095e-05
1.97014e-05
2.84462e-05
2.5804e-05
1.86367e-05
2.44305e-05
2.90353e-05
2.61209e-05
1.9717e-05
2.20529e-05
1.85761e-05
2.91791e-05
1.94493e-05
2.7648e-05
2.36217e-05
2.05772e-05
2.79584e-05
2.81494e-05
2.82104e-05
2.73881e-05
1.95711e-05
2.62158e-05
2.8124e-05
2.11587e-05
2.84321e-05
2.55973e-05
2.85968e-05
1.81544e-05
2.75196e-05
2.33123e-05
2.62902e-05
2.31386e-05
2.51733e-05
2.3861e-05
2.28046e-05
2.42501e-05
2.45507e-05
2.68919e-05
2.51862e-05
2.88419e-05
2.10309e-05
2.54976e-05
2.5512e-05
2.73753e-05
2.80731e-05
2.0202e-05
2.80995e-05
2.0792e-05
2.56512e-05
2.81559e-05
2.77789e-05
2.4203e-05
2.65644e-05
2.67314e-05
2.33473e-05
2.57832e-05
2.4542e-05
1.95919e-05
1.97985e-05
2.6725e-05
2.76125e-05
2.53034e-05
2.39895e-05
2.77073e-05
2.05074e-05
2.6421e-05
2.08577e-05
2.72096e-05
2.86756e-05
2.58404e-05
2.00641e-05
2.76189e-05
1.91423e-05
2.64995e-05
2.81738e-05
1.84989e-05
2.91115e-05
2.09729e-05
2.3551e-05
2.40732e-05
2.01832e-05
2.39866e-05
2.41979e-05
1.84394e-05
2.75872e-05
2.79691e-05
1.67808e-05
2.34292e-05
2.70749e-05
2.52774e-05
2.65269e-05
2.88347e-05
2.75552e-05
2.47986e-05
2.23117e-05
1.8723e-05
1.80406e-05
2.15096e-05
2.8713e-05
2.78298e-05
2.69565e-05
2.73508e-05
2.03124e-05
1.96354e-05
2.52996e-05
2.73991e-05
1.86303e-05
2.72421e-05
2.59832e-05
2.43439e-05
2.70971e-05
2.39214e-05
2.72665e-05
2.30169e-05
2.48981e-05
2.81314e-05
1.64061e-05
2.66908e-05
2.74643e-05
2.79552e-05
2.66745e-05
2.79609e-05
2.57302e-05
2.01176e-05
2.87064e-05
2.9585e-05
2.61349e-05
2.54993e-05
2.36963e-05
2.5425e-05
2.67291e-05
2.76755e-05
2.57817e-05
2.49973e-05
2.47828e-05
1.88164e-05
2.37211e-05
2.86537e-05
2.65819e-05
2.97854e-05
2.56013e-05
2.40141e-05
2.83157e-05
2.00465e-05
2.71817e-05
1.99527e-05
2.81566e-05
2.67099e-05
2.3944e-05
2.91441e-05
2.35022e-05
2.52098e-05
2.82775e-05
2.44123e-05
2.8307e-05
2.71141e-05
2.71592e-05
1.95679e-05
2.57337e-05
2.55443e-05
2.14601e-05
2.78551e-05
2.4601e-05
2.45138e-05
2.84049e-05
2.03811e-05
2.84807e-05
2.55601e-05
2.80131e-05
2.28321e-05
2.60184e-05
1.96548e-05
2.03451e-05
2.86913e-05
2.05091e-05
2.54159e-05
2.73724e-05
1.91368e-05
2.4758e-05
2.76936e-05
2.33276e-05
2.06656e-05
2.24541e-05
2.44984e-05
2.40492e-05
2.72144e-05
2.43004e-05
2.75913e-05
2.58398e-05
2.77424e-05
1.7952e-05
2.14999e-05
2.8473e-05
2.49791e-05
1.88685e-05
2.05294e-05
2.52914e-05
2.06796e-05
1.99369e-05
2.56315e-05
2.52269e-05
2.93152e-05
2.43522e-05
2.80138e-05
2.77352e-05
2.70965e-05
2.80863e-05
2.81206e-05
2.41546e-05
2.35425e-05
2.79306e-05
2.49069e-05
2.42869e-05
2.78526e-05
2.55555e-05
1.87983e-05
1.97285e-05
2.45101e-05
2.13552e-05
2.66414e-05
2.75981e-05
2.49907e-05
2.79787e-05
2.78507e-05
2.72314e-05
2.95559e-05
2.43162e-05
1.98592e-05
2.43742e-05
2.43155e-05
2.74784e-05
2.47646e-05
2.67385e-05
2.80354e-05
2.45064e-05
2.33484e-05
2.59466e-05
2.85125e-05
2.70217e-05
2.94428e-05
2.68542e-05
2.39114e-05
2.44583e-05
2.17537e-05
2.3065e-05
2.86074e-05
2.19759e-05
2.89063e-05
2.42451e-05
2.78941e-05
1.95683e-05
2.69365e-05
2.58614e-05
2.75195e-05
2.52619e-05
2.67349e-05
2.545e-05
2.79973e-05
1.92015e-05
2.12912e-05
2.57594e-05
2.39059e-05
2.60361e-05
2.55742e-05
2.58853e-05
2.81222e-05
2.55183e-05
1.84437e-05
2.24385e-05
1.98367e-05
2.59537e-05
2.53413e-05
2.03341e-05
2.94144e-05
2.57419e-05
2.4976e-05
2.75327e-05
2.17321e-05
2.0509e-05
2.89629e-05
2.05547e-05
1.93448e-05
2.44974e-05
2.40133e-05
2.04414e-05
2.27743e-05
2.85361e-05
2.81172e-05
2.39132e-05
2.60537e-05
2.76375e-05
2.54432e-05
2.71837e-05
1.88926e-05
2.82349e-05
1.3436e-05
2.76199e-05
2.02881e-05
1.94584e-05
2.7625e-05
1.95658e-05
2.53198e-05
2.61938e-05
2.77389e-05
2.3564e-05
2.73271e-05
2.46449e-05
2.54944e-05
2.42999e-05
2.71637e-05
2.61623e-05
2.80418e-05
2.59613e-05
2.04613e-05
2.71877e-05
2.56984e-05
2.53911e-05
2.46749e-05
2.15751e-05
2.34454e-05
1.91639e-05
1.98673e-05
2.57626e-05
2.46049e-05
2.10675e-05
2.35747e-05
2.73964e-05
2.86244e-05
2.81477e-05
1.37572e-05
1.86323e-05
2.81578e-05
1.93108e-05
2.67639e-05
1.88015e-05
2.82124e-05
2.72934e-05
2.76855e-05
2.02002e-05
2.48201e-05
2.84396e-05
2.8279e-05
2.61443e-05
2.83281e-05
2.54015e-05
2.58447e-05
2.54058e-05
1.98419e-05
2.55734e-05
2.28781e-05
2.55145e-05
2.51471e-05
2.11182e-05
2.50657e-05
2.83441e-05
2.21364e-05
2.27366e-05
1.97977e-05
2.7869e-05
2.74504e-05
1.81553e-05
2.51397e-05
2.56767e-05
2.63562e-05
1.99595e-05
2.57194e-05
2.53216e-05
2.91223e-05
1.99231e-05
2.50308e-05
2.51404e-05
1.83778e-05
2.80767e-05
2.08734e-05
2.06231e-05
2.59376e-05
2.86732e-05
1.91125e-05
2.77844e-05
2.66155e-05
2.56616e-05
1.85462e-05
2.8368e-05
2.86576e-05
1.87714e-05
2.59148e-05
1.80203e-05
2.10738e-05
2.83205e-05
2.3914e-05
2.58755e-05
2.72483e-05
2.89894e-05
2.47075e-05
2.35664e-05
2.49222e-05
2.46027e-05
2.57058e-05
2.35476e-05
2.82847e-05
2.04004e-05
2.41129e-05
2.54773e-05
2.40447e-05
2.76653e-05
2.50884e-05
2.69823e-05
2.68887e-05
2.5965e-05
2.83871e-05
2.69388e-05
2.40823e-05
2.24265e-05
2.72889e-05
2.48656e-05
2.41749e-05
2.66839e-05
2.86811e-05
2.71033e-05
2.71886e-05
2.38575e-05
2.70335e-05
2.25313e-05
1.96551e-05
2.53243e-05
2.61451e-05
1.92003e-05
2.65058e-05
2.51004e-05
1.69119e-05
1.97958e-05
2.6969e-05
1.98635e-05
2.4479e-05
2.72302e-05
2.62204e-05
1.95538e-05
2.59443e-05
2.90935e-05
2.05577e-05
1.97932e-05
2.05173e-05
2.80835e-05
2.55983e-05
2.48745e-05
2.77116e-05
1.96735e-05
2.69531e-05
2.59658e-05
2.86259e-05
2.83887e-05
1.45542e-05
2.58816e-05
2.64558e-05
2.67683e-05
2.55019e-05
2.54063e-05
2.19159e-05
2.5881e-05
2.88246e-05
2.27898e-05
1.84403e-05
2.36965e-05
2.7971e-05
2.6896e-05
1.90058e-05
2.44858e-05
2.7701e-05
2.83669e-05
2.5347e-05
2.49653e-05
1.79553e-05
1.99919e-05
1.99039e-05
2.56485e-05
2.4658e-05
2.60982e-05
2.90712e-05
2.78881e-05
2.21457e-05
2.80028e-05
2.80392e-05
2.7213e-05
2.34362e-05
2.8075e-05
2.47109e-05
2.09775e-05
2.33412e-05
2.5149e-05
2.64085e-05
2.33419e-05
2.64916e-05
2.3356e-05
2.78921e-05
2.05769e-05
1.82418e-05
2.44873e-05
2.83103e-05
2.69178e-05
2.31495e-05
2.39158e-05
2.71763e-05
2.8092e-05
2.34143e-05
2.43338e-05
2.77642e-05
2.87148e-05
2.70856e-05
2.86434e-05
2.73256e-05
2.75813e-05
1.86554e-05
2.44142e-05
1.97924e-05
2.66902e-05
2.79586e-05
2.33096e-05
1.95856e-05
2.83081e-05
1.95516e-05
2.26139e-05
2.06686e-05
2.4935e-05
1.91666e-05
2.66246e-05
2.54705e-05
2.5101e-05
2.51228e-05
2.15249e-05
2.82899e-05
2.02729e-05
2.68019e-05
2.53462e-05
2.4793e-05
1.94737e-05
2.74803e-05
2.65459e-05
2.11031e-05
2.18557e-05
2.45054e-05
2.40367e-05
2.4746e-05
1.90467e-05
2.61184e-05
2.37791e-05
2.57738e-05
2.25529e-05
2.30717e-05
2.28479e-05
1.96111e-05
2.72316e-05
2.53119e-05
7.17471e-06
2.06727e-05
2.61187e-05
2.80179e-05
2.74352e-05
2.14002e-05
2.15447e-05
2.82389e-05
2.01362e-05
2.77341e-05
2.85504e-05
2.55418e-05
2.06008e-05
2.82538e-05
1.94084e-05
1.81242e-05
1.79552e-05
2.66456e-05
2.50769e-05
2.28582e-05
2.86595e-05
2.70713e-05
2.5926e-05
2.08042e-05
1.73404e-05
2.89016e-05
2.57662e-05
2.89634e-05
2.82206e-05
1.95385e-05
2.49061e-05
2.38733e-05
2.47341e-05
2.5256e-05
2.33466e-05
2.43201e-05
2.95946e-05
2.56995e-05
2.39346e-05
2.04237e-05
2.61159e-05
2.50552e-05
2.65161e-05
2.38242e-05
1.93039e-05
2.02984e-05
2.6117e-05
2.68756e-05