/*--------------------------------*- C++ -*----------------------------------*\
| =========                 |                                                 |
| \\      /  F ield         | OpenFOAM: The Open Source CFD Toolbox           |
|  \\    /   O peration     | Version:  2212                                  |
|   \\  /    A nd           | Website:  www.openfoam.com                      |
|    \\/     M anipulation  |                                                 |
\*---------------------------------------------------------------------------*/
FoamFile
{
    version     2.0;
    format      ascii;
    arch        "LSB;label=32;scalar=64";
    class       volScalarField;
    location    "0.064";
    object      p;
}
// * * * * * * * * * * * * * * * * * * * * * * * * * * * * * * * * * * * * * //

dimensions      [0 2 -2 0 0 0 0];

internalField   nonuniform List<scalar> 
31639
(
0.0107127
0.00743678
0.0122408
0.00543446
0.00753063
0.0104782
0.011766
0.0111889
0.00794406
0.00678212
0.0116353
0.00757295
0.00787475
0.0102452
0.00891801
0.0125217
0.0145127
0.0148296
0.00242793
0.0113973
0.008312
0.00641044
0.00871509
0.00538421
0.00935779
0.0110725
0.0107658
0.0340643
0.0112613
0.0112342
0.0060208
0.0160321
0.00801427
0.00432852
0.01957
0.0111703
0.00642026
0.0116933
0.0116745
0.00954076
0.00761401
0.0109281
0.00853321
0.0118412
0.0122114
0.0050816
0.00765753
0.00602902
0.0131441
0.00549559
0.00506744
0.00404843
0.0199954
0.0121292
0.00396705
0.0148065
0.00649995
0.0108581
0.00744929
0.00519262
0.0056904
0.0109194
0.00907173
0.011173
0.0197194
0.00321229
0.00196574
0.0062427
0.00776271
0.00483443
0.00686184
0.0146363
0.0067091
0.00289724
0.0200465
0.0158817
0.00688953
0.00637463
0.00738581
0.00702854
0.0106764
0.0102628
0.0101019
0.00560506
0.00998737
0.00923776
0.00853121
0.00603508
0.00199415
0.00801828
0.00456728
0.0145701
0.00531614
0.00709531
0.00340146
0.0107823
0.00578422
0.00409201
0.00778589
0.0103278
0.0182422
0.0184494
0.00939976
0.00714459
0.00395925
0.00493101
0.0105312
0.00520447
0.00606865
0.00944901
0.0117215
0.0101815
0.0109132
0.00642087
0.00284652
0.0113945
0.0197668
0.0121033
0.0173571
0.00572577
0.0161787
0.0049444
0.00257133
0.00545731
0.0104301
0.0102734
0.00735985
0.00554991
0.00677287
0.00820358
0.0193845
0.000850828
0.0123933
0.00290804
0.00349367
0.00620722
0.00649454
0.0070922
0.00510253
0.00568766
0.00562972
0.0083958
0.00916064
0.00524284
0.00762947
0.00997509
0.0185309
0.0065051
0.00963473
0.0198824
0.00582054
0.0133355
0.0041569
0.00375251
0.00486942
0.00369957
0.00273811
0.00682157
0.0129915
0.00617632
0.00338661
0.0146968
0.00662211
0.0108968
0.0155048
0.0155584
0.0121904
0.0135919
0.00428089
0.00298917
0.014159
0.0102404
0.0138651
0.00796577
0.00990544
0.00663665
0.00898076
0.0161579
0.00623089
0.00940661
0.00777689
0.0128423
0.0109662
0.0113973
0.011441
0.0112053
0.0133493
0.00942444
0.0102488
0.0127245
0.0129426
0.0067351
0.0131748
0.00399043
0.00456792
0.00473361
0.00456191
0.00725267
0.00465896
0.0115666
0.00968346
0.0147064
0.012884
0.0137363
0.00664259
0.00550327
0.0022956
0.00388669
0.0164292
0.00445721
0.00447025
0.00951292
0.0184619
0.00989664
0.0119153
0.00999115
0.00998266
0.00996531
0.0140004
0.00747064
0.00772858
0.00953695
0.0100906
0.0139685
0.01218
0.00692754
0.0125383
0.0123096
0.00870555
0.015967
0.00419475
0.0115707
0.0146922
0.0127348
0.0130179
0.00218773
0.0020066
0.0132767
0.0109676
0.00395839
0.00560019
0.0119658
0.0139069
0.0131097
0.00578953
0.014946
0.00441516
0.0154633
0.0126851
0.00222189
0.00063982
0.00507236
0.0130049
0.0149301
0.00724272
0.00773699
0.0108772
0.00331485
0.0107281
0.0123759
0.00518513
0.00415926
0.00726281
0.0102506
0.00731202
0.00993937
0.00163207
0.018817
0.011864
0.0105725
0.0241558
0.00496456
0.0107822
0.0133569
0.00641342
0.0125676
0.00458676
0.0140287
0.00624832
0.00509238
0.0157129
0.0161254
0.0160332
0.0213098
0.0115082
0.0115784
0.0140344
0.0133833
0.0025335
0.0130182
0.0144593
0.00115502
0.00415771
0.00414511
0.0121941
0.00358843
0.0144996
0.00194074
0.00570284
0.00662939
0.00614935
0.0140278
0.00443233
0.00396426
0.00887329
0.00357074
0.0101481
0.00233727
0.00855029
0.0140726
0.00592803
0.0235365
0.0188019
0.00835042
0.00765499
0.0107913
0.00206906
0.0162547
0.012595
0.0124061
0.011908
0.00496641
0.0181562
0.00364758
0.00980082
0.0132397
0.0119093
0.013398
0.00431876
0.00499021
0.00517495
0.00542103
0.014348
0.0040675
0.0147586
0.0195929
0.0200456
0.00620926
0.0135638
0.015419
0.00346266
0.00168934
0.0149485
0.00311806
0.00446773
0.0138838
0.00373862
0.012272
0.0121373
0.018229
0.00687991
0.0140195
0.00681872
0.012934
0.00393711
0.00513524
0.00442084
0.00892172
0.0090424
0.0135191
0.0147504
0.0090432
0.0234438
0.00250416
0.00626651
0.00563958
0.00301883
0.0089874
0.00961968
0.0134026
0.00872012
0.0164082
0.0102325
0.00482299
0.00324839
0.00539777
0.0188616
0.0158109
0.0131223
0.0165565
0.0124619
0.0040583
0.00611861
0.00403327
0.00373672
0.00354798
0.00436757
0.00752808
0.000313712
0.0149666
0.00219105
0.0166524
0.004424
0.0139074
0.00383751
0.0142993
0.0151878
0.0114141
0.00545247
0.0220941
0.0148454
0.0117152
0.0111513
0.00369392
0.0131912
0.00198716
0.00578548
0.00584388
0.00608099
0.0114369
0.00499466
0.00589889
0.0131287
0.0242949
0.0119968
0.0131749
0.00966259
0.0103031
0.0092232
0.00766472
0.00739471
0.0181943
0.00881023
0.000767423
0.0130953
0.0239203
0.00846417
0.0177693
0.0102413
0.0122841
0.00534478
0.00444021
0.0139871
0.00504159
0.0111248
0.0111434
0.0135744
0.00330599
0.00407373
0.0145645
0.00615384
0.00214767
0.00259963
0.0100199
0.00346651
0.00624287
0.0065869
0.0151685
0.014784
0.016257
0.0151655
0.0132345
0.00643448
0.0135843
0.00610758
0.0144505
0.0162509
0.00501352
0.0132597
0.00555477
0.0109057
0.0155457
0.0103096
0.00279423
0.0128032
0.0358704
0.00275414
0.00827026
0.00563382
0.0124548
0.00161256
0.0042699
0.00511264
0.00425532
0.0135317
0.00108685
0.00855265
0.0174651
0.00772604
0.00894871
0.00516077
0.0191343
0.00331823
0.00704702
0.0182121
0.0234032
0.00847459
0.0121507
0.00987671
0.00660296
0.00509085
0.00386053
0.0160784
0.00181292
0.0105133
0.0101249
0.00959979
0.00288077
0.00436703
0.015994
0.0173335
0.00215222
0.00252474
0.00284552
0.00165966
0.0204419
0.00584668
0.0024179
0.0163353
0.0182342
0.0162504
0.00340024
0.0146604
0.0136147
0.0156662
0.00174263
0.0182106
0.018241
-0.000366487
0.0158371
0.0153103
0.0159196
0.010104
0.0169795
0.000690785
0.00275166
0.0155091
0.00226012
0.0027605
0.0046928
0.011463
0.00775918
0.0142702
0.000945065
0.00502776
0.00815711
0.0170819
0.00109476
0.0136079
0.00208098
0.0236983
0.0239349
0.00562507
0.0343409
0.00580081
0.00576083
0.00938683
0.00969477
0.00672792
0.00917651
0.0246159
0.00672603
0.0132793
0.000526885
0.00601615
0.00934801
0.00524092
0.0152094
0.00117518
0.00362242
0.00915687
0.00325317
0.00825405
0.00840906
0.00454916
0.0192095
0.00333861
0.00231134
0.000308203
0.0106703
0.01753
0.00261685
0.000508674
0.00323467
0.00355666
0.00279789
0.0162066
-7.23135e-05
0.00105707
0.000713801
0.0146133
0.00180932
0.0152642
0.015719
0.0163354
0.00475755
2.97336e-05
0.000148183
0.00247622
0.00068986
0.0100089
0.00085686
0.0100098
0.0159093
0.00133224
0.00580453
0.00779361
0.0191242
0.0176469
0.013843
0.00657356
0.00317101
0.0183081
0.0157704
0.0014779
0.00162381
0.00679051
0.0115498
0.00471985
0.000958336
6.13888e-05
0.0007842
0.0152002
0.0127809
0.00582917
0.0352832
0.0125085
0.00980606
0.00673418
0.0105876
0.013556
0.0134206
0.00938921
0.00598583
0.00748471
0.00774664
0.0126996
0.00294297
0.00912268
0.00106267
0.00993343
0.0232289
0.0160246
0.0149619
0.0111238
0.0087308
0.0210728
0.00983367
0.0117978
0.00523134
0.0187365
0.0176493
0.0025569
0.00973537
0.0110081
0.000175738
0.0214895
0.00592784
0.000996468
0.00288101
0.00163558
0.0190995
0.0174347
0.0178142
0.0026897
8.39884e-05
0.0150592
0.0101277
0.016007
0.0163342
0.0164645
0.00106574
-4.68146e-05
0.0154973
0.0135945
0.0140753
0.0164456
0.000908731
0.00585053
0.0241402
0.00340225
0.00195099
0.0168741
0.00958378
0.00400191
0.0153808
0.0151362
0.0123815
0.00710554
0.00476337
0.0112138
0.00649315
0.000288624
0.000605532
0.00123968
0.00476028
0.00178576
0.0191051
0.00676591
0.000508227
0.000598617
0.0146572
0.00514858
0.000616874
0.0355666
0.00479683
0.00570521
0.00770711
0.00869546
0.0073476
0.009424
0.00887665
0.00597538
0.00686865
0.00989527
0.00633163
0.005904
0.00668916
0.00882799
0.0168421
0.00954694
0.00902266
0.0147797
0.0191222
0.0164129
0.00450262
0.00888667
0.00253688
0.0100311
0.0199775
0.000745791
0.00183399
0.00169431
0.00510249
0.00592494
0.0146815
0.0141156
0.00416683
0.00169453
0.0114588
0.0190388
0.000444568
0.0158088
0.00623629
0.0145069
0.0132525
0.01407
0.0180147
0.0166899
0.0216625
0.0153569
0.0128234
0.0159033
0.014403
0.014885
0.0053628
0.0187728
0.0052567
0.00137449
0.00349804
0.0146124
4.50728e-05
0.0120356
0.00284938
0.00395611
0.0121214
0.00724202
0.0181035
0.00335426
0.0126678
0.00409711
0.0208406
0.00600784
0.000454504
0.00085217
0.0169897
0.0113698
0.000769018
0.0018518
0.00104325
0.00358258
0.000491455
0.000228265
0.014312
0.0138995
0.000123362
0.0139111
0.0122858
0.0148833
0.0081355
0.00802812
0.00648842
0.0104441
0.0109758
0.00506778
0.000812729
0.00959061
0.0131209
0.00971203
0.0179365
0.0161343
0.00961453
0.0157378
0.00592261
0.0241639
0.00282663
0.0157707
0.00944133
4.82178e-05
0.0107447
0.00274885
0.00578051
0.0023612
0.00234035
0.0120392
0.0171458
0.00417772
0.0151023
0.000732477
0.000682764
0.000779156
0.0199105
0.0200986
0.0190933
0.0205488
0.0169019
0.0156048
0.00523821
0.00332168
0.00578342
0.00153013
0.0111741
0.00500686
0.0131683
0.00726928
0.0058205
0.00179616
-0.000125795
0.0042566
0.00226734
0.0178297
0.0077297
0.00416778
0.00401163
0.00741542
0.000686838
0.0125568
0.00405111
0.0156995
0.00299381
0.00201511
0.0102772
0.0102353
0.0159851
0.0190042
0.0165855
0.0126264
0.00707716
0.0076895
0.015079
8.1448e-05
0.000840507
0.0148095
0.0151455
-0.000134793
0.000296857
0.00210182
0.014922
0.00389025
0.00906905
0.0191948
0.0188156
0.00960065
0.0224864
0.00723445
0.00624421
0.00644348
0.00414597
0.00256954
0.0157933
0.00266129
0.00959482
0.0116289
0.017727
0.00558672
0.00647872
0.00613307
0.014322
0.0145119
0.0144801
0.0205872
0.00190885
0.0167243
0.016474
0.0168098
0.00910719
0.000317913
0.0198192
0.0203788
0.0187627
0.0110642
0.0117388
0.0127505
0.0119158
0.01427
0.0109443
0.000451189
0.0149025
0.00694915
0.0047462
0.0152068
0.00114498
0.000666265
0.00265434
0.00251648
0.0181865
0.00731447
0.00265592
0.00372011
0.00663087
0.0134777
0.00630203
0.00579225
0.0121549
0.0084797
0.000237246
0.0156555
0.00991086
0.0164749
0.00825774
0.00171295
0.0127247
0.0126731
0.000630077
0.00731126
0.00678571
0.000464634
0.000585044
0.0155091
0.0178127
0.00717367
0.00931604
0.00105582
0.016474
0.0205441
0.0172388
0.0119092
0.0055427
0.0162733
0.0122638
0.00641797
0.00899011
0.00497206
0.00507101
0.00799245
0.0152842
0.00273957
0.0100127
0.00628597
0.00567781
0.000171289
0.0170963
0.00668106
0.0176469
0.00484924
0.0144467
0.0166111
0.00829414
0.00829534
0.0174008
0.0140683
0.0158382
0.00612466
0.00708073
0.0139697
0.0133145
0.0105724
0.0112369
0.0163035
0.0166835
0.0219936
0.0128942
0.0145501
0.000898952
0.00056946
0.0149371
0.0136333
0.00700846
0.0162137
0.00230964
0.0113733
0.0127046
0.0159754
0.0019586
0.0163662
0.0148678
0.0176962
0.0168484
0.0176025
0.00828166
0.0151465
0.00671017
0.0116931
0.0112978
0.0107387
0.0183453
0.0169687
0.0164469
0.0138991
0.00752102
0.0097986
0.0108152
0.0166685
0.0107038
2.04996e-05
0.0173609
0.0191363
0.00902293
0.00758803
0.00318518
0.00222311
0.00634032
0.0168366
0.00525977
0.00562551
0.0208014
0.00843359
0.00310707
0.00430626
0.000345264
0.00806027
0.00911407
0.00829495
0.0155916
0.000525342
0.0180084
0.00161819
0.0174713
0.0169155
0.0206523
0.00793574
0.00819634
0.00694929
0.0130803
0.0116389
0.0135366
0.021008
0.0152845
0.0159691
0.0107327
0.013033
0.00770346
0.0136991
0.011895
0.00261139
0.00237969
0.00955681
0.000735537
0.00680073
0.0181707
0.0191412
0.00345555
0.0175677
0.0113922
0.018386
0.0101538
0.0103831
0.00137497
0.00076048
0.0134034
0.0121284
0.00583306
0.00767799
0.00725782
0.0112668
0.00777387
0.0152182
0.016284
0.0209234
0.0160823
0.0173352
0.0104999
0.00738313
0.00862996
0.000759605
0.00148742
0.00282613
0.00759613
0.0068633
0.0120551
0.00709594
0.0127013
0.0144039
0.0159585
0.00734307
0.0045508
0.02128
0.0111501
0.0191048
0.0189178
0.00837531
0.0192775
0.00193689
0.0162907
0.00486181
0.00912845
0.00361784
0.00708815
0.00797261
0.018267
0.0185894
0.000589326
0.0167051
0.0200135
0.022831
0.00740522
0.0140987
0.0161284
0.0163687
0.00659604
0.00711414
0.015239
0.0230053
0.0151593
0.00278893
0.0133728
0.0225216
0.0130525
0.0127476
0.0124457
0.00620727
0.0188685
0.0163289
0.0190463
0.00163404
0.0137427
0.00107399
0.0112512
0.0159615
0.00341636
0.016035
0.00501844
0.0152844
0.0207888
0.00897745
0.000426529
0.0101944
0.0108688
0.000624085
0.00673737
0.00680337
0.0107065
0.00786787
0.0216562
0.0175285
0.00689164
0.00679121
0.0169581
0.00954263
0.0162242
0.0210741
0.0164396
0.000527052
0.000532247
0.0173497
0.0150889
0.0105441
0.0117911
0.0134954
0.0111903
0.0116302
0.0190377
0.0166624
0.0200155
0.0150354
0.0131581
0.0018345
0.019236
0.00253939
0.00727336
0.0179918
0.0192666
0.0155621
0.00813195
0.00727372
0.000382377
0.0168357
0.010398
0.0178549
0.00980927
0.0189437
0.019993
0.0126376
0.0135005
0.00804321
0.00390895
0.0218737
0.010405
0.0133605
0.0104018
0.0095918
0.013941
0.0221096
0.0128023
0.0119615
0.0237145
0.00205503
0.0186936
0.0115356
0.0230023
0.0119213
0.00957852
0.0185539
0.0190159
0.00339039
0.00707403
0.00393454
0.0048712
0.0164411
0.00869758
0.00945845
0.000368243
0.00754777
0.027463
0.00776482
0.0081152
0.0112113
0.0115699
0.0109339
0.0172826
0.0178139
0.0128335
0.00687599
0.0175783
0.009858
0.0181932
0.0162492
0.0164205
0.018085
0.018446
0.0169441
0.00646893
0.000481296
0.0195075
0.00587416
0.020457
0.0227952
0.0213895
0.0077669
0.0195064
0.0130964
0.00204727
0.00167876
0.00283445
0.0174082
0.0180394
0.0179288
0.0166233
0.0200115
0.00818923
0.00671777
0.0182612
0.0202103
0.00961454
0.0179789
0.0192873
0.0127992
0.00739571
0.0219742
0.0196164
0.01687
0.0136835
0.017469
0.0143361
0.0187953
0.00154834
0.0144157
0.0169164
0.0192937
0.0137223
0.0183822
0.00918327
0.0231171
0.0143846
0.0018834
0.0174993
0.00418137
0.000103345
0.00395318
0.0137782
0.0117258
0.0136345
0.0175551
0.0190471
0.00716342
0.0150486
0.00856829
0.0116693
0.0110747
0.0108814
0.00670328
0.0178191
0.0119967
0.0124963
0.017746
0.0124408
0.00617292
0.00592476
0.0124931
0.0131406
0.0119453
0.0166404
0.0170546
0.000968794
0.0117905
0.0177606
0.0168824
0.0122194
0.0125077
0.0102843
0.0127961
0.0223019
0.00110718
0.00611466
0.0186422
0.00285715
0.00820464
0.00888385
0.00846024
0.0207245
0.0219274
0.00274117
0.0224816
0.0200397
0.0143637
0.0143076
0.0203078
0.0148446
0.0187895
0.0176242
0.00347477
0.00781545
0.0213562
0.000377755
0.000633309
0.0204665
0.0190811
0.00337494
0.0203054
0.0149061
0.0129804
0.00846691
0.0192205
0.018693
0.00678714
0.0177756
0.0164533
0.0144919
0.0129631
0.000758755
0.00134257
0.000997393
0.0149566
0.0171499
0.0110464
0.0194594
0.0220483
0.0106799
0.00947595
0.0066177
0.00396137
0.0236645
8.55633e-05
0.00270738
0.00847946
0.00100868
0.000214952
0.000388939
0.00908089
0.00663698
0.00078954
0.0293091
0.0186084
0.0139798
0.0217374
0.012136
0.0233596
0.00381431
0.00750854
0.00784758
0.0226004
0.022635
0.0122198
0.00638461
0.0127661
0.0115288
0.0150676
0.014008
0.0145629
0.0171107
0.00125957
0.0182614
0.0183187
0.0185255
0.0180413
0.0151327
0.0148957
0.0114814
0.0105811
0.0193636
0.0168262
0.00539542
0.00421373
0.0113866
0.0163477
0.0216743
0.00524742
0.0061172
0.00631394
0.0162594
0.0205353
0.0216979
0.0214732
0.00167633
0.00098731
0.0201997
0.00064006
0.0199279
0.020722
0.00417013
0.00581099
0.00261353
0.0193397
0.007345
0.0169708
0.0133166
0.0133645
0.020935
0.0213124
0.00956759
0.0233751
0.0231618
0.0157714
0.0144697
2.51581e-05
0.000552894
0.0160833
0.0145459
0.0175113
0.0229062
0.0350475
0.0232919
0.0183683
0.0233143
0.0185001
0.0022604
0.0169832
0.0196008
0.00263164
0.018523
0.00448979
0.000462578
0.0181528
0.000607561
0.0083898
0.00911978
0.00903244
0.0083021
0.000383073
0.00177233
0.00568936
0.022149
0.0207002
0.0149704
0.00886898
0.0112461
0.00709022
0.00888501
0.00660074
0.00863439
0.00847443
0.00761954
0.0158411
0.0135925
0.0181602
0.0134409
0.0182048
0.0012335
0.0178218
0.00088894
0.0235507
0.0183801
0.0120474
0.0151315
0.00731854
0.00962374
0.00335707
0.00243564
0.00589959
0.00395658
0.0108488
0.0178497
0.00833199
0.0139585
0.0127453
0.00497323
0.0125202
0.0220865
0.00129232
0.00283806
0.00117363
0.0145498
0.0207746
0.0167959
0.00543112
0.00422879
0.0205992
0.00260367
0.0205456
0.0193872
0.0355902
0.0206064
0.0203705
0.0232508
0.0218727
0.0209209
0.0163503
0.00418516
0.0169167
0.00401026
0.0173145
0.0179774
-2.83608e-05
0.0219342
0.0102471
0.00204501
0.017156
0.0200858
0.0168474
0.0194065
0.0169105
0.00857145
0.01048
0.0163261
0.018413
0.0201571
0.0216405
0.000637297
0.00283582
0.013781
0.0182912
0.0171344
0.0152122
0.0161191
0.00118074
0.0152179
0.00819461
0.00854844
0.00838187
0.00731321
0.00964398
0.011685
0.0004778
0.018628
0.0194539
0.0163968
0.00108525
0.0193113
0.0117294
0.0123342
0.0139026
0.0145563
0.0169824
0.0132445
0.0298484
0.00337796
0.0121108
0.0188645
0.0145233
0.0145077
0.00280557
0.0131617
0.0207353
0.0230035
0.0170283
0.00780121
0.0200767
0.00712815
0.0134215
0.0213842
0.0225249
0.0133766
0.022783
0.0226019
0.0224265
0.0208858
0.014163
0.0217473
0.0206256
0.0180789
0.008062
0.0162365
0.00639819
0.0017459
0.0166185
0.00527306
0.0212349
0.0216412
0.0210272
0.0195689
0.0123982
0.0197224
0.0224125
0.00691416
0.00488847
0.00962945
0.023875
0.0162358
0.0156708
0.00399293
0.00347109
0.0188012
0.00119165
0.011398
0.0233857
0.0201095
0.0170516
0.0176795
0.0105972
0.0093795
0.00243623
0.0182085
0.000259736
0.00663873
0.0204234
0.000843203
0.00252459
0.00397399
0.00515718
0.00302585
0.0143268
0.016228
0.0188274
0.0123347
0.00758256
0.0272116
0.00754928
0.00870144
0.00931776
0.0196615
0.01771
0.0223102
0.0200549
0.00624922
0.0111783
0.0108252
0.0108285
0.0126277
0.0153873
0.015421
0.0179488
0.0170387
0.0160376
0.0117561
0.00871219
0.00882632
0.00212082
0.0168823
0.0201214
0.00719541
0.00296197
0.030099
0.0113524
0.0205293
0.0138775
0.0208876
0.0250079
0.0162073
0.00725482
0.00615394
0.0133149
0.0220165
0.0210731
0.00547883
0.023543
0.000177776
-0.000242952
0.0203942
0.0226664
0.0113041
0.00936272
0.019002
0.00481973
0.0212002
0.0229636
0.00924678
0.0187656
0.0194712
0.0289288
0.00524533
0.022016
0.0128543
0.0134305
0.018475
0.0220772
0.00241277
0.0172422
0.0235622
0.0229243
0.0245305
0.00523437
0.0192265
0.0187714
0.00270927
0.0152389
0.0220881
0.0157105
0.00217766
0.00683071
0.0144406
0.00473305
0.0159631
0.0067119
0.000556705
0.000735634
0.00968837
0.00278091
0.0209207
0.0122287
0.00532846
0.00932183
0.0216768
0.0217302
0.0192444
0.0201733
0.0213957
0.0123321
0.00220836
0.00459982
0.0106726
0.0182687
0.0183407
0.0188258
0.0190266
0.0129486
0.0127313
0.0115153
0.015841
0.0140274
0.0141461
0.0152628
0.0230487
0.0166157
0.018364
0.0156252
0.0173278
0.017122
0.00862546
0.0168104
0.0131292
0.00810938
0.0117986
0.0266251
0.0133069
0.0296865
0.0176367
0.00507645
0.00786522
0.0155102
0.0252357
0.0142061
0.0133999
0.00600355
0.017686
0.000522981
0.00148538
0.000286414
0.0219058
0.0215436
0.0220987
0.0113776
0.0238649
0.00424632
0.022635
0.0229376
0.0221154
0.00225868
0.0251982
0.0222843
0.00167244
0.0236071
0.013444
0.014126
0.0132006
0.0184115
0.0199698
0.0164343
0.0172526
0.0182904
0.0113004
0.0108742
0.00280123
0.022929
0.0180653
0.0206136
0.015831
0.0200915
0.0224282
0.00832572
0.0216456
0.00220543
0.016149
0.00767431
0.000849526
0.00013397
0.00972109
0.0202274
0.00761501
0.0184556
0.0188067
0.0063428
0.0198067
0.00734835
0.0237004
0.018826
0.0234093
0.0176253
0.0095511
0.0185738
0.0194534
0.0215585
0.00496022
0.019154
0.0191631
0.0200675
0.0215191
0.0153805
0.0203586
0.0164006
0.00219019
0.0195413
0.00487692
0.0145438
0.015373
0.0105404
0.0168551
0.0254617
0.0128403
0.0118441
0.0125357
0.00868107
0.0163432
0.00605453
0.0108493
0.0200041
0.00945841
0.0189116
0.00565606
0.0202267
0.0168554
0.00524561
0.014289
0.0208808
0.00553149
0.0165736
0.0108983
0.00146201
6.94855e-05
0.00146502
0.0211493
0.0138921
0.0158368
0.0120709
0.0118089
0.0211881
0.0229656
0.0222726
0.0168534
0.0219246
0.0179484
0.0231783
0.012211
0.0236066
0.0234145
0.0234631
0.0227456
0.0220724
0.00266907
0.0185705
0.0221556
0.0168453
0.0152646
0.0246458
0.0222179
0.0111641
0.023043
0.00230894
0.0209103
0.0219347
0.0152787
0.0146283
0.0197785
0.020738
0.0197407
0.000975852
0.0230658
0.0174424
0.00657915
0.000318448
0.0228207
0.00700124
0.00291974
0.00190064
0.000245107
0.0163819
0.00518264
0.0274242
0.00834801
0.019697
0.0105212
0.00799645
0.0115143
0.0192687
0.00823324
0.0228683
0.0190453
0.0111601
0.02134
0.0191133
0.0163861
0.0255895
0.0173071
0.0219899
0.0141132
0.0237093
0.0140543
0.0139864
0.0029678
0.0178861
0.0168259
0.0178233
0.0205513
0.0150405
0.0237716
0.0177986
0.0173138
0.00239344
0.00528769
0.0238542
0.0125488
0.00464469
0.012616
0.0314628
0.0076314
0.0246473
0.00571961
0.00112678
0.0095141
0.00986593
0.00873249
0.0163168
0.00498662
0.0152244
0.0191319
0.0135792
0.00450559
0.00487302
0.022371
0.00136739
0.0166601
0.0154892
0.010249
0.0208782
0.0249106
0.0108106
0.0208428
0.0195316
0.0172346
0.000337454
0.0168494
0.0188299
0.0223071
0.0227309
0.0256449
0.0238533
0.00294768
0.00194246
0.0241343
0.00283822
0.0215731
0.0230827
0.021435
0.00464374
0.0263226
0.0101132
0.0190929
0.0229531
0.0207081
0.0213689
0.0204989
0.0195381
0.0178594
0.0104907
0.0195849
0.0148408
0.00172359
0.00974298
0.0215068
0.0195579
0.0252524
0.0266044
0.00135066
0.013877
0.00225271
0.0043354
0.022426
0.00426792
0.00365743
0.023559
0.00542753
0.00924893
0.0135525
0.0228198
0.000236188
0.0222555
0.0191745
0.0105207
0.0218658
0.0232878
0.012081
0.0219549
0.0177786
0.0235495
0.0219068
0.0215618
0.0159427
0.0244507
0.0169949
0.00491452
0.00517368
0.0237079
0.0176843
0.0216594
0.0262943
0.0195258
0.0207963
0.025928
0.00516658
0.0235272
0.0229974
0.0236663
0.0129497
0.0342496
0.00397857
0.00666008
0.0104699
0.00967638
0.0255926
0.00773037
0.0187557
0.0148944
0.0155564
0.014558
0.00526027
0.0094998
0.00618795
0.0222745
0.00100805
0.0237046
0.0241988
0.0244305
0.0115714
0.0202909
0.0302293
0.0188519
0.0016725
0.0217803
0.00725695
0.00911326
0.0249118
0.0116866
0.0246084
0.0250406
0.0167782
0.00261521
0.0222416
0.02132
0.0221117
0.0164276
0.0218674
0.0218751
0.0210993
0.0186356
0.0191782
0.0197437
0.0198302
0.016305
0.015141
0.00152517
0.0227146
0.0137511
0.0147799
0.0160867
0.00817182
0.00684904
0.027421
0.0213661
0.0195784
0.0248703
0.0257137
0.0095979
0.00391164
0.00663904
0.0269527
0.0138675
0.00705652
0.0230806
0.00597208
0.0201084
0.0115036
0.00502131
0.00480865
0.0188118
0.01092
0.0206446
0.000850893
0.0181594
0.00187219
0.0196765
0.011251
0.0164303
0.0168683
0.0160181
0.0207287
0.0200834
0.0226457
0.00695781
0.0308554
0.029772
0.026225
0.018098
0.0178651
0.0138933
0.0189232
0.0211033
0.0222473
0.0253528
5.99499e-05
0.00985762
0.0108934
0.0335852
0.022728
0.0028116
0.023405
0.00283593
0.0133328
0.0153001
0.00932589
0.00678857
0.02636
0.0214783
0.0072606
0.0143774
0.0271853
0.00924867
0.00567534
0.000463018
0.0132793
0.00196407
0.024461
0.00580609
0.0259647
0.0307899
0.00795335
0.0216614
0.00028711
0.000310099
0.0075156
0.0250405
0.0250445
0.0238468
0.0211912
0.00156071
0.0163854
0.0352519
0.0156497
0.0211037
0.0201046
0.0208851
0.0211506
0.0167811
0.023127
0.0206004
0.00720034
0.00175273
0.00199326
0.00201004
0.0197452
0.0220662
0.0123461
0.0220203
0.00516362
0.00536024
0.00609546
0.0189941
0.0257046
0.0253253
0.0265876
0.0150695
0.00743994
0.0233429
0.00705942
0.0189124
0.0205202
0.0212094
0.0115764
0.0233305
0.0105417
0.0193379
0.0200984
0.0191987
0.0101388
0.0143696
0.0357825
0.00896653
0.00227498
0.0183233
0.0156559
0.0195825
0.0125793
0.0147036
0.0159032
0.0169863
0.0140283
0.0204754
0.0295549
0.0151796
0.0229899
0.0105662
0.0188913
0.0143367
0.018213
0.0198175
0.0186391
0.0251055
0.00347974
0.0246528
0.0163526
0.000758266
0.0106942
0.0258395
0.0231734
0.0136584
0.00326302
0.0209911
0.00757137
0.026566
0.00762668
0.0216786
0.0205583
0.0240477
0.0183467
0.0222476
0.0152473
0.00253905
0.0199924
0.00223093
0.024265
0.000232038
0.000839193
0.00503295
0.00180066
0.0165949
0.000840821
0.0268077
0.0270036
0.0226929
0.0233839
0.0254016
0.0254636
0.0246083
0.0249141
0.00694937
0.0271435
0.0245527
0.00537767
0.0232649
0.0286102
0.0159944
8.66285e-05
0.022429
0.0243439
0.0209576
0.0195638
0.0220564
0.0261898
0.0024634
0.0230208
0.00113848
0.000599432
2.97539e-05
0.0200848
0.0142193
0.00620147
0.011647
0.0228133
0.0337456
0.0160287
0.020898
0.0214266
0.0260179
0.00213905
0.0356476
0.0240324
0.00697702
0.0170736
0.00827872
0.0179658
0.0219872
0.00842112
0.023703
0.0184408
0.00999688
0.0157332
0.00963409
0.019474
0.0156176
0.024967
0.0256964
0.00728907
0.0133244
0.0162149
0.0158075
0.021412
0.0300829
0.0109285
0.0213075
0.0163619
0.0107444
0.0138444
0.0272114
0.0153411
0.0139969
-0.000172787
0.0289181
0.0282806
0.000917005
0.0233422
0.00175446
0.017568
0.0266899
0.00394833
0.0247989
0.0247122
0.0263431
0.0252767
0.0203226
0.0208929
0.0226892
0.00617148
0.0220048
0.00771114
0.00202866
0.0116359
0.00311304
0.0209071
0.0226248
0.00962636
0.00957729
0.0117353
0.026429
0.0029562
0.022606
0.0134466
0.0261381
0.0185418
0.0255306
0.0246322
0.027551
0.0244505
0.00114256
0.0162751
0.0243351
0.0170293
0.0221919
0.0214037
0.00449184
0.0256968
0.0194963
0.0268942
1.52693e-05
0.0244835
0.00621314
0.0131873
0.00175762
0.0209046
0.0202137
0.0316356
0.0193618
0.00647137
0.0239663
0.0228193
0.000702702
0.000495211
0.0311411
0.0213888
0.00742506
0.0347313
0.00854811
0.0134726
0.0233673
0.000294781
0.00269248
0.0356969
0.00679237
0.0102431
0.0100902
0.0166413
0.0228324
0.0131561
0.00956598
0.023401
0.0262878
0.0242444
0.0226519
0.0133181
0.0228271
0.0160877
0.0098721
0.020156
0.0198142
0.0161104
0.0182287
0.0132305
0.0124261
0.0230607
0.0236299
0.0240558
0.0200028
0.0284054
0.019338
0.0200586
0.0188779
0.0197914
0.0239399
0.0172015
0.00382623
0.0260488
0.0252032
0.0235354
0.0039854
0.0223749
0.0195572
0.0218603
0.0199354
0.0266662
0.0234033
0.00304517
0.0094226
0.0263863
0.0265759
0.0287032
0.00258895
0.0128621
0.00903356
0.0246326
0.0238382
0.0255006
0.0285052
0.0288196
0.0247921
0.0283028
0.0243747
0.0239423
0.0154177
0.0255639
0.0216146
0.0282314
0.0341383
0.0214196
0.0200078
0.0353506
0.0176528
0.0125838
0.0262989
0.0145325
0.0282991
0.000790583
0.0219385
0.0135924
0.0324759
0.0212203
0.0202583
0.0269123
0.0129338
0.000845916
0.0118803
0.0327919
0.000182809
-0.000170417
0.0216982
0.00843554
0.00912653
0.00898272
0.00644793
0.00547095
0.00611508
0.00491021
0.00965625
0.025111
0.0280891
0.00281849
0.0253612
0.0224696
0.00220262
0.021352
0.0259896
0.0263256
0.0148724
0.0183345
0.0139486
0.0258717
0.0145621
0.0223176
0.0199738
0.0148576
0.0206953
0.0252249
0.0143103
0.0139781
0.0205297
0.0201833
0.0171392
0.0274977
0.00319059
0.0289459
0.0176713
0.0150748
0.0165745
0.0260472
0.0113681
0.00876172
0.0261231
0.0231842
0.0238336
0.0254198
0.0325207
0.0293372
0.0262318
0.0237542
0.0258918
0.0272363
0.0264082
0.0163857
0.0277835
0.0264968
0.00772931
0.0237095
0.0175749
0.0276972
0.0230156
0.0272663
0.0136969
0.0245588
0.0173627
0.0201952
0.0255171
0.0275925
0.00743241
0.0225298
0.0179721
0.0173108
0.0183236
0.0281799
0.0231335
0.0243612
0.000459451
0.0207181
2.5226e-05
0.0242465
0.00198509
0.0333692
0.00839837
0.0172592
0.00675369
0.00650295
0.00587564
0.0224047
0.0243382
0.0167065
0.0171268
0.0223421
0.0152545
0.0255121
0.0262512
0.0190555
0.0287338
0.0248897
0.0289096
0.0250303
0.0234407
0.0269199
0.015237
0.0197452
0.0203622
0.0161853
0.00359426
0.0271276
0.0266023
0.0315869
0.00823751
0.0249389
0.0222441
0.00883745
0.0203004
0.0247454
0.0216721
0.028142
0.0266856
0.0255165
0.0278037
0.0207114
0.026573
0.0277523
0.0268455
0.0263244
0.0220261
0.0246524
0.0195036
0.0284455
0.0238758
0.0356583
0.0349996
0.0230314
0.0281645
0.0226022
0.0222517
0.0216588
0.0185744
0.0261139
0.0231662
0.0249823
0.0260413
0.0285219
0.0251355
0.0213976
0.0239181
0.0239042
0.0278251
0.0231106
0.0246196
0.026192
0.02722
0.00191695
0.0252375
0.00266323
0.00304766
0.00338741
0.00172611
0.0248116
0.0052787
0.000622676
0.0183054
0.0245779
0.0336784
0.0343197
0.0284068
0.0227758
0.0278842
0.0151634
0.0314042
0.020123
0.022129
0.0240855
0.0260268
0.0171116
0.0257273
0.0269261
0.0195043
0.0209533
0.0267517
0.0210923
0.0308172
0.0268722
0.0298523
0.00923336
0.00170869
0.0249268
0.0247086
0.0243078
0.0300113
0.0254664
0.0305582
0.0255563
0.0274846
0.0160701
0.0285648
0.0206292
0.0275221
0.0219056
0.0278672
0.0286987
0.0174981
0.0253647
0.0188202
0.0262664
0.0188248
0.0265687
0.0230674
0.0222365
0.0264904
0.0256859
0.0230305
0.0257595
0.0175456
0.0306009
0.0239372
0.0253738
0.0261988
0.027325
0.00745718
0.0185407
0.0276893
0.00272704
0.00356971
0.0281692
0.0248438
0.000422137
0.0337511
0.0224587
0.0310714
0.0244555
0.0213124
0.0212846
0.0293938
0.0246105
0.0211406
0.0222876
0.0239683
0.0245448
0.0243175
0.0315849
0.0270135
0.0271324
0.0182801
0.0183329
0.0285544
0.023111
0.0270423
0.0270005
0.0305114
0.0337692
0.0320687
0.0215288
0.0286327
0.0226128
0.0265229
0.02599
0.0222327
0.0101418
0.0281132
0.0340424
0.0276045
0.0212277
0.0244704
0.0212337
0.0350738
0.0196002
0.0251632
0.021293
0.0222846
0.0266613
0.0281387
0.0224523
0.0269089
0.026377
0.0239668
0.0273543
0.0265538
0.0264744
0.0237378
0.0286222
0.0287298
0.0282275
0.0242226
0.0278848
0.0279283
0.0276395
0.00889542
0.0283127
0.0200896
0.0207875
0.0255255
0.0304725
0.0202619
0.0246928
0.0286268
0.0242288
0.0247897
0.0214619
0.0320711
0.0239009
0.0280473
0.0203088
0.0204117
0.0245463
0.0283761
0.0202512
0.0241446
0.0240027
0.0279021
0.0283302
0.0242122
0.0244446
0.0304175
0.0302997
0.0249795
0.0299529
0.0293346
0.0264078
0.0301974
0.0123367
0.0300359
0.0283994
0.0279829
0.0282322
0.0269013
0.0281624