/*--------------------------------*- C++ -*----------------------------------*\
| =========                 |                                                 |
| \\      /  F ield         | OpenFOAM: The Open Source CFD Toolbox           |
|  \\    /   O peration     | Version:  2212                                  |
|   \\  /    A nd           | Website:  www.openfoam.com                      |
|    \\/     M anipulation  |                                                 |
\*---------------------------------------------------------------------------*/
FoamFile
{
    version     2.0;
    format      ascii;
    arch        "LSB;label=32;scalar=64";
    class       surfaceScalarField;
    location    "0.064";
    object      phi;
}
// * * * * * * * * * * * * * * * * * * * * * * * * * * * * * * * * * * * * * //

dimensions      [0 3 -1 0 0 0 0];

oriented        oriented;

internalField   nonuniform List<scalar> 
68568
(
-1.54203e-07
1.58973e-07
-2.99472e-08
2.51771e-08
1.48179e-07
-7.57408e-08
-7.84891e-08
6.05111e-09
1.79761e-07
-1.374e-07
-6.06373e-08
1.82764e-08
-4.6601e-09
2.25518e-09
-1.72753e-07
1.75158e-07
-1.3129e-09
1.44757e-07
1.06589e-09
-1.4451e-07
1.41924e-07
-4.34162e-10
-1.30816e-07
-1.0674e-08
8.52966e-08
-9.02334e-08
1.32868e-07
-1.27931e-07
-4.04278e-08
-2.77638e-08
1.53488e-07
1.34149e-07
-1.60833e-08
-1.13068e-07
-4.99692e-09
1.5216e-07
5.47712e-08
-5.87526e-08
1.03063e-07
1.40314e-07
-6.36168e-08
-6.53639e-08
-2.06616e-07
1.96239e-07
-1.42762e-07
7.00521e-08
-5.77882e-09
1.8715e-07
-1.92609e-07
1.37574e-08
-8.29853e-09
-7.16014e-08
-5.24683e-08
1.22977e-07
1.09261e-09
1.31233e-07
8.96638e-08
-1.33388e-07
-8.75093e-08
-5.23337e-08
-8.07769e-08
1.17616e-07
1.54942e-08
1.14412e-07
-1.19782e-07
-4.6964e-08
1.14397e-07
-4.37805e-09
-7.07066e-10
-1.09312e-07
8.73914e-08
-1.58506e-07
7.94095e-08
-8.29431e-09
1.1507e-07
-4.51982e-10
-1.14603e-07
-1.47141e-11
-1.83798e-08
9.28175e-09
1.44488e-07
-1.3539e-07
-4.70411e-08
1.94843e-07
-2.80186e-08
-1.19783e-07
-8.36612e-10
-5.61924e-10
-1.39613e-07
1.41011e-07
-7.63775e-08
-5.00636e-08
1.19298e-07
7.14313e-09
-9.97634e-08
-4.11006e-08
-1.33387e-08
-6.67408e-08
1.45455e-07
8.67705e-09
7.96358e-08
4.65255e-08
-3.21693e-08
-9.3992e-08
-7.04986e-08
-1.01837e-07
1.31908e-07
5.05095e-08
-1.2427e-07
3.26185e-09
1.58243e-07
-8.40455e-08
-1.49026e-07
7.48287e-08
-1.34947e-08
2.43269e-09
1.20163e-07
-1.09101e-07
1.6166e-07
-3.38552e-08
-1.15502e-08
-1.16255e-07
1.22649e-07
-9.39261e-08
-6.06107e-08
3.18876e-08
-1.05899e-09
1.1235e-07
-1.11607e-07
3.15272e-10
1.25809e-07
8.71825e-08
-8.7294e-08
5.94332e-10
-4.82801e-10
4.45771e-08
-1.65018e-07
9.60385e-08
2.44024e-08
-1.66716e-07
1.44891e-07
6.6402e-08
-7.58758e-08
-1.73121e-10
-3.28602e-10
-8.70413e-10
1.17052e-07
-1.11217e-09
1.16186e-07
-1.15663e-07
-6.87534e-10
1.64619e-10
-2.72057e-08
-1.62598e-07
1.23834e-07
2.00736e-07
-1.52551e-07
-1.72019e-07
-6.39458e-08
-1.07392e-07
3.02571e-07
-1.51253e-07
1.68785e-07
-1.41686e-07
1.24155e-07
-1.27578e-07
6.75794e-08
-5.36502e-09
1.19055e-07
-1.16239e-07
-3.74086e-09
9.24102e-10
1.01207e-07
2.60622e-08
1.21325e-08
-1.39401e-07
2.32959e-09
-1.57006e-07
1.52262e-07
3.50595e-08
-3.03158e-08
-8.90287e-09
-9.61101e-08
1.04687e-07
3.26271e-10
-1.09238e-07
1.41975e-07
1.75597e-07
-2.05591e-07
-3.93302e-10
-1.76366e-10
2.16136e-09
-1.71232e-09
1.12613e-07
-1.13062e-07
4.05269e-08
-1.19358e-07
-1.94602e-09
9.45392e-08
-1.00873e-07
3.73897e-09
2.59513e-09
-8.85071e-08
1.46759e-07
-6.4422e-08
6.17047e-09
1.51676e-07
-7.84905e-08
-7.66297e-08
3.44392e-09
9.31417e-08
-9.34711e-08
-5.07253e-10
-1.15881e-07
-1.75733e-09
1.19894e-07
7.87172e-08
7.40068e-08
-8.03011e-09
-1.44694e-07
-6.26088e-09
1.39816e-07
-1.34481e-07
9.26362e-10
9.14245e-08
-1.55081e-07
-3.08441e-09
1.12161e-07
-1.80642e-08
3.46996e-08
-1.28797e-07
1.55067e-07
-2.43095e-08
-1.75752e-07
4.49943e-08
4.19554e-08
8.51392e-08
-1.26979e-08
6.64991e-08
-1.31856e-07
7.22176e-08
-6.86099e-09
1.38881e-07
-1.40094e-07
-9.98902e-11
-1.04173e-07
1.48727e-07
-3.28856e-08
-1.16686e-08
-2.12402e-07
-1.55433e-07
2.97311e-07
7.05233e-08
-1.32283e-07
-2.60663e-09
1.38879e-07
-6.42706e-09
1.39225e-07
-1.47707e-07
-5.57115e-08
6.41936e-08
-1.2991e-07
6.70938e-08
6.88171e-08
-6.00066e-09
7.17085e-09
-5.6436e-08
-5.01527e-08
-1.03875e-07
1.03956e-07
-4.87261e-10
4.05464e-10
4.1487e-08
1.79673e-07
-6.94837e-08
1.08131e-07
-6.54278e-08
5.18358e-08
-7.53936e-08
-8.23824e-08
1.5384e-07
3.93627e-09
-6.32691e-10
-2.26661e-07
-3.75329e-10
2.27669e-07
7.63884e-08
-4.81422e-08
8.79396e-08
-3.07755e-10
6.64131e-08
-6.62225e-08
1.17154e-10
-1.99685e-08
1.44716e-07
7.00049e-08
-1.94752e-07
1.75889e-07
-8.88871e-08
-9.22158e-08
5.21361e-09
1.23029e-07
3.93572e-08
-3.74637e-08
-1.24922e-07
1.69446e-07
-7.97413e-08
7.89334e-08
-1.68638e-07
3.64913e-08
1.37802e-08
1.19175e-07
-9.13383e-08
8.68026e-08
-1.68217e-07
1.27821e-07
1.14862e-09
-1.2527e-07
-3.70025e-09
-4.10184e-08
-2.8898e-07
2.0242e-07
8.63285e-08
8.92074e-08
-6.75132e-09
-3.29927e-10
4.72163e-10
9.68872e-08
-9.70295e-08
-1.27336e-07
1.27206e-07
-4.32289e-10
-6.15133e-08
1.22897e-07
6.19562e-09
7.60926e-09
9.04516e-08
-5.1967e-09
-9.28642e-08
-1.32196e-07
5.85836e-08
9.23633e-08
-1.87508e-08
-4.54875e-08
-8.3711e-08
-1.04141e-08
-8.60177e-08
1.66797e-07
5.54914e-09
7.45872e-08
7.75704e-08
-1.46849e-07
-5.30836e-09
1.16814e-07
1.21753e-09
-1.17823e-07
-2.08355e-10
-3.5006e-09
-2.39449e-07
-1.48983e-08
2.47699e-07
-7.80156e-09
1.31864e-07
-1.3004e-07
5.92434e-08
-7.81605e-09
1.00134e-07
-3.66832e-10
-9.86935e-08
-1.07392e-09
1.25646e-07
-8.35524e-10
1.40108e-07
-4.7952e-08
8.37334e-08
2.04894e-10
-1.06576e-07
-3.49958e-09
1.14506e-07
-4.43034e-09
9.33512e-08
-5.16563e-08
-9.24411e-08
-2.05719e-10
9.25734e-08
7.34169e-11
-3.60546e-08
-1.40556e-07
1.49125e-07
2.74857e-08
-2.38385e-09
1.34305e-07
-1.31473e-07
-4.48427e-10
-9.11658e-08
-3.78739e-08
1.29045e-07
-5.0279e-12
-4.2844e-09
2.11211e-09
-1.13709e-07
-1.68581e-07
8.97287e-08
8.41307e-08
-5.27855e-09
3.18863e-10
-1.03364e-07
1.03351e-07
-3.06109e-10
1.41606e-07
-6.90028e-10
-3.45387e-10
-1.14441e-07
2.78219e-10
1.14508e-07
9.10011e-09
2.23596e-08
-2.44279e-08
1.35631e-07
-7.41874e-08
5.05565e-09
1.45331e-07
-1.4461e-07
-1.4215e-08
-1.27292e-07
1.43976e-07
1.9558e-08
-3.62415e-08
7.42344e-08
-7.56648e-08
1.56498e-07
3.98176e-09
1.17403e-07
1.57721e-07
-1.28367e-09
-1.58821e-07
7.11578e-08
-1.48231e-07
-4.71174e-09
8.17845e-08
1.47899e-07
-8.12575e-08
7.94531e-09
1.02628e-07
-1.00404e-07
-1.15633e-07
6.02067e-08
-3.18675e-08
-1.54785e-07
1.475e-07
-1.99677e-08
2.72531e-08
1.59118e-07
4.98399e-08
-5.89552e-08
-1.48081e-07
-7.61192e-08
-3.15902e-08
8.32288e-08
2.44807e-08
-1.34695e-07
7.0909e-08
-5.64619e-08
1.20249e-07
-1.57661e-07
-3.43059e-09
1.64271e-07
-3.18005e-09
-1.12942e-07
2.14403e-08
-6.61594e-08
-1.68913e-07
-6.47121e-09
9.72205e-08
-1.37064e-09
-1.15616e-07
-6.49808e-10
-1.12935e-07
1.44393e-07
-7.62841e-08
6.08109e-09
1.60989e-07
-8.59795e-08
-8.14204e-08
6.41038e-09
-1.39144e-07
1.86717e-07
-4.81256e-08
5.52517e-10
8.4967e-08
-8.58144e-08
-1.38297e-07
9.73871e-08
7.56745e-09
-2.3262e-09
7.61958e-10
1.07502e-07
-1.07031e-07
-1.23223e-09
1.96809e-07
-4.9875e-08
-1.07577e-07
-1.12788e-07
3.56503e-08
1.18192e-07
-1.13558e-07
-2.52175e-09
-1.90613e-09
1.04527e-07
-1.02982e-07
3.6133e-10
-1.02632e-08
-1.39426e-07
1.36666e-07
1.30236e-08
-1.43285e-07
1.60354e-07
-1.0149e-08
-6.92004e-09
1.24763e-07
-1.11965e-07
-3.85993e-09
-3.17811e-10
-8.32126e-09
-1.01265e-07
1.00684e-07
3.41423e-08
-7.08504e-09
-1.39999e-07
-2.06581e-08
1.13653e-07
-8.68306e-08
-6.16393e-09
1.6644e-07
-7.14375e-09
-1.43104e-08
-1.44985e-07
1.62578e-07
2.27444e-10
-2.9179e-09
-1.59888e-07
1.40424e-07
-1.39401e-09
-1.48112e-10
1.32973e-07
-1.33305e-07
3.9554e-10
-6.34546e-11
-1.29856e-07
-8.38706e-08
1.30015e-07
2.19476e-08
-1.76167e-07
-1.13612e-07
1.13362e-07
1.46768e-10
1.03447e-10
-1.38009e-07
-7.20148e-09
1.92561e-09
-1.04911e-07
3.35317e-12
1.04851e-07
5.67818e-11
-1.25586e-07
-2.61099e-10
1.26131e-07
-2.83701e-10
-6.09135e-09
1.19773e-07
-1.06471e-07
-7.22495e-09
-1.06106e-07
1.05416e-07
3.43746e-10
6.2907e-09
2.93667e-08
9.2997e-08
-1.26404e-07
7.50022e-08
-7.53448e-08
1.49374e-07
-1.49031e-07
1.06128e-07
-8.33973e-08
-2.48704e-08
2.13924e-09
1.60463e-07
-6.33401e-08
-1.14863e-07
1.9651e-08
5.54222e-09
-1.12065e-07
1.26742e-07
-2.02194e-08
-5.51947e-10
1.0491e-07
-1.03793e-07
-5.64764e-10
-1.45339e-07
-8.54543e-09
1.70895e-07
2.13064e-07
-9.05209e-08
1.92215e-07
1.5771e-07
-7.84639e-08
5.72061e-09
-1.94921e-08
2.67156e-08
-1.08995e-07
1.05253e-07
9.10639e-08
9.62033e-08
-7.59423e-09
9.58825e-08
7.43706e-08
-1.63925e-07
-6.32837e-09
8.41301e-08
8.15395e-08
-7.95927e-09
1.24571e-07
-7.75166e-08
8.59189e-08
7.55814e-08
-1.28268e-07
6.12473e-08
-8.56057e-09
6.33479e-10
-1.01309e-07
-1.16165e-09
1.97515e-10
-3.2081e-07
1.91875e-07
2.32099e-07
-1.39426e-07
6.09521e-08
9.82915e-09
4.49082e-08
4.67519e-08
-1.01489e-07
-1.31712e-07
2.08344e-09
1.30771e-07
-1.14267e-09
-1.00515e-07
9.99566e-08
4.14948e-11
5.16814e-10
1.32818e-07
-1.72039e-07
2.03349e-07
-1.64127e-07
1.59656e-08
-1.28529e-09
1.30077e-07
-3.23458e-08
7.64792e-09
-7.57052e-08
1.00403e-07
-7.36574e-08
1.43419e-07
5.24038e-09
-1.49883e-07
7.81235e-08
7.70448e-08
-5.2858e-09
-1.14134e-07
-2.54133e-08
1.18889e-07
5.83637e-10
7.93152e-08
-1.88035e-10
-7.97108e-08
1.50362e-07
-6.8011e-08
7.9309e-08
1.39973e-09
-1.22773e-10
1.19597e-10
-9.95641e-08
1.83592e-07
-4.89515e-08
-3.05771e-08
-1.04064e-07
-1.15584e-08
3.08468e-08
-9.40397e-08
7.94156e-08
-3.41282e-08
2.32317e-08
2.3767e-07
-6.86338e-08
1.70693e-07
-1.68699e-07
-6.39515e-08
-6.86162e-08
5.27537e-09
1.35068e-07
6.26038e-09
-7.23299e-08
-7.36987e-08
1.38743e-07
7.28588e-09
2.04354e-08
1.24901e-07
-1.658e-07
-2.00788e-10
7.16412e-08
-6.87815e-09
-6.86259e-10
-1.38301e-07
1.55586e-10
1.38832e-07
-1.46993e-07
1.80306e-07
-4.72142e-08
1.13042e-08
-1.00529e-08
5.27692e-08
1.15005e-07
-1.32717e-07
7.7522e-08
-2.79394e-08
8.3135e-08
-1.45632e-07
9.81155e-08
-1.31775e-07
1.30322e-07
1.70127e-10
9.55307e-08
2.23552e-08
-1.71797e-07
-2.22872e-08
1.71729e-07
-1.88465e-07
1.03318e-07
-1.41513e-07
-1.76774e-09
1.70757e-07
2.45402e-08
6.79907e-08
-9.72894e-08
4.75853e-09
2.66088e-08
6.8771e-09
1.27586e-09
-1.02453e-07
7.504e-10
-2.41291e-07
2.41519e-07
-6.0297e-10
-9.81022e-08
-1.03243e-07
-9.55399e-08
1.04401e-07
-1.14967e-07
8.62101e-08
-1.09289e-07
1.75901e-08
5.48924e-09
1.29525e-07
-9.34625e-08
-9.34685e-09
-1.60059e-07
-1.10206e-08
2.15215e-08
1.49558e-07
-3.20398e-07
-2.13741e-10
-1.34842e-07
1.34006e-07
5.05558e-10
-9.60256e-08
5.67513e-11
4.28915e-10
-1.4573e-08
-9.74103e-08
1.55975e-07
-4.39916e-08
1.12072e-07
5.48249e-09
4.5024e-08
-1.38314e-07
1.376e-07
-3.66323e-09
-5.07032e-08
1.37713e-07
-9.9897e-08
2.23216e-10
-1.31807e-07
-1.28421e-10
9.40432e-08
-9.60048e-08
2.4927e-10
-6.81472e-08
-6.77424e-08
1.27997e-07
7.89251e-09
1.16791e-07
1.80417e-08
-9.99904e-08
-3.48426e-08
1.00441e-07
1.5673e-07
-2.29668e-07
-2.88108e-08
-1.12826e-07
-2.00341e-08
1.31014e-07
5.29113e-11
-1.3148e-07
4.1282e-10
2.4941e-08
8.17997e-09
5.59262e-08
-8.9047e-08
-1.45531e-07
7.85928e-08
-5.3915e-09
-1.2463e-07
1.23172e-07
-6.69626e-09
-4.54242e-10
1.2474e-07
2.84742e-10
-8.22245e-08
-7.41081e-08
1.49297e-07
7.0358e-09
1.33044e-07
-7.16734e-08
-6.8353e-08
6.98241e-09
1.33506e-07
-2.49543e-09
3.53366e-12
-1.03978e-07
-9.47018e-08
1.02654e-07
-1.36999e-07
-4.86913e-08
2.12224e-08
1.6643e-07
-1.09482e-07
3.0472e-08
-1.33392e-07
3.68223e-10
-1.09088e-07
7.75356e-10
-6.42771e-10
1.38607e-07
2.6534e-08
-2.84138e-08
-1.36727e-07
4.75187e-08
-1.34567e-07
4.29398e-11
5.76778e-11
4.03531e-08
-2.0124e-07
-8.08734e-08
1.37103e-07
9.24977e-08
2.15084e-08
-1.50738e-07
-1.91018e-08
1.48331e-07
-8.39679e-08
6.10572e-09
1.372e-07
-1.35532e-07
9.42181e-08
4.2779e-08
-1.46558e-09
-8.46517e-10
2.20195e-10
-1.00718e-07
6.91464e-08
-4.48334e-09
-1.82216e-09
-3.21273e-09
-2.42484e-09
9.90999e-08
-9.34623e-08
8.52094e-08
1.07748e-07
-1.06945e-07
-8.60122e-08
1.54487e-07
-1.72517e-07
2.67453e-10
2.10073e-10
1.62913e-07
-1.04364e-08
-1.43195e-07
-4.43065e-08
1.57838e-07
1.12322e-08
1.22408e-07
-1.15442e-07
-6.05955e-09
-9.0561e-10
-1.23343e-09
1.18298e-07
1.69289e-07
-5.88305e-08
-2.32688e-09
9.74841e-08
-8.63772e-08
-5.32544e-10
3.29011e-11
1.4583e-07
-1.71656e-07
9.17503e-09
1.59734e-07
-1.25773e-10
-1.21695e-08
1.96931e-07
-2.47374e-07
5.40432e-08
9.74956e-10
9.3867e-08
-8.93905e-10
-9.3948e-08
-1.20613e-07
1.20926e-07
-1.93105e-10
1.1633e-09
-1.02393e-10
-1.14966e-07
1.13817e-07
-8.40087e-11
-1.12786e-07
-2.49944e-10
2.09165e-10
7.36966e-08
-1.06425e-07
-7.89352e-08
1.11663e-07
3.76292e-11
-1.18511e-07
1.18545e-07
-7.18815e-11
-2.97689e-08
3.03963e-08
3.07294e-08
-2.03957e-08
-1.45813e-07
7.58846e-08
-6.19079e-09
2.91185e-08
-1.65337e-08
1.09823e-07
-1.39348e-07
6.73753e-08
6.47644e-08
7.20801e-09
-1.64349e-07
-1.1511e-07
1.14873e-07
-1.302e-07
-4.4629e-08
5.99563e-08
1.33783e-07
-1.34677e-07
4.40502e-10
4.53871e-10
-1.79488e-09
-1.90821e-07
1.19408e-10
1.92496e-07
-1.09444e-07
2.80929e-11
1.09469e-07
-1.31881e-07
-1.61908e-10
5.63488e-10
7.47932e-08
-1.31722e-07
-7.02306e-09
3.13376e-10
-1.33597e-07
-2.17959e-11
7.84179e-08
7.94737e-08
-5.62956e-09
-7.581e-08
-7.611e-08
1.45668e-07
6.25191e-09
-1.19946e-07
8.67522e-10
1.18885e-07
1.92712e-10
1.2797e-07
3.18187e-08
1.14272e-07
-1.63666e-08
1.11075e-07
-5.65351e-09
-1.01533e-07
4.7949e-08
4.63354e-08
7.24894e-09
-1.54939e-08
1.32938e-07
1.7154e-08
-1.29682e-07
7.61246e-08
-7.39477e-08
-1.36074e-07
-1.10038e-07
1.2097e-07
1.25142e-07
1.11618e-07
-1.14426e-10
1.18875e-07
-1.20458e-07
1.51269e-09
7.05768e-11
-1.3582e-07
-1.32378e-07
8.50114e-10
5.46691e-11
1.74987e-08
2.99945e-08
-1.51725e-07
1.56533e-08
-4.51581e-08
2.04201e-07
1.39654e-07
-1.51843e-07
1.73109e-08
-3.86467e-09
1.99916e-08
-2.22299e-08
1.38186e-07
-3.42237e-08
-8.17327e-08
1.09141e-07
-6.71325e-10
-1.08214e-07
-2.55886e-10
-4.39279e-08
-1.49323e-07
2.97029e-07
-1.03778e-07
1.07096e-07
-8.18926e-08
-6.62982e-10
-9.00418e-11
1.05511e-07
-5.11436e-10
7.62686e-08
-7.69374e-08
1.48919e-07
-1.96312e-07
-1.3494e-07
8.20849e-08
1.30979e-07
-2.39638e-09
-3.11474e-08
-8.53831e-08
7.34673e-08
8.77069e-08
8.11423e-09
2.18231e-07
-1.31247e-07
8.62018e-09
1.52648e-07
-8.2566e-08
6.96269e-09
1.31474e-07
-1.75472e-07
1.22121e-07
-6.66763e-08
-3.82149e-08
-1.44085e-08
1.78857e-09
1.0835e-07
-1.20402e-07
7.04505e-08
-1.33331e-07
-5.2667e-09
1.53295e-07
-3.18984e-09
-4.98821e-08
1.51923e-07
-1.03824e-07
-1.75461e-09
-2.62308e-08
1.43982e-07
-1.61809e-07
4.40583e-08
1.20735e-07
2.17583e-08
-5.7354e-08
-3.1518e-09
-1.59449e-07
1.60043e-07
-9.65635e-10
-3.11528e-08
2.34724e-08
-1.00631e-07
1.08312e-07
7.76692e-08
-1.46223e-07
-5.14511e-09
-1.40443e-07
1.40899e-07
-1.42699e-10
-7.84678e-08
1.62158e-07
-1.27618e-07
-7.44896e-08
-8.15307e-08
1.54644e-08
-1.02981e-07
-1.04529e-10
2.04484e-07
7.89206e-08
-1.76078e-07
-1.098e-07
-7.61572e-08
1.35587e-07
2.37881e-07
4.19493e-11
-9.26728e-08
-2.2381e-10
9.28547e-08
3.34803e-08
1.06247e-07
-7.86262e-10
1.54171e-07
6.33193e-09
9.96151e-08
5.80738e-08
2.6654e-09
7.58758e-08
-1.46003e-07
-5.68314e-09
-7.50091e-08
-8.4564e-08
1.50964e-07
8.60895e-09
-9.28233e-08
-4.57433e-09
-4.13569e-09
-1.21675e-07
-1.13733e-07
1.18641e-07
-8.13161e-11
-1.28716e-07
-3.42447e-09
1.2588e-07
-9.31644e-08
-1.41394e-07
1.01438e-07
1.3312e-07
-1.15263e-07
4.00185e-08
7.85307e-08
-3.2861e-09
7.28187e-08
7.23343e-08
-1.38239e-07
-6.91437e-09
-7.35647e-08
-7.09421e-08
1.38127e-07
6.3802e-09
5.33951e-08
4.93602e-08
-1.12783e-07
1.00276e-08
-6.96787e-08
1.16447e-07
-3.78597e-08
-8.90894e-09
1.08418e-07
-1.08939e-07
-1.65344e-10
-9.77756e-08
7.60828e-10
8.52071e-08
1.10137e-07
-2.94139e-08
-1.65931e-07
-3.23176e-08
9.24627e-08
3.96762e-08
-9.98213e-08
-1.00754e-07
-8.34794e-11
1.02664e-07
-1.82616e-09
-7.66628e-08
-4.42253e-08
9.86582e-08
1.27836e-07
-3.29731e-09
7.27827e-08
-1.35813e-07
6.80879e-08
-5.05758e-09
-6.44642e-08
4.89405e-08
-1.34284e-07
1.17033e-08
1.27191e-07
-1.0634e-07
-3.03374e-08
3.12344e-08
8.62726e-08
-7.76411e-08
1.02653e-09
-1.26424e-07
-1.8865e-10
-2.33012e-08
2.71548e-08
1.07018e-07
-1.20976e-07
5.85827e-08
5.53364e-08
7.0571e-09
7.63943e-08
-4.91162e-09
4.09013e-08
6.54061e-08
7.34522e-09
9.06946e-09
1.32915e-07
-1.10061e-08
-6.86321e-09
-8.5393e-08
8.35753e-08
1.40004e-07
-7.72756e-08
-1.6351e-07
1.64156e-07
1.72274e-07
5.98454e-08
-5.75404e-08
-1.74579e-07
1.43987e-08
-1.33725e-07
1.44267e-07
-8.15481e-08
-7.37081e-08
1.4847e-07
6.78606e-09
-5.21432e-08
-1.24641e-07
2.13926e-09
7.03992e-08
-6.87926e-09
1.34708e-07
-8.0575e-10
-1.19245e-10
2.32711e-08
-8.96144e-08
9.54618e-08
2.90496e-10
2.35818e-10
-1.40969e-07
-4.30896e-09
7.72888e-08
-7.3985e-08
1.18495e-08
-8.7264e-08
1.49248e-07
-7.38339e-08
-2.90013e-08
-1.40766e-07
1.07617e-09
1.68692e-07
9.74841e-08
-1.87206e-07
7.30238e-08
1.66978e-08
-1.26956e-07
9.3857e-08
-1.01742e-07
1.04079e-07
-6.94543e-10
-1.03193e-07
-1.91703e-10
-4.7205e-08
-1.3276e-07
4.79323e-08
1.32032e-07
-7.50336e-08
-1.27905e-07
1.53984e-07
4.89543e-08
-2.9426e-09
-1.47638e-07
1.48125e-07
2.45543e-09
-1.29556e-07
1.29431e-07
-1.67e-09
-1.49912e-07
1.3249e-07
-6.64765e-08
1.4341e-07
7.32715e-08
-6.30104e-09
7.94863e-08
-1.4149e-07
-6.62647e-08
-1.30623e-07
9.15564e-08
-1.06465e-07
-1.39422e-08
1.48281e-07
-9.11311e-08
-3.59163e-08
1.24287e-07
-1.22473e-07
-3.29478e-09
1.48102e-09
-1.01489e-07
-2.45687e-09
4.38143e-09
2.93589e-11
-1.55104e-07
1.52132e-07
-9.34221e-08
-1.36986e-10
7.35722e-10
-9.65814e-08
8.117e-08
1.60904e-08
-6.79022e-10
-5.80101e-08
-1.38364e-07
1.86517e-07
9.85641e-09
1.19692e-07
-4.48613e-10
5.81161e-08
4.98177e-08
-1.16529e-07
8.59497e-09
-1.12184e-07
-4.92975e-10
1.12443e-07
2.33342e-10
-1.09781e-07
1.59604e-08
-2.66369e-08
6.55758e-08
-1.24707e-07
5.27858e-08
6.34567e-09
-4.92264e-09
-9.74955e-08
4.31601e-09
1.68989e-09
-1.39183e-07
1.41907e-09
5.55107e-08
7.76453e-08
-5.94401e-08
1.73076e-08
3.00243e-08
2.14589e-08
1.31099e-07
-1.3164e-07
7.30039e-10
-1.89189e-10
-2.13763e-07
2.01543e-07
8.84214e-08
-7.62014e-08
5.94119e-08
-1.52951e-07
1.17605e-07
-2.40655e-08
7.71106e-08
-6.79207e-09
-6.9976e-10
-1.88631e-10
5.96877e-08
-6.35678e-08
-1.20003e-07
1.71631e-07
-1.42794e-07
1.17827e-07
-1.53866e-08
6.47922e-10
-1.58541e-07
1.57803e-07
1.35739e-07
-1.65393e-07
-1.49863e-09
-9.04277e-08
-8.59013e-08
1.69374e-07
6.95502e-09
9.71426e-08
3.27802e-10
-9.7504e-08
3.36094e-11
-1.52909e-07
8.17852e-08
7.58852e-08
-4.76159e-09
-2.08124e-07
1.29265e-07
-1.4437e-07
2.2323e-07
-2.0062e-07
2.61577e-08
-4.72045e-08
-1.17255e-07
-1.70461e-07
1.05077e-07
3.9153e-08
-1.51935e-08
-1.33061e-07
1.44919e-07
3.33561e-09
-3.48572e-09
-1.16346e-07
-1.00241e-08
1.07754e-07
-1.16208e-07
1.28426e-07
-4.19653e-08
1.67132e-07
1.80483e-07
8.50657e-08
-1.3073e-07
-1.27923e-07
4.54509e-10
1.23252e-07
-1.23665e-07
-4.11659e-11
1.07019e-07
-1.1598e-07
4.03785e-09
-8.26654e-08
-6.10836e-10
7.33534e-08
1.08871e-07
-4.75165e-08
6.57156e-08
-1.27454e-07
-4.73856e-09
-4.46204e-10
1.20012e-07
-1.19631e-07
6.5708e-11
-1.23831e-07
-4.20033e-10
1.24889e-07
-6.38523e-10
-1.2664e-07
4.66529e-08
-3.5455e-08
-1.23225e-08
1.04959e-07
8.39002e-08
-1.31281e-09
-1.87546e-07
3.35733e-09
-3.27791e-11
-1.76978e-08
8.65809e-08
-1.55751e-07
8.68679e-08
-1.34617e-07
1.36617e-07
6.93496e-08
-6.4077e-09
2.92387e-08
-1.39265e-07
-3.93402e-08
1.49366e-07
4.34111e-08
1.16746e-08
3.48421e-08
-8.99278e-08
7.2888e-08
8.01147e-08
-1.4647e-07
-6.53308e-09
-1.08696e-07
1.07008e-07
1.74343e-09
-5.5622e-11
-7.21316e-08
7.2246e-09
5.91354e-08
-5.69144e-08
1.33701e-07
-1.35922e-07
-1.11393e-07
2.36554e-07
-4.97411e-08
-7.54195e-08
9.14504e-08
-7.61411e-08
-8.02027e-08
6.48935e-08
7.26258e-08
-5.98413e-08
-1.44102e-07
5.73045e-08
8.32916e-09
6.17572e-08
8.59074e-08
7.96534e-08
8.26428e-08
-1.56068e-07
-6.22831e-09
1.43206e-07
8.4455e-09
-6.57297e-09
-1.45078e-07
1.08841e-07
6.82889e-10
-3.82711e-10
1.02349e-07
-1.04454e-07
2.44883e-09
-3.44196e-10
-6.98873e-08
-8.22047e-08
1.452e-07
6.89159e-09
-1.28483e-07
1.41949e-09
4.22886e-10
-1.12536e-07
3.56433e-12
3.48706e-10
1.21156e-08
1.32316e-07
1.18661e-07
2.04296e-09
-1.01286e-09
1.03307e-10
-1.10186e-07
1.0959e-07
1.03438e-07
1.80594e-08
2.78982e-09
-1.294e-08
3.87892e-08
-1.28635e-07
1.02786e-07
1.32979e-07
-1.32671e-07
-1.22169e-10
-1.85756e-10
-3.16834e-08
-1.27185e-07
1.85026e-07
-1.267e-07
-2.05474e-08
1.52812e-07
-5.56372e-09
1.65044e-07
-1.39856e-07
-2.41574e-08
-2.21457e-08
1.37753e-07
1.34757e-07
-1.36327e-07
9.46593e-10
6.22714e-10
1.60433e-07
-4.96413e-08
-1.58106e-07
4.73144e-08
1.3381e-07
-1.3387e-07
1.58166e-07
-1.58105e-07
9.67452e-09
-1.35902e-08
-1.05481e-07
1.09396e-07
2.86937e-08
-1.10193e-07
-4.67051e-08
1.28205e-07
9.30627e-08
8.42083e-08
-1.70009e-07
-7.26217e-09
2.19265e-07
-2.32023e-07
-1.63862e-07
-7.73441e-08
1.09491e-07
-1.40693e-08
1.3419e-08
-2.00591e-07
1.74041e-07
-9.24668e-08
1.44821e-07
-2.45709e-07
1.93354e-07
8.46584e-08
-1.71068e-07
-6.05758e-09
2.19106e-08
9.62527e-08
-1.65142e-08
-1.01649e-07
-1.67854e-09
1.14459e-07
-1.58184e-08
-9.24561e-08
-6.35449e-08
1.65382e-07
-1.1501e-07
1.31727e-08
-2.92532e-08
8.42245e-08
-4.75704e-08
-7.40089e-09
3.12456e-10
-1.0618e-07
1.06362e-07
-4.94288e-10
3.03476e-09
1.33625e-07
-1.35447e-07
-1.21328e-09
6.52083e-09
-1.36604e-07
1.43913e-07
-7.06601e-09
-9.08041e-08
1.97735e-07
1.55529e-08
-5.15318e-08
-4.76316e-08
1.35268e-07
-2.30924e-07
-7.10478e-08
-1.62523e-07
1.28226e-07
-7.70967e-08
1.32554e-07
-1.28986e-07
-5.33188e-10
-1.06065e-07
1.47588e-09
-2.16205e-09
1.06751e-07
6.64624e-08
-2.05097e-07
-1.55953e-07
-3.05747e-12
1.34721e-07
-1.34474e-07
-2.44595e-10
-1.40915e-07
-4.95403e-08
1.80459e-07
6.31108e-09
-9.90415e-09
1.19169e-07
-1.06832e-07
-1.24589e-08
1.55943e-07
-1.2436e-07
6.93652e-10
-1.64706e-10
6.90888e-08
-1.62921e-07
8.87195e-08
5.11239e-09
-1.49243e-09
-1.37352e-07
-1.58285e-09
1.36158e-07
6.07984e-09
-1.11844e-07
5.7044e-08
5.29352e-08
1.86482e-09
-1.14453e-07
3.10125e-08
1.56066e-07
-1.80471e-11
1.45596e-07
-9.0237e-10
-1.44676e-07
8.09013e-09
1.28607e-07
-2.7416e-08
-1.09281e-07
1.55023e-07
-1.76626e-07
9.12147e-08
-6.96112e-08
4.85797e-08
1.22618e-07
-6.03396e-08
-6.76742e-09
9.20092e-08
1.1408e-07
-1.96653e-07
-1.34427e-08
-6.98747e-09
1.17545e-07
-1.42148e-07
1.23914e-07
4.33182e-10
-1.24391e-07
4.35439e-11
8.04032e-09
1.08108e-07
-4.07707e-09
8.56504e-08
-2.12799e-07
3.39839e-08
-1.41628e-07
1.92398e-09
-7.95818e-08
-6.80541e-08
1.40717e-07
6.91901e-09
-1.12778e-07
-5.10246e-08
3.48975e-08
1.28905e-07
-1.27283e-07
-5.81723e-10
-6.18146e-10
-7.48004e-08
1.58009e-07
-8.92997e-08
6.09104e-09
7.9644e-08
-1.58455e-07
8.27558e-08
-3.94474e-09
-1.19527e-07
-2.63216e-10
1.09003e-07
-1.12247e-07
5.05517e-09
-1.81111e-09
1.61807e-07
-9.07711e-08
8.60791e-09
-1.22288e-07
2.08028e-08
-2.09883e-08
6.36889e-08
-1.05278e-07
-2.38385e-08
1.339e-07
-1.33032e-07
-2.20385e-10
7.28352e-08
6.5405e-08
-6.50889e-08
-7.31512e-08
8.57854e-08
1.59894e-07
-1.72861e-07
8.43502e-08
7.16587e-08
-1.50649e-07
-5.36013e-09
-1.23094e-07
6.50776e-08
5.06995e-08
7.31686e-09
1.63091e-10
1.34151e-07
4.43214e-10
8.50993e-08
7.90744e-08
-1.58728e-07
-5.4459e-09
1.13875e-07
1.24144e-07
-1.02247e-08
-1.10333e-07
-3.58619e-09
1.01588e-07
6.47941e-11
1.57864e-07
-1.59408e-07
-8.76296e-08
8.91738e-08
5.32191e-08
6.36406e-08
7.2846e-09
-6.25058e-09
-2.82956e-07
2.00964e-08
1.90317e-07
-3.57055e-09
6.26626e-09
1.63817e-07
1.40396e-07
-2.38638e-07
-1.31545e-07
1.055e-09
-1.84831e-09
1.32338e-07
7.37243e-10
1.05645e-07
-1.06364e-07
-1.83219e-11
-8.50241e-08
1.94065e-07
-1.90589e-07
5.54287e-08
1.31871e-07
-6.91977e-08
-1.18102e-07
4.91195e-08
6.19478e-08
-1.18653e-07
7.58577e-09
1.59504e-07
-1.23641e-08
2.22344e-08
-1.4223e-07
-5.58658e-09
5.93989e-08
-1.6758e-07
-1.95227e-08
-1.02102e-07
-1.18744e-07
1.11688e-07
2.12942e-08
-5.1614e-09
-2.21592e-08
1.02587e-07
3.12611e-08
3.5399e-09
-8.71037e-08
-8.86164e-10
1.33362e-07
4.11003e-09
2.17115e-10
3.73706e-10
-2.12134e-07
-1.59236e-08
-4.69638e-10
6.98058e-08
1.52838e-08
-7.6733e-08
-1.6006e-08
2.92459e-07
-1.28547e-07
-1.47907e-07
-1.81238e-07
1.48415e-07
1.22956e-07
-1.55969e-07
-7.33066e-08
7.88907e-08
-8.09042e-08
7.53201e-08
1.272e-07
-1.31918e-07
-3.89654e-09
8.6143e-09
-4.34834e-09
-6.82452e-08
8.5503e-08
-1.98496e-07
-8.63712e-08
6.95639e-08
-9.04332e-08
-1.29218e-07
2.93207e-07
-4.41687e-08
-1.04914e-07
-1.38377e-08
-8.19037e-08
1.6535e-07
2.33919e-09
-3.5706e-08
-7.64875e-08
9.57366e-08
1.64569e-08
4.29394e-08
-1.92245e-07
8.70449e-08
6.22609e-08
-1.13013e-07
1.12913e-07
-3.05256e-10
4.05527e-10
9.73528e-08
-1.68329e-10
1.49928e-08
1.34084e-07
1.19786e-07
-7.92108e-09
-8.83925e-08
-1.49699e-07
1.90761e-08
6.03565e-10
1.32724e-07
-1.18173e-07
1.72963e-07
-5.30614e-08
-5.95378e-09
3.05903e-09
1.33362e-07
-3.05965e-09
1.12316e-07
4.18915e-08
-1.63108e-07
-3.16919e-08
-1.34148e-07
-1.16271e-07
-9.07657e-08
4.69772e-08
-1.16723e-08
1.14796e-07
-8.90541e-09
-1.00691e-07
-1.16042e-07
-3.64908e-09
1.0121e-07
-1.30357e-07
1.04709e-07
-6.0794e-10
-1.03405e-07
-6.96549e-10
-2.74648e-08
-1.57059e-07
-1.88725e-07
1.88432e-07
1.18342e-07
-5.0236e-08
1.1762e-08
-7.98677e-08
1.19973e-07
-5.48758e-10
-1.1923e-07
-1.94133e-10
9.00522e-10
1.07914e-07
-1.09164e-07
3.48747e-10
3.0694e-08
1.26898e-07
-3.89306e-08
-8.23017e-08
-8.70094e-08
1.08561e-08
8.31565e-09
1.15952e-07
-1.20332e-07
-3.93599e-09
-1.32505e-07
1.43128e-07
-2.30729e-09
-1.41032e-07
-3.86408e-09
-1.58386e-07
1.60589e-07
-5.8916e-08
-9.07763e-08
1.55731e-07
-6.03875e-09
1.1393e-07
-1.49826e-08
7.16574e-10
-2.04009e-10
4.9868e-08
1.25641e-08
-1.07566e-09
-2.87445e-10
7.94536e-08
8.72003e-08
-6.22134e-09
-3.56322e-08
1.05792e-07
8.32969e-08
-3.05846e-07
-2.07444e-07
3.33239e-07
1.77939e-07
1.54871e-07
-6.46343e-08
-9.98005e-08
6.258e-09
-7.87553e-10
-1.30492e-07
-3.6053e-10
5.71669e-08
6.57161e-08
-1.21873e-07
-1.00985e-09
-1.20517e-07
1.204e-07
2.02066e-10
-8.54223e-11
1.10642e-07
3.41843e-08
-1.45041e-08
1.43882e-09
2.04798e-07
-4.69449e-09
-5.57691e-08
-8.4707e-08
-3.62541e-09
-7.24132e-08
-2.46736e-08
6.22624e-10
1.13975e-07
-1.13915e-07
8.21523e-08
-2.02629e-07
1.1225e-07
-9.83247e-10
-6.24993e-10
7.32134e-08
6.84399e-08
-1.37845e-07
-3.80865e-09
-1.69726e-07
8.47919e-08
-2.41202e-08
-2.84789e-08
-3.9397e-08
1.34737e-07
-6.68615e-08
-3.10451e-08
7.44706e-08
3.24598e-08
-1.47828e-07
-9.34654e-08
9.89387e-08
1.42355e-07
8.02242e-08
-5.74467e-09
6.81773e-08
1.35255e-07
-5.53393e-08
-1.48093e-07
-3.85356e-09
1.23421e-07
1.5409e-08
-1.34977e-07
1.17655e-07
-9.97782e-08
-2.20119e-08
4.13509e-09
1.48697e-07
-2.01369e-07
1.86297e-07
1.48004e-07
-7.18446e-08
-6.93312e-08
-6.82844e-09
4.4753e-08
-1.7814e-07
-1.27625e-07
-1.26398e-07
-1.03415e-10
-1.97146e-07
1.65961e-07
-1.72293e-07
2.03478e-07
8.48542e-08
-1.79388e-07
-2.67298e-08
1.24526e-07
-1.23435e-07
-4.43736e-10
-6.47337e-10
6.29019e-08
-1.25885e-07
-5.26175e-09
-7.38837e-09
7.35235e-08
-1.72234e-07
8.28395e-08
-1.42719e-07
1.20576e-10
1.67754e-10
1.4243e-07
-8.63839e-08
1.43039e-07
-1.9621e-07
-9.65163e-08
-2.69996e-08
-7.34957e-09
6.20228e-08
7.23156e-08
-6.11212e-09
-5.48195e-08
-6.24044e-08
-5.86992e-09
-3.93678e-09
-1.09314e-07
-1.05094e-07
-1.08536e-09
-5.66426e-09
7.2167e-08
-7.19374e-08
7.93456e-10
-1.023e-09
1.11384e-07
-1.09239e-07
-1.2699e-09
-8.74784e-10
-1.43834e-09
1.32765e-07
-1.31606e-07
2.79963e-10
-1.37259e-07
1.48104e-08
1.16924e-07
5.52472e-09
1.33023e-07
-1.26188e-07
-4.76848e-09
-2.06683e-09
-1.1213e-07
-1.22004e-09
1.14011e-07
-6.60725e-10
-1.08735e-07
-6.64728e-08
1.01532e-07
3.5595e-08
-1.00834e-08
-1.27044e-07
7.85589e-08
-8.3576e-08
4.13566e-09
8.81355e-10
4.72399e-08
3.91699e-08
-1.33615e-07
1.13639e-07
-1.10684e-07
-7.35256e-09
4.39697e-09
-5.30459e-08
5.35652e-08
1.59391e-07
5.76516e-09
1.34926e-07
-1.00757e-07
1.2484e-08
-2.87613e-08
-1.22221e-08
-1.06845e-07
-2.95937e-08
2.01738e-07
6.04828e-09
-1.77015e-07
1.36288e-07
-3.50702e-08
-2.03125e-08
2.20097e-08
-8.41463e-08
6.34543e-09
-1.31027e-07
1.30908e-07
6.06479e-08
-7.33212e-08
-3.1552e-08
8.01243e-08
2.14974e-09
6.19999e-08
5.71754e-08
-7.57642e-08
-8.68758e-08
1.19781e-07
-1.33469e-08
-7.35518e-08
6.03052e-09
9.87306e-08
1.18513e-08
2.35666e-08
2.60876e-08
-1.11296e-08
5.36299e-08
6.20748e-08
6.91313e-09
-5.16417e-08
1.68974e-07
-1.75342e-07
-1.83218e-07
9.07219e-08
2.31328e-07
-1.56053e-07
1.1088e-07
-3.41583e-08
6.38107e-08
-1.40532e-07
-1.28331e-07
-4.43848e-08
-1.51103e-07
-5.60156e-09
-1.06373e-07
8.32289e-08
-9.18538e-08
1.14998e-07
9.17281e-09
-1.25667e-07
-1.47476e-07
-7.7978e-09
-4.13483e-09
-1.33096e-07
1.20596e-07
1.30155e-07
2.04727e-08
1.06696e-07
2.12932e-09
-1.38548e-07
1.28103e-07
-8.96751e-08
1.0012e-07
-1.0524e-07
1.40101e-08
-2.13062e-08
-3.55579e-08
5.66458e-08
3.45462e-08
-4.44431e-08
-1.16345e-07
-4.5678e-08
1.26991e-08
-7.39453e-08
-8.86194e-08
7.77956e-09
-7.32593e-08
8.40246e-08
8.39873e-08
2.45485e-08
4.42462e-08
-1.52782e-07
1.60925e-08
7.18662e-08
-8.6942e-08
5.32272e-09
-8.33448e-08
-9.38965e-08
7.5149e-09
6.49411e-08
-7.57534e-08
-5.0041e-08
6.08533e-08
-5.0625e-08
-9.14119e-09
1.53958e-07
-1.94125e-07
4.07335e-08
-5.65753e-10
-8.75098e-09
2.85807e-08
8.28692e-08
-1.02699e-07
5.52148e-10
-9.82611e-08
-1.03438e-09
9.87433e-08
-1.04711e-07
1.03892e-07
4.5191e-10
3.6708e-10
1.36161e-07
-7.44354e-08
-1.37836e-07
-6.31139e-08
-3.97286e-08
1.04468e-07
-1.62555e-09
1.60482e-07
1.20534e-08
-1.21972e-07
6.18037e-09
-1.46169e-07
1.72249e-08
-5.05579e-10
-9.47087e-08
-1.17955e-07
1.18381e-07
-3.05366e-10
1.59527e-07
1.62412e-09
-1.52012e-07
-7.89431e-09
-1.48302e-08
2.22311e-07
-7.26848e-10
-2.94095e-08
-7.65564e-10
1.01104e-07
-1.00358e-07
2.28612e-10
1.19468e-09
8.32961e-09
2.74628e-08
1.27726e-07
-3.24166e-08
1.25321e-07
-9.14513e-09
-3.42637e-09
1.33029e-07
-1.28214e-07
-1.38858e-09
-1.08612e-07
1.1121e-07
-5.33353e-09
1.27052e-07
5.63455e-09
-3.31016e-08
-9.95847e-08
1.23875e-07
1.85615e-09
-1.23734e-07
-1.99739e-09
-7.38352e-08
-5.60019e-08
7.40681e-08
9.2546e-08
1.53151e-09
1.62982e-07
2.02544e-08
-3.75688e-08
-1.52197e-08
3.7165e-09
-8.11696e-08