/*--------------------------------*- C++ -*----------------------------------*\
| =========                 |                                                 |
| \\      /  F ield         | OpenFOAM: The Open Source CFD Toolbox           |
|  \\    /   O peration     | Version:  2212                                  |
|   \\  /    A nd           | Website:  www.openfoam.com                      |
|    \\/     M anipulation  |                                                 |
\*---------------------------------------------------------------------------*/
FoamFile
{
    version     2.0;
    format      ascii;
    arch        "LSB;label=32;scalar=64";
    class       volVectorField;
    location    "0.064";
    object      U;
}
// * * * * * * * * * * * * * * * * * * * * * * * * * * * * * * * * * * * * * //

dimensions      [0 1 -1 0 0 0 0];

internalField   nonuniform List<vector> 
31639
(
(0.126103 0.000579669 -0.00064483)
(0.122296 -0.000514153 2.50371e-05)
(0.12458 -0.000271045 0.000845094)
(0.128653 4.57756e-05 -0.000275844)
(0.124798 -0.000826821 -0.000293105)
(0.123038 -0.000181609 -6.12947e-05)
(0.122828 -4.9499e-05 -0.000203062)
(0.12577 -0.000132303 6.02688e-05)
(0.125515 0.000296189 -0.000254694)
(0.126396 -0.000533609 -0.00044523)
(0.12733 0.00048572 -2.74354e-05)
(0.126261 -0.000566262 -0.000821755)
(0.123145 -0.000558883 6.75853e-05)
(0.126285 -3.27155e-05 0.000233098)
(0.121541 -0.000397996 0.000183034)
(0.123351 -0.000446666 0.000849966)
(0.125188 0.000586832 4.18504e-05)
(0.121966 8.82061e-05 0.000378303)
(0.123429 -0.00011936 -0.000376039)
(0.124137 -8.5881e-05 -0.000238725)
(0.116735 -0.000298477 -0.00040802)
(0.127609 -0.000331716 -0.000618859)
(0.126891 0.000706234 -0.000177857)
(0.122915 0.000221164 -0.00037554)
(0.12131 -0.000248156 -0.000177518)
(0.124926 -0.000336799 0.000141464)
(0.12371 -2.52191e-05 -0.000242269)
(0.125255 0.00192136 -0.000137015)
(0.122454 0.000362648 0.000748909)
(0.127071 -0.000280108 0.000702791)
(0.127252 -0.000182721 -6.19347e-05)
(0.122026 -2.15339e-05 -0.000283863)
(0.127228 0.000372384 -0.000460337)
(0.122773 -0.0001826 -3.26266e-05)
(0.118693 0.000252678 0.000680621)
(0.127441 0.000396216 0.000259851)
(0.11541 -0.00050114 -0.000135688)
(0.128302 -0.000621436 0.00028821)
(0.126758 -0.00037575 0.00026867)
(0.115302 3.26729e-05 -0.000178994)
(0.119676 -0.000106211 -0.000326596)
(0.118277 -0.000559087 -1.03716e-05)
(0.125915 6.18951e-06 2.12254e-05)
(0.128 -0.000838812 -0.000892289)
(0.126555 -0.000764059 0.000745724)
(0.127703 -0.000913039 -0.000359085)
(0.120153 0.000387488 -0.000271587)
(0.124392 0.000577216 -0.000301046)
(0.124443 -1.99528e-05 0.000266852)
(0.128225 -0.000474335 -0.000167737)
(0.127281 -0.000317883 -0.000581167)
(0.117282 7.28631e-05 -0.000258384)
(0.12637 0.000790396 0.00014523)
(0.116558 -0.000360906 0.000552784)
(0.124757 -0.000492728 -0.000195162)
(0.124679 0.000200747 -8.27633e-05)
(0.117815 -0.000115074 -0.0005674)
(0.12402 6.10601e-05 0.000376588)
(0.123259 0.000170162 0.00043461)
(0.118477 0.000344159 -0.000230587)
(0.126091 -0.000274209 -0.000528611)
(0.126775 0.000359116 -0.000300151)
(0.121957 -0.000382818 -0.000296295)
(0.123278 -0.000110849 -0.000268993)
(0.125644 0.000501204 0.000575713)
(0.128169 -0.000355733 -0.000544641)
(0.125564 -7.39781e-05 -0.00105654)
(0.123694 -0.000301512 0.000148024)
(0.120046 4.34645e-05 -0.000452766)
(0.128165 0.000354632 -0.000185776)
(0.125768 0.00012211 0.000144209)
(0.120316 0.000574104 -0.00128235)
(0.126142 -0.000396183 -0.00083832)
(0.124263 -0.000296128 -0.000190846)
(0.125672 0.000808421 0.000103359)
(0.11678 0.000516308 -0.000608311)
(0.127293 -0.000636984 0.000353314)
(0.123629 0.000187366 -0.000672085)
(0.122416 -0.00032592 0.000459102)
(0.126018 0.000193391 8.74776e-05)
(0.122072 -6.11321e-05 4.91966e-05)
(0.113756 -0.000445836 2.37117e-05)
(0.127599 -0.000505206 0.000167534)
(0.124162 -0.000209326 -0.000334675)
(0.124783 -0.000175603 -7.72075e-05)
(0.127346 -0.000619592 -0.00036369)
(0.128335 -0.000202318 0.000139927)
(0.1274 -0.000224431 -0.00050289)
(0.117904 0.000872484 -0.00151739)
(0.126567 -0.000153805 -0.000524596)
(0.124549 -0.000429994 0.000250745)
(0.123317 -0.000552209 -0.000247736)
(0.118766 -0.000520119 -0.000547223)
(0.121111 0.000790255 -0.000843028)
(0.122149 -0.000891923 -0.000476049)
(0.122965 0.000811078 0.000567552)
(0.124792 0.000158529 -0.000572796)
(0.123935 -0.000269591 0.000148527)
(0.12331 0.00014327 0.000428896)
(0.1177 -0.00139594 -0.000247914)
(0.125323 0.000265156 -0.000460437)
(0.124986 -0.000172271 -0.00153307)
(0.121923 -0.000428361 -0.000101747)
(0.116963 0.000104275 -0.000221915)
(0.118235 -5.41563e-05 -0.000403415)
(0.12772 -0.000702417 -0.000347896)
(0.116483 0.000343235 -0.000517669)
(0.117545 -0.00105043 -0.000931466)
(0.120583 0.00033748 -8.69074e-05)
(0.115655 -0.00068926 0.000721621)
(0.125414 -0.00165197 0.000494355)
(0.118901 -0.000139242 -0.00026845)
(0.123244 0.000238187 -0.000108268)
(0.123236 -0.000805267 -0.000667733)
(0.123477 3.8e-05 -0.00104765)
(0.116492 -0.000483806 0.00030451)
(0.123149 0.000716059 0.000231057)
(0.12269 -0.000897988 -0.000234879)
(0.124753 0.000179798 0.000272488)
(0.123109 -0.000422176 1.18106e-05)
(0.125537 -0.000222548 -0.000304207)
(0.125822 -0.000451349 0.000289383)
(0.126906 -5.62959e-05 -0.000619674)
(0.126096 0.000419729 -0.000727137)
(0.125955 -0.000398956 -0.000903025)
(0.126813 -0.000506801 0.000206648)
(0.12311 -6.67996e-05 0.0005293)
(0.121986 0.000171558 -0.000275806)
(0.121765 -0.0007393 -0.000449383)
(0.126543 -0.000289299 0.000321593)
(0.126188 0.000287373 4.08331e-05)
(0.126703 1.09556e-05 -0.000582954)
(0.125495 -0.000761508 -1.03733e-05)
(0.124488 -0.000146084 0.000130418)
(0.127211 -0.000106835 -0.000104225)
(0.123915 -0.000118776 0.000107725)
(0.118681 -0.000161042 -0.00028291)
(0.117581 -0.000826399 -0.00056503)
(0.127018 0.000391349 0.000645435)
(0.123283 -0.000530778 -0.00052261)
(0.122971 -0.000300997 -0.000405243)
(0.127812 0.000266978 0.00124576)
(0.126594 0.000369448 0.00031493)
(0.116971 -0.000369237 -0.000501746)
(0.117462 -0.000163284 -0.000738231)
(0.12637 -0.00033308 5.61236e-05)
(0.126159 6.88768e-05 -0.000259277)
(0.11822 -0.000280556 -0.000423425)
(0.118814 -9.14378e-05 0.000228976)
(0.126991 -0.000523411 0.000230521)
(0.121067 -7.42394e-05 -0.00128556)
(0.123255 -0.000245142 -3.28832e-05)
(0.124043 -0.000652997 -0.000904349)
(0.126723 -4.91963e-05 0.000108767)
(0.119359 0.000629883 -0.00131423)
(0.128682 1.31869e-05 -1.81163e-05)
(0.125824 -0.000487229 -0.000296786)
(0.119593 -0.00130296 -0.000231671)
(0.117966 -0.000748253 0.00111647)
(0.122823 -0.000408154 -7.53101e-05)
(0.12782 -0.000194216 -0.000480137)
(0.116577 0.000404984 -7.32009e-06)
(0.118552 0.000429732 -0.00101467)
(0.118018 -0.000475247 0.000206429)
(0.116732 -0.00105215 0.000135897)
(0.122307 0.000652592 -0.000337461)
(0.118167 0.000323436 0.000263397)
(0.12743 -0.000589408 0.000118716)
(0.127203 -0.000521639 0.000231454)
(0.11822 0.000278501 -0.00091236)
(0.119555 -0.00106108 0.000252965)
(0.122562 0.000749462 -0.000496133)
(0.118485 -2.80581e-06 -8.49335e-05)
(0.124158 -0.000119322 0.000548286)
(0.127983 -0.000334971 -0.000187702)
(0.125712 -0.00079116 -0.000508613)
(0.12369 0.000613946 0.000252855)
(0.126492 0.000536083 0.00035611)
(0.12431 -0.000565527 -4.16399e-05)
(0.122273 -0.000592387 5.09587e-07)
(0.122418 0.000141328 -4.03878e-05)
(0.123109 -0.000580391 0.000773035)
(0.121599 -5.58609e-05 0.000251775)
(0.115722 0.000983322 -0.000686944)
(0.125229 -0.000320324 7.45088e-05)
(0.127872 -0.000118108 -0.000185772)
(0.123406 0.000342493 0.000891347)
(0.127063 0.000163495 -0.000173511)
(0.118985 -0.000306747 0.000104956)
(0.1162 -0.000124264 0.000474145)
(0.128215 -0.000175772 -7.0073e-05)
(0.126786 -0.000212045 -0.000307111)
(0.12407 -0.000294706 0.000410784)
(0.122789 -0.000128395 0.000293711)
(0.123424 -0.000286849 -0.000459186)
(0.124458 -0.000316979 -0.00077154)
(0.124134 0.000777906 0.000417595)
(0.126276 0.000568352 -0.00046761)
(0.118586 -0.000208541 -0.000355765)
(0.122677 0.00010681 -0.000220138)
(0.127764 -0.000138403 0.000347978)
(0.126112 -0.000187278 0.000332036)
(0.125919 -6.78282e-05 0.000359988)
(0.123158 -0.0016864 -0.00102341)
(0.124434 -0.000611898 -0.000455635)
(0.121518 0.000131908 -0.000381278)
(0.123315 -0.000366953 -0.000478539)
(0.121502 0.00061586 -0.000726441)
(0.126987 0.000143907 -0.00078007)
(0.116553 -9.5935e-05 1.69367e-05)
(0.123458 -0.000105756 -0.000216731)
(0.123202 0.000330233 5.22657e-05)
(0.124824 0.000114338 -0.000173246)
(0.127421 -0.000241166 -0.000545511)
(0.126673 -0.000622081 -0.00041966)
(0.127704 -0.000272382 -0.000296726)
(0.118501 -0.00113634 -0.000348824)
(0.121839 -0.000913669 0.000478017)
(0.126484 -0.000405209 -0.000335546)
(0.127188 -0.000246333 0.000376227)
(0.125901 1.95501e-05 0.000397652)
(0.124255 -0.000518468 -0.000621108)
(0.114528 -0.000457542 0.000594756)
(0.123151 -0.000314467 0.00032124)
(0.118363 -0.00088396 -0.00031466)
(0.12133 0.000316487 0.000126628)
(0.126652 -0.000466006 0.000460234)
(0.122106 1.67683e-05 0.000646649)
(0.11713 0.00045683 -0.000255801)
(0.124315 0.000367003 0.000228638)
(0.12624 0.00066795 -0.000281238)
(0.127945 -0.000698418 1.80343e-05)
(0.117751 -0.000411855 4.41405e-06)
(0.116893 -0.000831462 0.000447803)
(0.125117 -0.000220206 0.00046712)
(0.127095 -0.000134053 -0.000612416)
(0.11786 -9.27081e-05 0.000482153)
(0.127145 -0.000547528 0.000323073)
(0.121544 -0.000108792 -0.000536254)
(0.118788 -0.000534773 0.000202506)
(0.122541 0.00031953 -0.000429784)
(0.125401 -0.000375405 0.00012467)
(0.121754 -0.000919383 -0.00027141)
(0.120853 0.000220657 0.00103181)
(0.122317 0.000448538 0.000480505)
(0.12456 3.50286e-05 -0.000252098)
(0.122008 0.000376369 -0.000592784)
(0.121336 0.00101075 -0.00116303)
(0.116681 -0.000423628 0.000609777)
(0.122037 0.000150801 -0.000820767)
(0.122531 4.60204e-05 -0.00070426)
(0.120141 -4.16682e-05 1.94703e-05)
(0.122304 -0.00113483 0.000581627)
(0.127142 0.000298333 -0.000149307)
(0.127278 0.000531641 0.000242543)
(0.124469 0.000305011 -4.86734e-05)
(0.118897 0.000186496 8.41852e-05)
(0.126541 0.000356243 -0.000197755)
(0.126511 0.00028819 -0.00052046)
(0.12438 -0.000389823 -0.000260783)
(0.128215 0.000109034 0.000883937)
(0.12766 0.000150811 -0.000442067)
(0.125488 0.000145479 -0.000445477)
(0.127403 -0.00018201 4.0571e-05)
(0.121755 0.000440264 0.000331402)
(0.124123 -0.000366449 -0.000676008)
(0.117118 0.000200815 -0.00173498)
(0.122393 0.000186404 3.81081e-06)
(0.126644 -0.00123811 0.000489728)
(0.121722 -3.87876e-05 0.00046261)
(0.126979 0.000454638 -0.000196959)
(0.123174 0.000467318 -0.000678808)
(0.124923 -0.00026222 0.000216348)
(0.12573 0.0004313 0.000441099)
(0.127849 -6.24095e-05 -0.000734039)
(0.124091 0.000589093 8.44453e-06)
(0.118036 0.000342545 3.40326e-05)
(0.12322 0.000367272 0.000180786)
(0.119609 0.00180242 -0.000299187)
(0.127058 -0.000447152 -0.000998609)
(0.12336 -0.000615696 -0.000653638)
(0.127106 0.000370807 -0.000549817)
(0.124835 0.000386769 6.99595e-05)
(0.122617 -0.000248902 -0.000444348)
(0.116655 -0.000119758 -1.3422e-05)
(0.119739 -5.12279e-05 -0.00061469)
(0.118427 0.000461342 0.000317455)
(0.116579 -0.000372489 0.00011289)
(0.127364 -0.000338564 -0.000473843)
(0.117009 -0.000524962 -0.000687458)
(0.124131 -0.000425681 0.00034485)
(0.123922 0.000494303 -0.000278586)
(0.12342 7.4117e-05 -0.000204867)
(0.118935 -0.000247034 -0.000360134)
(0.127291 -0.00083135 -9.19661e-06)
(0.123555 0.000139921 -0.000844156)
(0.121182 0.000213751 0.000738374)
(0.127053 7.8585e-05 -0.000415498)
(0.125417 -0.000175414 -6.83138e-05)
(0.119569 0.000556485 0.00050095)
(0.12168 0.00020004 -1.7118e-05)
(0.118747 0.00019154 -2.32413e-05)
(0.123701 0.000270599 -0.000408966)
(0.122029 0.000401434 -0.000187002)
(0.118455 0.000396607 0.000980796)
(0.123914 -2.02849e-05 -0.000262183)
(0.122035 0.00110273 0.000868728)
(0.115938 2.66236e-05 -0.00136438)
(0.115883 0.000296885 0.000242923)
(0.125638 -0.000476177 0.000155998)
(0.126993 0.00011169 -8.91967e-05)
(0.127927 0.000385786 -0.000140402)
(0.117216 0.000475001 0.00053272)
(0.119129 -0.000159304 0.000662088)
(0.126152 0.0001365 0.000436161)
(0.120512 -0.000263312 -0.000295518)
(0.120992 0.000589411 -0.000913887)
(0.125907 0.000672423 0.000228346)
(0.126892 -0.000742156 -0.000116764)
(0.123859 -0.000914882 0.000228324)
(0.127031 -0.0011971 -0.000212557)
(0.128064 0.000179927 -0.000232252)
(0.118414 -0.000176472 -0.000310489)
(0.127505 -0.00144292 -9.67612e-05)
(0.115579 0.000145065 -0.000275411)
(0.117085 -2.96482e-05 -4.5176e-05)
(0.127373 -0.000466951 -0.000322554)
(0.126641 -0.000356767 -0.000224548)
(0.127447 5.28233e-06 -0.000858344)
(0.127933 0.000376918 -0.00116165)
(0.126812 -0.00027691 -0.000898332)
(0.119586 0.00143507 -0.000598257)
(0.121598 -0.00119935 0.000794563)
(0.122304 -0.000228938 -0.000337765)
(0.125353 -0.00107537 0.000172611)
(0.127607 0.00102048 0.000942823)
(0.128303 -0.00096028 0.000389924)
(0.123126 0.000213361 -0.000254416)
(0.120592 -0.00118084 0.000426157)
(0.123051 5.38374e-05 -0.000210931)
(0.12668 -0.000193048 -0.000153213)
(0.126456 -0.000253075 -0.00105847)
(0.122511 9.97864e-05 -0.0002144)
(0.125113 -0.000217119 2.69174e-05)
(0.122496 0.000656199 -0.000722842)
(0.123008 -0.000483092 -0.00043563)
(0.125353 -0.00048787 0.000556707)
(0.120982 -0.00133254 0.00120056)
(0.11838 -0.000102407 -5.78175e-05)
(0.124278 0.000714663 -0.000118938)
(0.125414 0.000108158 0.000693373)
(0.122607 0.00044464 -0.000208573)
(0.12567 0.000401779 0.000450331)
(0.126933 -0.000320334 0.000380432)
(0.123454 0.00012205 -0.000486901)
(0.118932 -3.78874e-06 -0.000572871)
(0.122724 0.000521659 -0.000404839)
(0.12185 0.000516155 0.000607306)
(0.117196 0.000199563 -0.000466042)
(0.126734 -0.00065638 0.000354852)
(0.116756 0.000714475 0.00044509)
(0.125881 -0.000193964 -0.000464032)
(0.127667 -0.000706305 -0.000407515)
(0.117849 -0.000417409 0.000212071)
(0.123619 0.000410639 9.11755e-05)
(0.122032 0.000478468 0.000448758)
(0.117739 -0.000382594 -1.85551e-05)
(0.125293 -0.000208664 -0.000339871)
(0.119236 7.62239e-05 -6.43262e-06)
(0.123633 5.42137e-05 0.000834462)
(0.127269 0.000224883 0.000109731)
(0.125592 0.00020563 0.000113334)
(0.116952 0.000369873 0.000137666)
(0.125966 0.000430077 7.69259e-05)
(0.119059 0.00017487 -0.000426228)
(0.12594 -1.21293e-05 1.80607e-05)
(0.12584 0.000156125 0.000266083)
(0.126434 -4.97944e-05 -0.000676761)
(0.127268 -0.000121489 -0.000575289)
(0.117939 9.51816e-05 -0.000778579)
(0.125523 -0.000547464 3.27389e-05)
(0.117193 9.65309e-05 -0.00056663)
(0.122242 8.71016e-05 -0.000477183)
(0.118163 2.78784e-05 -0.000501255)
(0.128346 -7.03719e-05 -0.000663083)
(0.126776 -6.47605e-06 -0.000617899)
(0.127921 3.04771e-05 -3.25924e-06)
(0.127306 -0.000426198 -0.00061054)
(0.12491 -5.66074e-05 -0.000896745)
(0.127086 0.000681041 0.000585518)
(0.122354 0.000243238 -0.000153289)
(0.124639 0.000442227 -0.000355997)
(0.123288 0.00011827 -0.000407471)
(0.119238 0.000242196 0.000142738)
(0.126353 6.0387e-05 -0.000519247)
(0.124195 -0.000381431 -4.13066e-05)
(0.124427 -5.21299e-05 -0.00034133)
(0.126563 0.000246735 0.000226603)
(0.126307 -0.000129005 -0.000396909)
(0.127021 -3.23829e-05 0.000306064)
(0.123348 -0.000738271 0.000189703)
(0.11743 -0.000178993 0.000732195)
(0.122921 0.000133839 0.000106736)
(0.12571 0.000122635 0.000524964)
(0.124741 -0.000182945 0.000117788)
(0.118055 -0.000669823 -0.000448077)
(0.126841 0.000152922 -0.000366393)
(0.126652 -0.000202184 -0.000917039)
(0.120953 0.000389072 -0.000352845)
(0.125181 -0.000163249 -0.000463729)
(0.1259 -0.000466373 -0.00121821)
(0.125944 -0.000423136 -0.00065602)
(0.125714 -0.000407866 -0.000143251)
(0.117598 -4.34362e-05 -5.04877e-05)
(0.125147 -0.000514637 0.000136424)
(0.125411 -0.000631615 0.000214727)
(0.115738 0.000119517 0.000179188)
(0.12491 -0.00109453 -2.16709e-05)
(0.125038 -0.000371226 -0.000110193)
(0.120919 4.91867e-05 0.000419796)
(0.116545 7.35456e-05 0.000271633)
(0.11621 -0.000531743 0.00064443)
(0.122667 -0.00106931 0.00028184)
(0.116026 0.000789231 -0.000704969)
(0.12288 7.64977e-05 0.00018773)
(0.124051 1.76269e-05 -7.84341e-05)
(0.121774 0.00056169 0.000289304)
(0.125722 0.000379976 0.000230079)
(0.117207 -0.000419823 0.000148343)
(0.125027 0.000356834 0.000104976)
(0.12822 0.000258879 6.95772e-05)
(0.122577 -0.000120831 8.88552e-05)
(0.125752 -0.000169582 0.000693218)
(0.123144 0.000190492 6.20422e-05)
(0.127192 0.0010802 1.74171e-05)
(0.124362 0.000442653 0.000108384)
(0.125172 -0.000322686 -0.000755198)
(0.128257 0.000109005 -0.000421121)
(0.123447 7.99372e-05 -0.000462939)
(0.11791 0.000269482 0.000154481)
(0.122815 2.33214e-05 -0.000141358)
(0.127708 0.000156142 -0.00128122)
(0.126611 0.000224517 -0.000857793)
(0.125853 -0.000304837 0.000775148)
(0.127129 8.50342e-06 8.16944e-05)
(0.12297 -0.000749707 0.000683415)
(0.126449 -0.000227824 0.000265815)
(0.125818 0.00074959 0.000779098)
(0.126389 0.000547829 1.74086e-05)
(0.126328 -0.000238456 -0.000507597)
(0.116453 -0.000433096 -0.000386815)
(0.122607 -0.000301657 0.000240211)
(0.115053 -0.000207358 0.000264308)
(0.1232 0.000699146 0.000822582)
(0.121532 -0.000113617 -0.000727483)
(0.117688 -0.000312337 0.00076593)
(0.11705 -0.000535048 -0.000245871)
(0.124156 0.000390292 -0.000241606)
(0.125095 -0.000444161 -0.000317084)
(0.12701 -1.09671e-05 -0.000574788)
(0.118501 -0.000264611 0.000774077)
(0.126003 6.07832e-05 -2.59776e-05)
(0.123805 -3.64993e-05 0.000352308)
(0.123084 -0.000202398 -0.000457851)
(0.125134 -1.86002e-05 -0.000686595)
(0.115888 -0.0011547 0.00149343)
(0.123064 -0.000115841 -0.000485281)
(0.117221 0.000122802 0.000340453)
(0.121209 -0.000526355 -0.000447317)
(0.126006 -0.000117218 2.48887e-05)
(0.12855 0.00136076 0.000318467)
(0.12614 0.000200005 -0.00113576)
(0.12468 0.00051738 -0.000688027)
(0.116003 0.000306227 0.00156916)
(0.125692 -4.91047e-05 8.39736e-05)
(0.124617 -0.000254311 -0.000560771)
(0.126172 -0.000222558 -0.000335316)
(0.116807 -8.90315e-05 2.0123e-06)
(0.119347 -0.000201222 0.000720165)
(0.121938 0.000476878 0.000674703)
(0.119432 0.000413944 -0.000192193)
(0.115675 -0.000781797 -0.000255003)
(0.126181 -0.000105192 -0.00041366)
(0.119004 -0.000169729 0.000176563)
(0.122057 0.000888295 7.17773e-05)
(0.117432 -0.000291788 -0.00103823)
(0.125654 0.000380242 5.93456e-05)
(0.118117 0.000176156 -0.000395332)
(0.127193 -0.000267599 0.000686367)
(0.125514 6.56347e-05 -0.000476514)
(0.127294 -6.32021e-05 0.000576825)
(0.127317 -0.00016795 -0.000514175)
(0.118604 -4.299e-05 -3.39696e-05)
(0.126445 2.39182e-05 0.000227163)
(0.127726 -0.000335569 -2.21362e-05)
(0.124778 -0.000527118 0.000539188)
(0.125589 0.000564181 -0.000253916)
(0.124684 -0.000454308 -0.000251912)
(0.127053 0.000434109 -0.000136807)
(0.125657 -0.000288852 4.03595e-05)
(0.121654 3.82188e-05 -0.000404025)
(0.12861 -0.00026114 -1.04025e-05)
(0.127978 -0.000424061 -0.00045989)
(0.123706 -0.000336746 -0.000385068)
(0.123282 -0.000239943 -0.000757539)
(0.127064 -0.000396812 -0.000215337)
(0.124147 0.000470698 9.3417e-05)
(0.115876 0.000754004 -0.000173136)
(0.116304 0.000460798 -3.98173e-05)
(0.123267 5.03508e-05 9.73618e-07)
(0.126548 -0.000153571 0.000365656)
(0.127866 -0.000188063 -0.000245026)
(0.121695 -6.96508e-05 4.38873e-05)
(0.126754 0.000679537 0.000282892)
(0.12475 -0.000637106 -0.000377747)
(0.126915 0.000885084 0.000752324)
(0.123827 4.69667e-05 -0.000211493)
(0.124365 0.000593288 -0.000579171)
(0.125231 -0.00163045 0.00035031)
(0.117461 3.68779e-05 -0.000273462)
(0.1232 0.000243733 -4.48851e-05)
(0.125458 -4.97954e-05 -0.000442636)
(0.127329 -2.8018e-05 8.23123e-05)
(0.119172 -1.88091e-05 8.66669e-05)
(0.120142 0.000705092 -0.000920439)
(0.12107 -7.30934e-05 -0.000344555)
(0.121153 -0.000264712 -5.85926e-05)
(0.122823 -0.00020726 -0.000554739)
(0.117172 -0.000132554 -0.000323104)
(0.126444 6.82502e-05 -0.000927951)
(0.122169 -0.000122806 -0.000205872)
(0.125832 0.000139546 0.00117372)
(0.123188 -0.000297747 -6.69214e-05)
(0.127764 -0.000270513 -0.000239063)
(0.12419 -0.000390801 -0.000987333)
(0.11778 0.000174187 0.000603092)
(0.125224 0.000672596 2.02272e-05)
(0.128126 -0.00042344 -0.00106243)
(0.118422 0.000457754 0.00125067)
(0.126975 -0.000230935 -0.000757431)
(0.129103 -0.000792264 -0.000768833)
(0.123933 -0.000145114 -0.000101929)
(0.122205 0.00021115 0.000244216)
(0.125183 0.000826852 -0.001385)
(0.121314 -7.00781e-05 0.000106509)
(0.123388 -0.000492801 0.00012788)
(0.123106 0.000116911 0.000328637)
(0.118193 -0.000190089 -2.8261e-05)
(0.118548 -0.000199589 -0.00115442)
(0.122346 0.000174219 0.00054514)
(0.121464 0.000661908 0.000163173)
(0.126504 -0.000182891 -0.000278275)
(0.12124 -0.000448664 0.000236703)
(0.123151 0.00045833 0.000414422)
(0.127463 0.000273526 0.000451637)
(0.122067 0.000183983 3.76803e-06)
(0.116622 0.000191427 0.000439389)
(0.121488 0.000364539 0.000223188)
(0.123467 0.000444276 -0.000393101)
(0.127902 -0.000172884 0.000304991)
(0.11738 0.000780387 0.000362362)
(0.116992 -0.000127632 0.000330107)
(0.127551 0.000306045 0.000955986)
(0.117507 0.000301024 -7.53779e-05)
(0.124556 -1.60819e-05 -7.69541e-05)
(0.126354 0.000195433 -0.000301176)
(0.119106 -0.000133863 -0.000920582)
(0.123362 -3.7658e-05 -0.000537365)
(0.12719 0.000578544 -0.000955712)
(0.123521 -0.000193149 0.000619257)
(0.115835 9.46392e-05 0.000269209)
(0.126718 0.000294254 -0.000256153)
(0.123772 -9.95485e-05 -0.000183244)
(0.116164 0.000570702 0.000128105)
(0.127161 0.000318581 -0.000276519)
(0.12157 -0.000209652 -0.000381178)
(0.122872 0.000678015 -0.000338845)
(0.125391 9.55594e-06 -0.000204853)
(0.116314 0.000862185 -0.000455942)
(0.122418 -0.00014343 -0.0010686)
(0.122129 -0.000998047 -0.000104956)
(0.123866 -0.000116406 -0.000515741)
(0.119218 -0.000378771 0.000422597)
(0.120862 -0.000315578 -0.000200255)
(0.125309 0.000476565 0.000601245)
(0.127921 -0.0010392 -0.000711323)
(0.129582 -0.000378817 -0.000208571)
(0.127965 0.000584558 -0.000494951)
(0.126979 -0.000667191 -0.000197184)
(0.126164 2.50015e-05 -0.00125283)
(0.120859 -0.000274243 0.000552316)
(0.128576 0.000113969 -0.00122293)
(0.12625 -4.30808e-05 7.81122e-05)
(0.125002 0.000459971 0.000143883)
(0.119346 0.000770202 -0.000444867)
(0.124041 -0.000142117 -0.000214658)
(0.12562 0.000558008 0.000631056)
(0.129364 0.000917553 -2.263e-06)
(0.117232 -0.000199417 0.000368978)
(0.115837 -0.000331528 0.000449549)
(0.127063 0.000324401 -0.000657678)
(0.121434 4.8167e-05 -0.00028853)
(0.127432 0.000142321 -0.000173502)
(0.122513 0.0003275 -0.000564664)
(0.119157 -0.000459667 -0.000872512)
(0.12525 -0.000199637 -0.000931737)
(0.126818 0.000410466 4.39607e-05)
(0.12492 0.000262932 0.000159864)
(0.126452 0.001081 -0.000341697)
(0.117999 -0.000101845 -0.0018677)
(0.126473 0.000887365 0.000190051)
(0.126294 -0.000468164 -0.000480406)
(0.116723 0.00038747 -0.000142801)
(0.125722 -0.000229745 -0.000538928)
(0.125541 -0.000243587 5.05025e-05)
(0.122909 -0.00071924 0.00130444)
(0.118366 -0.000578404 -0.00102644)
(0.116529 0.000274365 -0.000919995)
(0.123226 0.000272567 -0.000250914)
(0.122855 -1.82194e-05 0.00101773)
(0.123718 -0.000159757 0.000192605)
(0.122792 0.000610833 8.90914e-05)
(0.122196 0.00052013 0.000824227)
(0.126627 8.7073e-05 0.000184117)
(0.123896 -8.33006e-06 0.0003339)
(0.12406 0.000515834 0.000336332)
(0.119402 -0.00026874 0.000724068)
(0.127793 -5.97593e-05 -0.00106227)
(0.117534 -0.000229625 8.30709e-05)
(0.123341 0.000621858 -4.43781e-05)
(0.122784 0.00021942 -0.000164508)
(0.123501 -0.000706822 -0.000831113)
(0.125601 0.000513027 -0.000201285)
(0.121677 7.77566e-05 -0.00052338)
(0.117736 -0.00099432 -0.000533305)
(0.116641 -0.000255618 -0.000662243)
(0.118242 -0.000341111 -0.000344932)
(0.123155 -0.00055308 -0.000360685)
(0.12559 0.000736504 0.000235645)
(0.117553 0.000560923 0.00203622)
(0.126515 -0.000151081 2.06433e-05)
(0.123954 -5.84003e-05 -0.00090427)
(0.127273 -0.000450687 -0.000376675)
(0.117095 0.000148212 -0.000770533)
(0.121196 0.000346903 0.000622992)
(0.125808 0.000299161 -0.00107878)
(0.127698 -0.0010566 -7.17178e-05)
(0.125669 0.000446996 -0.000405853)
(0.126849 -0.000214805 -0.000292009)
(0.123992 0.000203708 0.000149851)
(0.123141 0.000333446 0.000189868)
(0.128103 7.69455e-05 0.00015589)
(0.127785 0.000503014 -6.60865e-05)
(0.127286 0.000272285 1.03357e-05)
(0.119745 0.00106274 -0.000542768)
(0.127493 -0.000982214 -0.000742931)
(0.116635 -0.000224923 0.00049382)
(0.127542 0.000767504 0.000144058)
(0.12446 -5.98273e-05 -0.000157675)
(0.123475 0.000373322 -0.000655162)
(0.118151 0.00108039 -4.89899e-05)
(0.123229 0.00115094 -0.000906991)
(0.115336 -0.000614601 -0.00112033)
(0.126715 0.00054297 -0.000730433)
(0.123924 0.000267548 -0.000268666)
(0.126589 -0.000193876 -0.000304863)
(0.122866 0.000524965 -0.000123417)
(0.121778 0.00118595 -0.000385059)
(0.117543 -0.000351518 0.00084587)
(0.128418 0.000337845 -0.00012053)
(0.119069 -0.000611182 0.000412189)
(0.115721 -0.000292761 -0.000312927)
(0.11888 -0.000136819 -8.55796e-05)
(0.119119 0.000604492 0.000300953)
(0.117654 0.000657399 -9.39237e-05)
(0.1233 -0.000358001 8.02721e-05)
(0.117944 0.000116755 -0.000163809)
(0.125543 -0.00127538 0.000693233)
(0.12605 4.54687e-05 -0.000419417)
(0.115601 -0.000143716 -9.43756e-05)
(0.125421 0.000155299 -0.000212117)
(0.117745 0.000185985 -0.00075827)
(0.122965 0.000547808 -0.000278481)
(0.123619 0.0002611 -0.000272685)
(0.123463 -0.000430014 -0.000985111)
(0.12629 0.00017376 -1.03089e-05)
(0.128294 0.000380576 -0.000914348)
(0.126482 -7.35954e-05 0.000248084)
(0.125389 1.81472e-05 -1.38185e-05)
(0.12511 -0.000287202 -0.00118625)
(0.125761 0.000266975 0.000112229)
(0.122621 0.000458205 -8.81431e-05)
(0.12324 0.000518654 0.000277577)
(0.116335 0.000504052 -0.000920392)
(0.110971 -0.000269192 0.00328126)
(0.126813 9.34392e-05 -8.5786e-06)
(0.123194 9.38585e-05 -0.000218784)
(0.126306 -0.000319305 -0.000100934)
(0.12583 -0.000118094 0.000303846)
(0.117078 -0.000635634 -4.37519e-05)
(0.126893 -0.000139306 -0.000191262)
(0.127116 0.000615006 0.000162184)
(0.126888 3.50767e-05 0.000195637)
(0.126743 0.000472127 0.000596061)
(0.124926 0.000340685 0.000474886)
(0.12438 -0.000565885 -0.000117425)
(0.126566 -0.000112078 0.000238345)
(0.127829 -0.000167611 0.000708742)
(0.124488 0.000263477 0.000333071)
(0.127401 0.000403972 -0.000307461)
(0.126935 -0.000435515 -0.000434775)
(0.119645 -0.000328037 -0.000488972)
(0.126785 -9.05028e-05 0.000284356)
(0.120504 -0.000304373 0.000522548)
(0.124069 0.000591604 -0.000277092)
(0.123474 -0.000965688 0.000153736)
(0.122994 -0.000534277 0.00038464)
(0.122767 0.000790304 0.000165872)
(0.1258 0.000404407 3.91609e-05)
(0.123439 -9.07169e-05 -0.000227694)
(0.124197 0.000534364 -0.000713632)
(0.123034 0.00128001 -0.000676368)
(0.116854 0.00153696 -0.00108881)
(0.128168 0.000578154 -0.000295566)
(0.125919 0.000706252 -0.00013122)
(0.122733 7.71768e-05 0.000830388)
(0.117453 -0.000305331 1.40906e-05)
(0.126004 -0.000367684 -2.37446e-05)
(0.1172 -0.000596002 -0.000510146)
(0.12704 -0.000301535 0.00021884)
(0.126899 -7.4172e-05 0.00024396)
(0.121612 0.00132142 -0.000635663)
(0.124932 -0.000671011 -2.32363e-05)
(0.127574 0.000108807 -0.000406638)
(0.124439 -0.00052758 -0.000314094)
(0.116444 9.4562e-06 0.000295039)
(0.123382 0.000212467 0.000514547)
(0.120412 0.000502426 -0.000328795)
(0.123241 0.000357284 -0.000371711)
(0.117073 -0.000529855 -0.00096185)
(0.125972 -2.71754e-05 -0.000434927)
(0.126262 -0.000423294 0.000731182)
(0.121442 0.00095528 -0.000750021)
(0.12305 0.000192743 3.44064e-05)
(0.120335 0.00031759 -0.000640553)
(0.12646 1.84282e-05 -0.000433295)
(0.122901 -0.000770276 3.92894e-05)
(0.12366 0.000637863 0.00054074)
(0.117489 -0.000163527 0.000138298)
(0.126508 1.11612e-05 6.21656e-05)
(0.124884 -0.000380816 -0.00012514)
(0.126703 -7.52184e-05 -0.000205659)
(0.120419 0.000394622 -0.000282143)
(0.122928 -4.90137e-05 -0.000302173)
(0.124153 9.22904e-05 -0.00025804)
(0.121864 -0.000280014 0.000327753)
(0.124619 -7.83626e-05 0.000458963)
(0.124331 -0.000463095 0.00049804)
(0.126069 -0.000382753 0.000144745)
(0.123259 -7.72527e-05 -0.000135758)
(0.118116 -7.13604e-05 -0.000176096)
(0.115908 -0.000166009 -0.000770948)
(0.12475 -0.00078078 0.000238987)
(0.116858 0.000506236 -0.00146829)
(0.121622 -0.00073261 -0.00158661)
(0.12329 0.000262838 -0.000349171)
(0.12344 0.000286924 0.000177516)
(0.127664 0.000318079 -0.000436597)
(0.116729 0.000117887 8.46458e-05)
(0.122165 -0.00012138 -0.000708276)
(0.128196 0.000129062 -0.000465511)
(0.118698 0.000766169 -0.00296488)
(0.118858 0.00134489 8.28525e-05)
(0.122745 0.000372686 -0.000879336)
(0.118556 0.000264544 2.31052e-05)
(0.125457 0.000994469 -0.00114114)
(0.118947 -0.000353854 1.41435e-05)
(0.127631 -0.000865035 -0.000458958)
(0.12104 0.000334362 0.00038872)
(0.122392 0.000715745 0.000502969)
(0.128779 0.000525206 0.000962649)
(0.11598 -5.70847e-05 0.000611976)
(0.120962 5.69921e-05 0.000414332)
(0.121136 4.90329e-05 0.000645467)
(0.126651 -4.51019e-05 -0.000787728)
(0.126779 -9.88295e-06 0.00047456)
(0.127217 2.36362e-05 -6.5095e-05)
(0.117788 0.000844443 0.000342254)
(0.125682 0.000177662 -0.000108036)
(0.126384 6.28204e-05 0.00105367)
(0.121398 0.000848149 -8.92478e-05)
(0.126657 0.000370559 -0.000121936)
(0.126266 0.000544195 0.000224477)
(0.126018 0.000400026 4.53125e-05)
(0.127233 0.000182058 -0.000644997)
(0.123071 0.000107859 -0.000109196)
(0.128088 -2.77461e-05 0.000518695)
(0.127802 0.00074097 0.000952695)
(0.126863 0.000100263 -0.00091989)
(0.124418 0.000437675 0.000307077)
(0.122508 -0.000240897 -0.00018257)
(0.123207 0.000481026 0.000176161)
(0.122913 0.000213296 -0.000256455)
(0.116021 -0.000962804 -0.000300682)
(0.122145 -2.80894e-05 0.000242224)
(0.124703 -0.000357622 0.000323997)
(0.126564 -0.000398266 -0.0002618)
(0.127648 -0.000277641 -0.000932074)
(0.122314 -0.000524686 -9.46348e-05)
(0.128092 0.00120299 -0.000297004)
(0.125648 -0.000106549 -0.000100843)
(0.121384 -0.000674442 0.000427727)
(0.126766 -0.000223838 -0.000443756)
(0.127018 -2.08732e-05 -0.000210351)
(0.125841 0.000150811 -0.000678765)
(0.12575 0.00030502 -1.36975e-05)