/*--------------------------------*- C++ -*----------------------------------*\
| =========                 |                                                 |
| \\      /  F ield         | OpenFOAM: The Open Source CFD Toolbox           |
|  \\    /   O peration     | Version:  2212                                  |
|   \\  /    A nd           | Website:  www.openfoam.com                      |
|    \\/     M anipulation  |                                                 |
\*---------------------------------------------------------------------------*/
FoamFile
{
    version     2.0;
    format      ascii;
    arch        "LSB;label=32;scalar=64";
    class       surfaceVectorField;
    location    "0.064";
    object      Uf;
}
// * * * * * * * * * * * * * * * * * * * * * * * * * * * * * * * * * * * * * //

dimensions      [0 1 -1 0 0 0 0];

internalField   nonuniform List<vector> 
68568
(
(0.125169 0.000162751 -0.000122832)
(0.124324 0.000540022 -0.000248416)
(0.123969 0.000327463 -3.76856e-05)
(0.126904 0.00078486 -0.00041428)
(0.124189 -0.000507665 -0.000205131)
(0.12421 -0.000526765 -0.000491532)
(0.12274 -0.000529811 6.99121e-05)
(0.115507 -0.000290668 -0.000257609)
(0.125848 0.000228711 0.00032402)
(0.125596 -0.000491134 0.000713153)
(0.123869 -0.000242805 -4.33788e-05)
(0.119148 -0.00070072 0.000763435)
(0.128429 -0.00019335 -0.000172858)
(0.127145 -9.07147e-05 -0.00048271)
(0.128117 -0.000152238 -0.000350749)
(0.128574 -0.000253673 -0.000374555)
(0.122426 -0.000211331 -0.000261931)
(0.12579 -0.000518818 -0.000300387)
(0.121684 -0.000242985 -0.000289904)
(0.125391 -0.00052686 -0.00035888)
(0.124912 -0.000270978 -3.99757e-05)
(0.123124 -0.000156659 0.000133076)
(0.125191 -0.00016699 0.000156582)
(0.116943 -0.000173389 -0.000321302)
(0.124222 -8.46198e-05 -0.000111234)
(0.118911 -0.00025117 0.000263502)
(0.121084 2.59103e-05 -0.000455961)
(0.124334 -0.000144938 -0.000197437)
(0.124017 0.00021853 0.000564937)
(0.126597 8.4797e-05 0.000160427)
(0.125171 -8.35678e-05 8.81704e-05)
(0.125679 -0.000158561 -0.000380166)
(0.124218 0.000158603 -0.000246262)
(0.124327 0.000388131 -0.000643127)
(0.126494 -0.00025545 -5.45042e-05)
(0.124803 -0.000647827 -0.000314301)
(0.12696 -0.00017827 -0.000540608)
(0.127161 -0.000606468 -0.000382259)
(0.127364 0.000462785 0.000147673)
(0.125772 0.000295028 -7.06925e-06)
(0.127205 0.000277569 -5.89192e-05)
(0.122863 -0.000106455 -0.000534388)
(0.127583 -0.000431178 -0.000772689)
(0.127099 -0.00060586 -0.00068732)
(0.124296 -0.000359469 0.000112763)
(0.123025 -0.000595264 -5.62881e-07)
(0.115988 -5.30984e-05 -0.000339808)
(0.126941 -0.000212522 -8.72859e-05)
(0.126742 -0.000175274 0.000336697)
(0.125732 -0.00024548 0.000264353)
(0.123632 -7.9337e-05 0.000231008)
(0.121754 -0.000392757 8.19935e-05)
(0.123759 -0.000321958 -4.90547e-05)
(0.122859 -0.000288325 4.59057e-05)
(0.115707 -0.000332136 2.71332e-05)
(0.124519 -0.0004676 0.000871108)
(0.119103 -0.000439637 0.000632732)
(0.121114 -0.000437337 0.000820004)
(0.124962 -0.000354092 0.000264476)
(0.123653 0.000276342 0.000149991)
(0.124852 0.000476554 0.000153031)
(0.124208 0.000453203 0.000115222)
(0.126162 0.000257277 4.6347e-05)
(0.119068 0.000507331 0.000422316)
(0.119231 -0.000310772 0.000649384)
(0.123806 -3.34715e-05 0.000219783)
(0.12418 -0.000127617 -0.000610935)
(0.120994 -0.000571402 -3.32443e-05)
(0.119726 -1.86566e-05 -0.000729911)
(0.124685 -0.000333145 -0.000344871)
(0.123951 1.74026e-05 -0.000223284)
(0.125815 -0.00031837 -9.14071e-05)
(0.125289 -0.000512785 -3.21417e-06)
(0.118566 -0.000107928 -0.000168473)
(0.118279 -0.000257683 -0.000368354)
(0.120296 5.59197e-05 -0.000315)
(0.118739 0.000238546 -0.000340068)
(0.106262 -0.00020872 -0.000454947)
(0.126051 -0.00046794 -0.000559217)
(0.127725 -0.000218344 -0.000662075)
(0.126702 -0.000355698 -0.000655212)
(0.12723 -0.000387213 -0.000769285)
(0.126376 0.000335284 -0.000205107)
(0.126507 0.000473431 -9.32976e-05)
(0.123882 0.000460793 3.73918e-05)
(0.127369 0.000511466 -0.000221972)
(0.120306 0.000363939 -0.00033504)
(0.120773 -9.1537e-05 -0.000339629)
(0.123953 0.000176948 -0.000502334)
(0.124419 9.57477e-05 -0.000126855)
(0.117927 -8.29035e-05 3.90147e-05)
(0.122962 -0.000216825 -0.000147199)
(0.120101 0.000160983 -0.000576822)
(0.122969 -0.000235061 0.000253487)
(0.12361 -8.17332e-05 -6.05738e-05)
(0.123603 -0.000566215 0.000202966)
(0.125983 -0.000389232 0.000863506)
(0.123551 -0.000154804 -0.000381514)
(0.125249 -0.000227782 -0.00025107)
(0.118024 -0.000176638 0.000240055)
(0.125875 0.00161612 0.000383815)
(0.123215 0.00188394 -0.000443111)
(0.125429 0.001871 0.000227896)
(0.12341 0.00146597 -0.000697256)
(0.125195 5.60006e-05 0.00054339)
(0.118077 0.00035385 -0.000262728)
(0.120255 0.000489215 0.00021909)
(0.127172 -6.34512e-05 0.000453547)
(0.1262 -0.000295248 0.000353843)
(0.127301 -0.000229505 0.000432422)
(0.127724 -0.000317609 -0.000159151)
(0.125496 -6.70187e-05 5.91562e-05)
(0.127921 -0.000258 -0.0001532)
(0.124904 -0.000146527 -0.000155854)
(0.123662 -0.00011555 -0.000292532)
(0.123796 -0.000127504 -0.000458846)
(0.119424 0.000405348 -0.000157584)
(0.118862 -0.000282738 0.000304385)
(0.126586 0.000367169 -0.00045103)
(0.125762 1.0883e-05 -0.000237657)
(0.126932 1.535e-05 -0.000426653)
(0.127305 -1.85184e-05 -0.000202403)
(0.120433 -0.000121572 -0.000226414)
(0.11908 -0.000225169 0.000153206)
(0.124339 -0.000185439 6.83502e-05)
(0.124597 2.87471e-05 0.0001659)
(0.120718 0.000476532 0.000631864)
(0.118107 0.000434427 0.000636826)
(0.118134 0.000336988 0.000198841)
(0.107351 0.000215638 0.000594867)
(0.127061 0.000442428 3.40825e-05)
(0.117797 -0.000127791 -0.000135827)
(0.118137 -0.000617027 -0.000297946)
(0.115227 -0.000333612 7.06091e-05)
(0.106462 -0.000382284 -7.55009e-05)
(0.127621 -0.000523961 0.000271629)
(0.127661 -0.000673113 0.000152851)
(0.127892 -0.000262032 0.000438461)
(0.127109 -0.000703833 0.00025087)
(0.125029 -0.000273389 0.000340483)
(0.125152 -0.00037089 0.000591666)
(0.126951 -0.000425354 0.000639801)
(0.116545 0.000638311 -0.000590536)
(0.117979 -0.000368395 -0.000138406)
(0.107681 4.01414e-05 -0.000156295)
(0.122017 -0.000135396 -6.9331e-05)
(0.11893 -0.000116429 -0.000372758)
(0.10765 0.000121972 -0.000515729)
(0.120229 -0.000298962 3.38491e-05)
(0.120246 -0.000590266 -0.000202395)
(0.121421 -0.000533872 -0.000192205)
(0.106984 -0.000379165 5.8641e-05)
(0.126715 -0.00031528 0.000220786)
(0.124203 -0.000302592 0.000119676)
(0.126213 -0.000420762 -0.00053791)
(0.12738 -0.000950668 -0.000413358)
(0.125773 -0.000818432 -0.000796334)
(0.127657 -0.000636544 -0.000902263)
(0.126623 -0.000610475 0.000589515)
(0.127109 -0.000808484 0.000199574)
(0.126421 -0.000416475 0.00033968)
(0.127832 -0.000708365 -0.000194481)
(0.126098 -0.00078964 1.15149e-06)
(0.125374 -0.000458093 -0.000308546)
(0.127708 -0.000320288 -0.000518193)
(0.122952 7.65679e-05 -0.000342764)
(0.120702 0.000705919 -0.000501204)
(0.114365 -5.54038e-06 -0.000388945)
(0.124984 0.000434148 -0.000432744)
(0.125364 1.85607e-05 -0.000332979)
(0.122213 0.000289678 -0.000733134)
(0.1206 0.000160102 -0.000198954)
(0.123218 -0.000198318 0.000294386)
(0.122948 4.86724e-05 6.96004e-05)
(0.125485 5.00093e-05 -0.000268904)
(0.124173 -0.000185765 0.000151163)
(0.127034 -0.000129914 -0.000304425)
(0.12524 -0.000369665 -0.000598751)
(0.125527 -1.91528e-05 -0.000504296)
(0.127638 5.52514e-05 -0.000933632)
(0.128133 -0.000174428 -0.000446772)
(0.120819 -0.000420203 -0.000606391)
(0.118026 -1.53642e-05 -0.00029555)
(0.118994 -2.93348e-05 -0.000184721)
(0.105777 -4.26128e-05 -0.00039753)
(0.125868 0.000845133 0.000173139)
(0.124893 0.000714673 0.000276225)
(0.126713 0.000896503 0.000153624)
(0.126171 0.000651423 2.67117e-05)
(0.117402 -0.000584939 0.000192225)
(0.107275 -0.000201709 0.000502439)
(0.121725 -0.000236951 -0.000290283)
(0.121616 -0.000525173 -1.31292e-05)
(0.125457 -0.000309688 -0.000346612)
(0.125518 -0.000414829 -7.88958e-05)
(0.122738 0.000310218 5.05919e-05)
(0.123533 0.000124937 5.08652e-05)
(0.125764 -5.6791e-05 -0.000257674)
(0.120244 -0.000117261 -0.000688705)
(0.118648 -9.86375e-05 -0.000271921)
(0.120488 0.000149147 -2.63262e-05)
(0.106995 0.00037833 -0.000147823)
(0.125839 0.000124543 0.000516463)
(0.125264 -0.00026431 0.000145686)
(0.123915 -2.38782e-05 0.000468627)
(0.118602 -9.8983e-06 0.000392076)
(0.125329 -0.000243065 0.000218122)
(0.123753 9.56376e-05 0.000520985)
(0.125316 -7.46017e-05 -7.47741e-06)
(0.117294 0.000107157 0.000299929)
(0.117668 7.28792e-05 -0.000186444)
(0.117911 0.000565152 -0.000181706)
(0.10793 0.000246175 -0.000140867)
(0.124292 -0.000582435 -0.000562552)
(0.123932 -5.55378e-05 -0.000396256)
(0.124193 -0.000187996 -0.000210954)
(0.126534 0.000371168 2.38424e-05)
(0.124911 0.000456147 4.84192e-05)
(0.127331 0.000150474 -0.000239315)
(0.125657 0.000219278 -0.000313515)
(0.124037 -0.000278398 -0.000380363)
(0.120773 -0.000366751 -0.000510527)
(0.120777 -0.000349015 -0.000268378)
(0.107993 -0.000395441 -0.000164562)
(0.125165 -0.00018993 -0.000191263)
(0.125248 -7.31599e-05 7.19565e-05)
(0.116391 -9.16057e-05 -0.000310421)
(0.123942 0.000288229 0.000242088)
(0.124228 0.000505121 0.000455351)
(0.125923 0.000560165 0.000520864)
(0.124372 0.000591214 0.000584405)
(0.127611 -0.00020655 -0.000622609)
(0.127981 -0.000248132 -0.000512036)
(0.12782 -0.00039279 -0.000454038)
(0.127262 -0.000306319 -0.000377851)
(0.123357 0.000162344 -0.00112613)
(0.125961 1.70173e-05 -0.000948508)
(0.126705 -0.000457041 -0.00074886)
(0.123478 -0.000508583 2.09673e-05)
(0.125124 -0.000267979 4.31543e-05)
(0.123397 -0.000116395 0.000293222)
(0.11763 -1.74534e-05 -0.000246496)
(0.120574 -0.00102573 -0.00059001)
(0.121383 0.000331162 -0.000501537)
(0.107116 -9.91955e-05 -0.00045525)
(0.127483 0.000302693 8.23274e-05)
(0.12793 0.000258897 -0.000316105)
(0.127548 3.78196e-05 -8.07695e-05)
(0.128194 7.20627e-05 -0.000496711)
(0.126444 0.000256341 0.000183878)
(0.123947 0.000291379 0.000306852)
(0.125421 0.000102476 0.000340002)
(0.125497 0.00016389 -1.64834e-05)
(0.121084 0.000370843 -0.00127754)
(0.120365 0.00039266 -0.000619521)
(0.122287 0.000299337 -0.000880867)
(0.110839 -0.000537447 -0.000908718)
(0.1243 -0.000263297 -0.000662997)
(0.1244 -0.000272775 -0.000875974)
(0.126867 -0.000306295 -0.000442666)
(0.126407 -0.000248866 -0.000612335)
(0.125884 -0.000319554 -0.000186143)
(0.123873 -0.000488862 -0.000368781)
(0.12392 -5.00234e-05 -4.96369e-05)
(0.118013 2.13962e-05 -0.000645171)
(0.126059 0.000844065 0.000362965)
(0.125613 0.000901082 0.000131214)
(0.124652 0.000713312 -2.82025e-06)
(0.118341 0.000111409 -0.000666759)
(0.117676 0.000311017 -0.000376695)
(0.119715 0.000409187 -0.000596292)
(0.106295 0.000508154 -7.69365e-05)
(0.126489 -0.000635001 -9.42935e-05)
(0.126066 -0.000609834 0.000200148)
(0.127919 -0.000491676 8.85762e-05)
(0.121336 0.00111138 -0.000580843)
(0.125335 -2.71971e-05 -0.000424796)
(0.124627 0.000140759 -0.000425219)
(0.123374 -0.000371119 0.000567252)
(0.123902 -7.13515e-05 0.000307493)
(0.124364 -6.31177e-05 0.000428086)
(0.116503 -0.000198615 0.000388462)
(0.120533 -0.000285873 -0.000149415)
(0.126363 -9.49165e-05 0.000147297)
(0.123774 0.000151082 0.000144198)
(0.126303 0.000401886 -4.00487e-05)
(0.11868 0.000294022 -0.000387264)
(0.123336 -0.000176005 -0.000168322)
(0.123624 -0.000105427 -5.74328e-05)
(0.115035 -0.000234669 -0.000363928)
(0.116323 -0.000225289 0.000261711)
(0.115978 -0.000492202 0.000123296)
(0.107229 -0.000352716 0.000151867)
(0.127907 -0.000125421 0.000198026)
(0.125616 -0.000214721 -0.000124393)
(0.127782 -0.000450731 0.000189169)
(0.126781 -0.000626227 0.000246623)
(0.126311 -0.000515946 -0.000354911)
(0.12577 -3.64168e-05 -0.000202765)
(0.125545 -5.95123e-05 -0.000333784)
(0.116969 -0.000139694 2.20848e-06)
(0.123189 -0.000401765 -4.95876e-05)
(0.125556 -0.000421277 -8.35586e-05)
(0.126229 -0.000234835 -0.000148312)
(0.123128 -5.08159e-05 0.000185699)
(0.127677 -0.000348838 -0.000178183)
(0.125312 -0.000276513 -0.000330662)
(0.125492 -5.14625e-05 -6.01856e-06)
(0.127617 -0.00041313 -8.15313e-05)
(0.127671 -8.33947e-05 0.000207569)
(0.127189 -0.000349358 2.7967e-05)
(0.128068 -0.000300109 -0.000159112)
(0.125484 -0.000185912 -0.00026464)
(0.125148 -0.000307894 -0.000508776)
(0.12746 -0.000136197 -0.000628208)
(0.117991 0.00146123 -0.000990143)
(0.121923 5.31408e-05 -0.00143489)
(0.120497 0.000543308 -0.000904351)
(0.104466 -2.20851e-05 -0.000285047)
(0.126127 -0.000103423 -0.000278587)
(0.12604 -0.000223066 -0.000346996)
(0.127644 -0.000121455 -0.000581441)
(0.124251 -0.000336418 0.000212285)
(0.126254 -0.000261137 2.55421e-05)
(0.116939 -0.000115475 -0.000122218)
(0.121024 -0.000342133 -4.60847e-05)
(0.12039 9.32205e-06 -2.48373e-05)
(0.124487 -0.00036645 0.000248896)
(0.124273 -0.000423706 -0.000220013)
(0.119738 -0.000405715 -0.00114556)
(0.120397 -0.000592721 -0.000237604)
(0.105937 -0.000371434 -0.000240952)
(0.121114 0.000639565 -0.000873357)
(0.1233 0.000444467 -0.00102288)
(0.115404 -0.000236088 -0.000489703)
(0.119791 -0.000655439 -9.97929e-05)
(0.123725 -0.000748707 -0.00019143)
(0.119353 -0.000489419 -0.00051646)
(0.123482 -0.000479082 -0.000271658)
(0.125073 0.000278323 0.000262177)
(0.124839 0.000714492 8.56175e-05)
(0.122489 0.00101495 0.000775757)
(0.118472 0.00046433 0.00053197)
(0.122724 0.000227211 -0.000328816)
(0.12378 -9.8755e-05 -0.000290402)
(0.126171 0.000191665 -0.000173265)
(0.126372 -0.000334831 -8.00566e-05)
(0.12584 -0.000302648 -1.46944e-05)
(0.116737 -0.000264001 5.40468e-06)
(0.123207 4.46278e-05 0.000474444)
(0.122596 0.000365568 0.000402489)
(0.124375 3.27719e-05 0.000375782)
(0.116294 1.4521e-05 -9.1638e-05)
(0.119351 -0.00121569 8.44235e-05)
(0.119799 -0.000562914 -0.000105394)
(0.118595 -0.00136587 -0.000519613)
(0.106401 -0.000963512 0.000114269)
(0.125143 -0.000287034 -0.000517253)
(0.125643 7.06013e-05 2.62709e-05)
(0.122816 0.000752998 -0.000963662)
(0.125597 4.10926e-05 -0.000600228)
(0.124794 0.00014892 0.00028649)
(0.12378 -0.000216339 -0.000905435)
(0.123142 0.000321896 -0.000810831)
(0.121462 -0.000560639 -0.000409214)
(0.116017 -8.66384e-05 -0.00011495)
(0.117896 -2.30269e-05 -0.000216287)
(0.120102 -0.000408129 -0.0003868)
(0.119038 0.000177885 -0.000408934)
(0.106866 -4.64353e-05 8.07979e-05)
(0.120599 -3.14444e-05 -0.000320437)
(0.106189 5.55605e-07 -0.000334426)
(0.125641 -0.000481641 -5.10173e-05)
(0.127901 -0.00026395 0.000260805)
(0.12799 -0.000330294 -0.000149048)
(0.108431 -3.49013e-05 0.000274742)
(0.11882 -0.000769369 -0.000746889)
(0.120263 -0.000588851 -0.000273467)
(0.119678 -0.0010796 -0.000734931)
(0.105566 -0.000411134 -0.00107126)
(0.118682 0.000637393 -0.000267197)
(0.122811 0.000342779 -0.00012277)
(0.117943 -0.000711036 0.000763577)
(0.116496 -0.000327927 0.000349233)
(0.118763 -9.98202e-05 0.000760965)
(0.106564 -0.000613084 0.00031832)
(0.12617 -0.0014013 0.000474574)
(0.123255 -0.00144859 0.000786224)
(0.123755 -0.00138292 0.000612512)
(0.126017 -0.00136766 0.000290432)
(0.122228 -0.000485046 -0.000704847)
(0.120836 -0.000389469 -0.000234086)
(0.119734 -0.00018724 -0.000273257)
(0.106041 0.000150877 -0.000335894)
(0.125014 0.000507617 5.93608e-06)
(0.123762 0.000350295 -5.8181e-05)
(0.124512 -0.00032588 1.87191e-05)
(0.118428 0.000271056 -0.000281855)
(0.120818 -0.000547922 -0.000465753)
(0.12078 -0.000553509 -0.000635497)
(0.124211 -0.000615855 -0.000591163)
(0.125079 -2.10609e-05 -0.000807957)
(0.124855 6.70957e-05 -0.000840342)
(0.123463 -4.32977e-05 -0.000870075)
(0.116014 0.000347445 -0.000928168)
(0.11971 -6.60459e-05 7.64929e-05)
(0.117679 -0.000422054 7.42057e-05)
(0.118779 -0.000619857 0.000471846)
(0.106331 -0.000441007 -7.76898e-05)
(0.124797 0.000790126 0.00168869)
(0.120589 0.000374394 -0.000256875)
(0.120389 -0.00033913 -2.68553e-05)
(0.124765 -0.000869579 -0.000127964)
(0.120486 -0.000566839 -5.62804e-05)
(0.124544 -0.000822353 0.000207058)
(0.124975 0.000212818 0.000359641)
(0.124392 0.000186076 0.000232612)
(0.124809 0.000166107 0.000145362)
(0.124908 4.83137e-05 0.00018422)
(0.125133 -0.000346322 -0.000110312)
(0.117454 -0.000341716 4.46652e-05)
(0.124231 -0.00028842 -0.000477643)
(0.12481 0.000100244 -0.000658299)
(0.126394 0.00020796 -0.000393759)
(0.123574 -0.000184062 -0.000165486)
(0.124236 -0.000293091 0.000282898)
(0.12636 -0.000127591 8.95024e-05)
(0.127221 -0.000308096 4.97382e-05)
(0.125011 -0.000100519 -0.000609639)
(0.12489 -0.000101603 -0.000484119)
(0.127654 -6.74137e-05 -0.000610165)
(0.123926 0.00028285 -0.000510116)
(0.126081 0.000241864 -0.0003708)
(0.126552 -0.000341568 -0.000747664)
(0.121991 -0.000894707 -0.000229325)
(0.127411 -5.51881e-05 -0.000665915)
(0.12479 -0.000630225 0.000312529)
(0.126669 5.39097e-05 0.00053035)
(0.126492 -0.000172543 0.00023582)
(0.126684 -0.00041927 0.000259044)
(0.124373 5.79272e-05 0.000286732)
(0.125252 -0.000210466 0.000400734)
(0.116211 -5.92659e-05 0.000197446)
(0.118764 -0.000105991 -0.000623959)
(0.118815 -0.000391131 -0.000244221)
(0.119593 -0.000841119 -0.000433721)
(0.123416 -0.000767885 -0.00049003)
(0.124149 -0.00058863 -0.000502438)
(0.124601 -0.000427941 0.00035673)
(0.124327 -0.00034756 0.000112193)
(0.127167 -0.0002849 -0.00019639)
(0.127092 -0.0002448 0.000154965)
(0.126226 0.00015708 -0.000119422)
(0.124667 -0.000127359 -0.000235783)
(0.124113 0.000303824 0.000169101)
(0.1262 0.000477168 0.000265161)
(0.125582 0.000214377 -0.000448757)
(0.127356 -0.000187579 -0.000801567)
(0.12627 -4.8759e-05 -0.000326601)
(0.12721 -0.000331326 -0.000660662)
(0.125611 -0.000581452 -7.95659e-05)
(0.124315 -0.000476675 -3.03412e-05)
(0.122893 -0.00117307 0.00020753)
(0.126134 -0.000884284 0.000100053)
(0.125739 -0.000126538 9.85213e-05)
(0.121533 -0.000145852 -0.000349887)
(0.126625 -0.000205152 5.93013e-05)
(0.121427 0.000126136 -0.000747032)
(0.126871 1.96325e-05 1.99052e-05)
(0.127707 -0.000192532 -0.00042095)
(0.126408 -2.5916e-05 -0.000212283)
(0.125658 -7.34231e-05 0.000396358)
(0.116374 -1.75129e-05 -5.39454e-05)
(0.118048 -0.000250457 -0.000425863)
(0.107822 -0.000112532 -0.00024699)
(0.118765 -0.000742635 -0.00107277)
(0.10619 -0.00030167 -0.000308116)
(0.12759 0.000211458 0.000775569)
(0.125127 0.000224713 0.000245763)
(0.123496 -0.000635379 -0.000482333)
(0.116323 -0.00039315 -0.00036774)
(0.125213 -0.000288748 -0.000807591)
(0.124872 -0.000259485 -0.000636179)
(0.123344 -0.000424036 -0.000281207)
(0.115832 -0.000414566 -0.000427162)
(0.127177 0.000271499 0.000781933)
(0.127216 0.000101049 0.00084928)
(0.127391 0.000180739 0.000700727)
(0.126236 0.000366055 0.000782017)
(0.125039 0.000592806 0.000365)
(0.12526 0.000254478 0.000244627)
(0.126782 0.000305302 0.000298503)
(0.117733 -0.000260079 -0.000429108)
(0.119885 -7.90932e-05 -0.000206026)
(0.105742 -0.000363332 -0.000407052)
(0.12101 0.000178942 -0.000345133)
(0.119431 -0.000177794 -0.000235038)
(0.118751 0.000298678 -0.000313946)
(0.106929 -9.21958e-05 -0.000734577)
(0.126878 -0.000186998 0.000148618)
(0.125178 -0.000344587 -0.000394437)
(0.126859 -0.000504829 -8.12901e-05)
(0.124003 0.00018303 -0.000154135)
(0.125721 1.40326e-05 -0.000400745)
(0.1192 -0.000377707 -0.00047713)
(0.120067 -0.000188037 -0.000611296)
(0.106637 -0.000426752 -0.000367191)
(0.120963 -0.000380387 -0.000125999)
(0.118301 -0.000107835 4.04594e-05)
(0.117799 5.03948e-05 0.000320885)
(0.107864 -9.90283e-05 0.00019318)
(0.127737 -0.00077031 0.000304069)
(0.125371 -0.000430294 0.000615655)
(0.125227 -0.000517732 0.000224112)
(0.127506 -0.000520336 1.33797e-05)
(0.120388 -6.63152e-05 -0.00138543)
(0.120056 -1.55871e-05 -0.000920313)
(0.123632 -0.000268147 -0.000890042)
(0.106842 -0.000337704 -0.00122271)
(0.123517 1.92599e-05 -1.67988e-05)
(0.123973 -0.000336824 4.75232e-05)
(0.124799 -0.000174515 1.43777e-05)
(0.116956 -0.000604857 6.395e-05)
(0.120889 -0.000899232 -0.000462165)
(0.124908 -0.00051956 -0.000658224)
(0.124695 -0.000261856 -0.0008867)
(0.125323 -4.13265e-05 -8.48658e-05)
(0.127307 -0.000106828 0.000145767)
(0.12623 0.00017564 0.000438754)
(0.121911 0.000118874 -0.00125651)
(0.119007 0.000400371 -0.000920781)
(0.121207 0.000832665 -0.000900009)
(0.105074 -0.000479241 -0.000914441)
(0.128778 -7.28916e-05 7.09376e-05)
(0.128345 -0.00031135 -3.55338e-05)
(0.126721 6.4443e-05 -8.22601e-05)
(0.128461 3.31086e-05 -3.98396e-05)
(0.126531 -0.000288977 -0.000471066)
(0.123242 -0.000233728 -0.000330103)
(0.122513 -0.000176728 -0.00080198)
(0.126122 -0.000379291 -0.000228004)
(0.121799 -0.00104583 -0.000389321)
(0.122189 -0.000989872 -7.23065e-05)
(0.106672 -0.000288462 -0.000597693)
(0.120529 -0.000662872 0.000992865)
(0.119232 -0.000288305 0.00108416)
(0.121293 -0.000529201 0.000789205)
(0.105191 0.000165727 0.000215461)
(0.12444 -0.000345944 8.98184e-05)
(0.118513 -0.000295033 0.000111701)
(0.121235 -0.000283133 -0.000690767)
(0.128429 -0.000220289 -0.000206998)
(0.126501 -0.000193297 -0.00035705)
(0.118856 0.000392706 0.00014215)
(0.117774 0.000260037 0.000263419)
(0.120104 6.18215e-05 -0.000252121)
(0.105455 -0.000134303 0.000149657)
(0.121551 -9.33716e-05 -0.000741793)
(0.121333 0.000527843 -0.000466473)
(0.106799 -0.000388755 -0.000842916)
(0.118446 -0.000199578 0.000371072)
(0.121327 -0.000137475 0.000319832)
(0.118834 -0.000621925 0.000175518)
(0.107611 -0.000363845 0.000116176)
(0.118399 -0.00103965 -0.000446023)
(0.121776 -0.000739719 0.000247892)
(0.11959 -0.000902198 -0.000232706)
(0.104923 -0.000390042 -0.000404155)
(0.121852 0.00082656 -0.000644548)
(0.123895 0.00068121 0.000160583)
(0.123932 0.000399784 -0.000428715)
(0.115966 0.000625067 -0.000351522)
(0.119739 0.000264485 0.000304501)
(0.118776 0.000266472 0.000445245)
(0.107591 -5.47818e-05 0.000367585)
(0.127125 -0.000407789 -7.61009e-05)
(0.126603 -0.00024815 8.21367e-05)
(0.127558 -0.000425199 -6.57617e-05)
(0.127223 -0.000339347 9.31298e-05)
(0.125045 -0.00037659 0.000229855)
(0.12532 -0.000288689 -1.27979e-05)
(0.127634 -0.00034429 0.000323255)
(0.127903 -0.000364032 0.000241836)
(0.117192 0.000157311 -0.00123134)
(0.117277 0.000138256 -0.000528018)
(0.119723 0.000255311 -0.000960031)
(0.108554 -0.000263287 -0.00062135)
(0.120814 -0.000544367 0.000562861)
(0.12046 -0.00158032 -0.00032489)
(0.121095 -0.0008802 0.000173132)
(0.112161 -0.000764283 -0.000157534)
(0.122289 0.000987034 4.44676e-05)
(0.124539 0.000658073 -0.000272142)
(0.124568 0.000617834 -0.000535407)
(0.117503 0.000239163 -0.000534157)
(0.120772 0.000164339 0.00010674)
(0.117806 -3.35664e-06 -5.59185e-05)
(0.117119 -0.000165993 -0.000277173)
(0.107357 0.000256821 -0.00012668)
(0.125506 -7.84995e-05 0.000506548)
(0.117755 3.81102e-05 -5.22608e-05)
(0.125876 -0.000579786 -0.000395911)
(0.127176 -0.000200304 -0.000330232)
(0.125965 -0.000227153 -0.000228729)
(0.12597 -0.000244665 -0.000331018)
(0.123674 0.000418631 0.000114375)
(0.122321 0.000279209 0.000234132)
(0.117379 0.000395001 0.00031315)
(0.126706 0.000364719 -0.000134273)
(0.125484 0.000482315 0.000367022)
(0.126177 0.00043477 0.000168126)
(0.126326 0.000530833 0.000308319)
(0.125852 -0.000188889 -6.61769e-05)
(0.125885 -0.000536296 -0.000169508)
(0.11681 -0.000290715 -0.000135852)
(0.12384 -0.000391186 -9.35977e-05)
(0.122333 -0.000514402 0.000165409)
(0.123777 -0.000532367 0.000273347)
(0.114685 -0.00028313 -0.000191429)
(0.123784 -4.58313e-05 2.79214e-05)
(0.12421 0.000208751 0.000145127)
(0.116302 0.000167862 0.000324341)
(0.119823 -0.000446667 0.000687654)
(0.12418 -0.000515801 0.000370582)
(0.124521 -0.000731638 0.000671863)
(0.121626 -7.86417e-05 0.000306034)
(0.123296 -0.00029875 -6.05503e-05)
(0.123595 -0.000378347 0.000135197)
(0.116319 -0.000226727 0.000211858)
(0.120162 0.000267761 -0.00021669)
(0.117201 0.000124931 -0.00058487)
(0.106137 0.00081275 -0.000564472)
(0.125992 -0.000402276 -3.38991e-05)
(0.127619 -0.00047361 -5.38915e-05)
(0.128288 0.000152414 -0.000167909)
(0.124476 0.000214411 0.000533695)
(0.125379 0.000104534 0.000706974)
(0.117217 -0.000226991 0.000924157)
(0.126264 0.000210096 4.94835e-05)
(0.126943 -0.000165834 6.65142e-05)
(0.126767 0.000167756 -0.000113213)
(0.127044 0.00018505 -8.57507e-05)
(0.12055 -0.000124124 -5.14508e-05)
(0.121402 -0.000160684 0.000248763)
(0.120646 -0.000396793 5.64359e-05)
(0.106071 9.29e-05 0.000180641)
(0.117877 6.63268e-05 0.000446123)
(0.117645 -0.000160222 0.000485326)
(0.119247 -3.32686e-05 0.000693041)
(0.106252 -0.000223474 0.000425161)
(0.125833 -0.000248019 -0.000219776)
(0.126662 -5.33871e-05 0.00026689)
(0.127588 -0.000434941 6.48398e-06)
(0.127209 -5.21638e-05 0.000210806)
(0.125634 -0.000362992 -0.000352457)
(0.126922 0.000139211 -0.00049532)
(0.125166 0.000268997 -0.000325131)
(0.122446 -0.000268105 0.000688122)
(0.12481 -0.000314397 0.000113372)
(0.12446 -0.000152509 0.000173414)
(0.123054 -0.000203146 0.000823102)
(0.122704 -8.23574e-05 0.000186297)
(0.124788 -0.000424943 0.000110331)
(0.116764 -0.000130345 0.000331487)
(0.12529 -0.000458142 -0.000715958)
(0.125458 -0.000157401 -0.000667494)
(0.122898 -0.000249201 -0.000354946)
(0.116281 9.62067e-05 -0.000666256)
(0.125317 -0.000271727 -0.000862522)
(0.121068 -0.000338243 -0.000800267)
(0.125174 -4.00162e-05 -0.000738215)
(0.120768 0.000452929 0.000299342)
(0.124971 0.000617437 0.000454907)
(0.121963 0.00032053 0.000672987)
(0.125473 0.000420152 0.000224192)
(0.126852 0.000370782 -0.000553692)
(0.12356 0.000478239 -0.000532723)
(0.12429 6.10368e-05 -0.000788554)
(0.120989 -4.58095e-05 -5.39422e-05)
(0.106856 -0.000208386 -0.000367162)
(0.120008 -4.63211e-05 -7.40087e-05)
(0.123798 -0.000308581 -7.70124e-05)
(0.127503 0.000115389 0.000242915)
(0.127249 -0.000244183 0.000142142)
(0.126943 -1.23682e-05 0.000472136)
(0.127312 -0.000180031 0.000539273)
(0.125852 -0.000474067 0.000283577)
(0.126046 -0.000569189 0.000205428)
(0.125709 -0.000356009 0.000203005)
(0.125953 -0.00045072 7.98789e-05)
(0.126605 -0.000194725 0.000321408)
(0.126063 -0.00053376 0.000248249)
(0.124482 -0.000292091 0.000678676)
(0.12171 -0.00139651 -0.000255972)
(0.124715 -0.00153889 -0.000582059)
(0.123609 -0.00100036 -0.000724745)
(0.121705 -6.80906e-05 -0.000276716)
(0.121323 0.000399687 -0.000474495)
(0.11624 0.00014143 0.000358484)
(0.125649 -1.87584e-05 -0.000423818)
(0.117605 -0.000288364 -0.000314714)
(0.121796 0.000541951 -0.000578587)
(0.122042 0.000661009 -0.000834569)
(0.123459 0.000197092 -0.000641403)
(0.115699 -0.000150473 -0.000577244)
(0.127311 0.00026859 -0.000498688)
(0.125699 0.00038631 -0.000558259)
(0.126224 0.000207844 -0.00079122)
(0.106893 0.000139266 -0.000199551)
(0.123381 0.000135238 -0.000328203)
(0.117164 -0.000138805 -0.000209447)
(0.121025 0.000143609 1.24864e-05)
(0.124302 3.13226e-05 0.000346408)
(0.120566 9.3945e-05 -0.000162064)
(0.124587 0.00043107 9.96818e-05)
(0.125142 7.42275e-05 -7.36604e-05)
(0.124549 0.000100097 -0.000286878)
(0.122722 0.000135629 0.000103582)
(0.1185 0.000382943 8.93324e-05)
(0.127571 -0.000213243 -0.000423953)
(0.125634 -0.00028841 -0.00059721)
(0.127047 -0.000379259 -0.000565993)
(0.125447 -0.000482745 -0.000367296)
(0.125062 -0.000696661 -0.000472887)
(0.127337 -0.000577257 -0.000266673)
(0.126347 -0.000581006 -0.000106253)
(0.127016 6.47972e-05 -0.000407317)
(0.12729 -0.000180232 -0.000252983)
(0.119376 -0.000754774 -0.00042829)
(0.120573 -0.000926199 -0.000431151)
(0.105815 2.78273e-05 -0.000410995)
(0.123378 -0.00101235 0.000284819)
(0.123534 -0.000260629 0.000161616)
(0.127321 -0.000409818 -0.000197509)
(0.124413 -0.000196894 -0.00027749)
(0.12762 -0.000372513 -0.000355011)
(0.126588 -0.000115467 0.000329436)
(0.126368 1.23037e-05 -4.96381e-05)
(0.125618 0.000280014 0.000311418)
(0.121723 -0.000369194 -0.00054282)
(0.126174 -0.000436186 -0.000653178)
(0.11511 1.96275e-05 6.42099e-05)
(0.117607 -0.000438038 0.00069169)
(0.117086 -0.000664723 0.000190249)
(0.103815 -0.000686526 0.000288438)
(0.125698 -0.000185416 -0.000260749)
(0.123781 -0.000413524 0.000363393)
(0.11775 -0.00037496 0.00126722)
(0.118118 -0.00127075 -0.000333045)
(0.107907 -0.00078002 -0.000178539)
(0.123404 0.000298591 -0.000106608)
(0.123761 0.000426648 0.000313768)
(0.103038 0.000115423 -0.000254308)
(0.124616 -0.00017531 0.000310571)
(0.127622 -0.000313287 0.000172693)
(0.119028 -0.000495916 0.000505512)
(0.122186 0.00035823 0.000474401)
(0.123125 -0.000503423 0.000236424)
(0.119673 0.000562534 -0.00019192)
(0.119864 0.000233013 -0.00019502)
(0.1204 0.000508748 -0.000602044)
(0.105803 3.37221e-06 -5.73522e-05)
(0.124571 9.70436e-05 0.000106868)
(0.123779 0.000220645 0.00011215)
(0.123254 0.000140869 0.00020655)
(0.125994 0.000907711 -0.000340765)
(0.126995 0.000986573 -0.000298979)
(0.123775 0.000216849 -0.000238914)
(0.124721 0.000194664 -0.000427336)
(0.12709 -0.000889279 -0.000111548)
(0.126344 -9.00395e-05 0.000301782)
(0.120786 -0.00059769 -5.0451e-06)
(0.120571 -0.000353448 -9.21703e-05)
(0.105018 -0.000399021 0.000191932)
(0.119194 -0.000983863 0.000427018)
(0.117607 -0.000651051 0.000874144)
(0.10733 -0.000618359 0.000334117)
(0.126217 -0.000525689 0.000449842)
(0.124242 -1.48703e-05 0.000697917)
(0.125422 -0.000376092 0.000767787)
(0.123817 -0.000161812 0.000115579)
(0.126826 1.29456e-05 -0.000629639)
(0.127604 -0.000115487 -0.000579378)
(0.125141 3.20799e-05 -0.000367993)
(0.119678 0.000523756 0.000149659)
(0.120714 1.20755e-05 7.9661e-05)
(0.104616 0.000263148 -0.000595328)
(0.126937 -0.000475045 0.000140952)
(0.12688 -0.00048536 0.000451081)
(0.12688 -0.000234562 0.000312199)
(0.123134 -0.000185195 -0.000174928)
(0.120557 -5.50388e-05 -0.000529095)
(0.10768 -0.000181115 -0.000349229)
(0.117981 -0.000286558 0.000278321)
(0.11801 -0.000583403 7.41491e-05)
(0.107831 -0.000356503 -3.67948e-05)
(0.122908 0.000292152 -0.000500774)
(0.122454 0.000285156 -0.000343015)
(0.124287 0.000358849 -0.000207404)
(0.11676 -0.000238327 -0.000387075)
(0.123908 -0.000431066 -0.000324268)
(0.125898 -0.000642174 0.000135662)
(0.123556 -0.000286679 0.000548691)
(0.125408 -0.000470066 0.00013429)
(0.121504 -0.0012298 6.88656e-05)
(0.123355 -0.00086531 -0.000113713)
(0.123743 -0.000568318 -0.000177321)
(0.115318 -0.000802496 -0.000383816)
(0.118173 -0.000397391 0.000645112)
(0.122717 1.03326e-05 0.000613133)
(0.121322 0.000156882 0.000225867)