/*--------------------------------*- C++ -*----------------------------------*\
| =========                 |                                                 |
| \\      /  F ield         | OpenFOAM: The Open Source CFD Toolbox           |
|  \\    /   O peration     | Version:  2212                                  |
|   \\  /    A nd           | Website:  www.openfoam.com                      |
|    \\/     M anipulation  |                                                 |
\*---------------------------------------------------------------------------*/
FoamFile
{
    version     2.0;
    format      ascii;
    arch        "LSB;label=32;scalar=64";
    class       volScalarField;
    location    "0.05";
    object      epsilon;
}
// * * * * * * * * * * * * * * * * * * * * * * * * * * * * * * * * * * * * * //

dimensions      [0 2 -3 0 0 0 0];

internalField   nonuniform List<scalar> 
31639
(
0.308289
0.308123
0.309866
0.303272
0.315747
0.31311
0.321859
0.310722
0.310872
0.304139
0.307086
0.304669
0.305997
0.302902
0.307528
0.324311
0.31006
0.318119
0.31884
0.310833
0.338976
0.307095
0.304001
0.318869
0.323926
0.31154
0.309226
0.253413
0.319553
0.305982
0.303625
0.32069
0.302486
0.323714
0.335052
0.30581
0.340912
0.30515
0.304743
0.351677
0.330815
0.336843
0.302381
0.308449
0.309074
0.304303
0.310086
0.315625
0.308667
0.303751
0.304382
0.344407
0.306045
0.34528
0.316972
0.31266
0.340316
0.309609
0.30758
0.338095
0.311123
0.310785
0.327338
0.310362
0.309029
0.302842
0.30937
0.307739
0.332918
0.303307
0.304466
0.310951
0.303994
0.308269
0.3057
0.337014
0.303217
0.317063
0.307458
0.308213
0.323858
0.352228
0.303697
0.30734
0.303418
0.304171
0.30329
0.303351
0.329522
0.303256
0.307996
0.31314
0.33531
0.308468
0.322995
0.3104
0.312542
0.308329
0.307821
0.337962
0.304846
0.305244
0.306684
0.338601
0.336334
0.304184
0.34022
0.345457
0.324172
0.34408
0.302453
0.337023
0.311396
0.318576
0.306762
0.343347
0.318788
0.319222
0.310309
0.308695
0.308949
0.305195
0.304279
0.310258
0.313737
0.305747
0.309639
0.323502
0.32439
0.303258
0.302385
0.302624
0.303286
0.320022
0.307599
0.307274
0.33609
0.340914
0.304599
0.308418
0.3087
0.304536
0.304534
0.34088
0.347749
0.303608
0.30686
0.336021
0.334174
0.304356
0.33126
0.313628
0.319275
0.308574
0.336331
0.303583
0.312827
0.334019
0.332935
0.320576
0.30385
0.338053
0.330453
0.340978
0.341192
0.309152
0.337778
0.305001
0.304976
0.336631
0.310197
0.310843
0.336042
0.306569
0.303157
0.306424
0.30779
0.305499
0.306646
0.305247
0.308421
0.315435
0.307333
0.348306
0.313712
0.304252
0.307548
0.30465
0.340354
0.340501
0.309582
0.308445
0.30911
0.3091
0.308224
0.318408
0.320396
0.303499
0.33752
0.316923
0.305875
0.305175
0.302717
0.302931
0.316164
0.30925
0.309506
0.307123
0.306749
0.349744
0.309516
0.318317
0.308546
0.306986
0.313382
0.302859
0.334372
0.322236
0.309105
0.305782
0.304044
0.315736
0.338147
0.315542
0.339215
0.318476
0.306893
0.32571
0.336361
0.310154
0.308187
0.304913
0.332452
0.343601
0.309036
0.307693
0.336262
0.303289
0.330705
0.340017
0.308487
0.308692
0.309614
0.326082
0.329121
0.311051
0.307359
0.309675
0.335023
0.308495
0.307956
0.338639
0.326323
0.305495
0.307113
0.320455
0.334995
0.304366
0.305467
0.321266
0.303171
0.3038
0.312739
0.304324
0.309241
0.316896
0.33654
0.321707
0.301495
0.307815
0.295943
0.32086
0.315441
0.312397
0.303442
0.313395
0.338286
0.317627
0.327643
0.304449
0.316941
0.306198
0.304373
0.320202
0.334192
0.33336
0.334277
0.345451
0.303484
0.330633
0.310075
0.308102
0.320332
0.331909
0.306345
0.320383
0.332186
0.307143
0.315097
0.331992
0.309784
0.33041
0.308704
0.308333
0.336852
0.317348
0.309236
0.347064
0.343814
0.304394
0.303271
0.295442
0.339494
0.336575
0.30483
0.329248
0.323534
0.305489
0.308131
0.310149
0.305575
0.303327
0.33493
0.30236
0.344703
0.345302
0.308018
0.304896
0.304015
0.303643
0.308426
0.331327
0.306997
0.308029
0.305759
0.307284
0.303611
0.309281
0.309398
0.310254
0.303886
0.306964
0.309449
0.31289
0.307579
0.314662
0.307299
0.307533
0.335881
0.313656
0.303748
0.31729
0.308356
0.302478
0.308979
0.337286
0.309002
0.309106
0.339765
0.307378
0.333629
0.313187
0.299005
0.345394
0.308988
0.309882
0.336458
0.311468
0.333821
0.314091
0.306631
0.312521
0.344623
0.309306
0.333211
0.309401
0.304549
0.306574
0.308517
0.334292
0.303659
0.337867
0.308832
0.34429
0.303432
0.303396
0.303538
0.30321
0.320888
0.309119
0.308521
0.309379
0.309201
0.340486
0.312833
0.306951
0.305414
0.305609
0.312273
0.307357
0.315616
0.337638
0.317541
0.307811
0.305222
0.34536
0.304603
0.304401
0.310036
0.303453
0.303754
0.315678
0.303417
0.326274
0.309264
0.305585
0.342824
0.312043
0.308521
0.334186
0.337756
0.337322
0.322734
0.341847
0.310759
0.299409
0.322168
0.30852
0.33674
0.304438
0.303475
0.309095
0.306924
0.316579
0.306119
0.311357
0.318136
0.303224
0.307307
0.337477
0.308781
0.305872
0.30395
0.309131
0.304017
0.30961
0.30864
0.307998
0.305562
0.30847
0.335267
0.311243
0.346574
0.324712
0.308857
0.339355
0.347501
0.319436
0.307081
0.306203
0.337475
0.30881
0.324315
0.308283
0.309204
0.276226
0.308754
0.346021
0.308858
0.303718
0.304586
0.305274
0.3169
0.336398
0.310319
0.30687
0.303878
0.34246
0.339025
0.30908
0.338788
0.332398
0.310211
0.342546
0.317133
0.328367
0.311018
0.336388
0.303364
0.304856
0.304187
0.304346
0.330739
0.303699
0.304725
0.311076
0.308142
0.307487
0.303145
0.309956
0.322998
0.306179
0.303755
0.307926
0.320605
0.303796
0.308405
0.345261
0.347258
0.309638
0.30846
0.303351
0.31203
0.310025
0.311924
0.304054
0.309778
0.31903
0.31326
0.333701
0.309492
0.313087
0.304991
0.333856
0.328607
0.330404
0.311176
0.308191
0.343911
0.309836
0.32404
0.308419
0.314315
0.303893
0.316337
0.336338
0.307043
0.302134
0.330032
0.305872
0.299142
0.299518
0.310038
0.254188
0.330924
0.30824
0.308828
0.334343
0.335556
0.308695
0.308299
0.308597
0.331078
0.316166
0.304466
0.309029
0.335524
0.328523
0.308695
0.303931
0.339544
0.346121
0.306717
0.339959
0.307204
0.305745
0.339155
0.307559
0.310347
0.317911
0.344537
0.303701
0.318208
0.332454
0.303086
0.307183
0.31035
0.30495
0.344585
0.320741
0.312497
0.319003
0.333243
0.321332
0.312781
0.302783
0.305445
0.306413
0.303192
0.305794
0.325092
0.304282
0.30694
0.307701
0.328649
0.308441
0.312666
0.305807
0.334946
0.345111
0.303069
0.326327
0.303726
0.310995
0.333964
0.31235
0.304213
0.316812
0.309769
0.336315
0.304565
0.309027
0.345587
0.304546
0.305887
0.260889
0.336088
0.337861
0.320791
0.307625
0.309777
0.311208
0.30777
0.304945
0.309549
0.311103
0.337404
0.3027
0.343518
0.307902
0.317839
0.312855
0.303566
0.307745
0.327988
0.340137
0.34045
0.316735
0.303829
0.326005
0.303773
0.319957
0.303778
0.336919
0.310197
0.306969
0.302846
0.304567
0.302716
0.30702
0.314915
0.304588
0.305399
0.306128
0.329692
0.304595
0.33457
0.305437
0.315679
0.310543
0.333152
0.310073
0.343772
0.303794
0.316188
0.306543
0.310351
0.310027
0.33252
0.293085
0.338037
0.351856
0.337044
0.335067
0.335636
0.312343
0.344492
0.302037
0.311696
0.347864
0.306077
0.336475
0.319111
0.308374
0.317769
0.309344
0.302888
0.30162
0.306578
0.314603
0.306179
0.320353
0.31732
0.339986
0.294262
0.304392
0.309346
0.30794
0.304792
0.337637
0.305132
0.306086
0.304978
0.304019
0.304363
0.307508
0.304267
0.304138
0.311192
0.306183
0.306213
0.333799
0.305162
0.319228
0.310374
0.308068
0.307109
0.322046
0.306399
0.31135
0.310083
0.318514
0.337152
0.303934
0.311878
0.322099
0.340173
0.304213
0.339032
0.301485
0.310043
0.30932
0.311027
0.304133
0.308837
0.340033
0.307839
0.321043
0.314415
0.331928
0.304074
0.305102
0.311433
0.31044
0.309512
0.310738
0.3206
0.31336
0.342968
0.303478
0.310017
0.301894
0.33173
0.307214
0.306852
0.310485
0.323822
0.307639
0.304019
0.311203
0.340415
0.342101
0.309208
0.339918
0.326762
0.310757
0.308515
0.302435
0.341509
0.307392
0.303827
0.331455
0.336516
0.305836
0.332119
0.314307
0.333248
0.307753
0.326322
0.321188
0.304872
0.340765
0.309718
0.309704
0.304999
0.306559
0.30224
0.3366
0.303544
0.308067
0.320807
0.303597
0.306467
0.310855
0.298877
0.307414
0.306809
0.304969
0.30652
0.30561
0.317343
0.308902
0.307461
0.333561
0.308034
0.310985
0.304214
0.309715
0.312569
0.303647
0.305907
0.306527
0.30857
0.304881
0.307331
0.310579
0.336883
0.315452
0.304036
0.348156
0.31357
0.310672
0.318445
0.311091
0.303769
0.305987
0.303007
0.312085
0.307934
0.309604
0.308237
0.308611
0.320235
0.337026
0.305236
0.341438
0.312732
0.317003
0.311689
0.3101
0.303173
0.338481
0.306047
0.333869
0.307338
0.32268
0.309638
0.310291
0.303157
0.33656
0.304827
0.304967
0.31184
0.31198
0.313109
0.344381
0.3048
0.306997
0.308017
0.302703
0.303615
0.306889
0.316828
0.305642
0.330844
0.316932
0.304206
0.33587
0.328407
0.307171
0.303393
0.3212
0.317567
0.314081
0.322755
0.309077
0.327041
0.305676
0.308226
0.348868
0.312415
0.301826
0.309832
0.312388
0.30724
0.304363
0.332909
0.333404
0.303053
0.305064
0.306429
0.329841
0.30523
0.305091
0.331091
0.306996
0.304429
0.304507
0.310692
0.30418
0.312036
0.305481
0.306429
0.318576
0.335871
0.309266
0.307418
0.329731
0.303208
0.341978
0.31102
0.314812
0.336655
0.312312
0.319016
0.306315
0.313714
0.308175
0.340456
0.341249
0.315793
0.335765
0.310001
0.303594
0.309901
0.30451
0.320701
0.308589
0.30809
0.319521
0.316253
0.30704
0.309556
0.312033
0.335034
0.310421
0.307803
0.301975
0.304132
0.343161
0.337035
0.310341
0.303102
0.326062
0.31134
0.314146
0.30816
0.306128
0.315383
0.30946
0.313269
0.336096
0.304341
0.311986
0.334558
0.324385
0.307534
0.320387
0.305826
0.306794
0.314982
0.335629
0.303972
0.336292
0.313772
0.311589
0.32679
0.309286
0.340477
0.309668
0.309421
0.311581
0.346203
0.336931
0.302183
0.306158
0.319821
0.302963
0.310531
0.308099
0.339737
0.333838
0.312187
0.312421
0.310884
0.305668
0.302214
0.308496
0.30293
0.31168
0.313561
0.30445
0.341977
0.309143
0.306009
0.30789
0.311386
0.307979
0.319571
0.303454
0.311341
0.343555
0.304865
0.327577
0.304783
0.318512
0.302635
0.337291
0.305248
0.304832
0.31227
0.308017
0.341713
0.303201
0.305647
0.303783
0.337135
0.302986
0.313047
0.302664
0.308498
0.306809
0.305693
0.308877
0.320708
0.308767
0.336654
0.337569
0.337788
0.326869
0.308913
0.340397
0.304509
0.305234
0.311646
0.312323
0.310418
0.30971
0.305474
0.309761
0.319814
0.305286
0.313523
0.322834
0.303024
0.307515
0.310436
0.305772
0.322005
0.307757
0.306293
0.303141
0.307581
0.306596
0.321763
0.305533
0.314052
0.311415
0.308453
0.308611
0.302971
0.308379
0.305409
0.317771
0.310791
0.308699
0.335482
0.344021
0.305861
0.32336
0.31004
0.320809
0.33951
0.312145
0.306146
0.329627
0.320091
0.308029
0.304182
0.304988
0.310122
0.33351
0.309892
0.313067
0.318724
0.310636
0.31063
0.345328
0.324282
0.323944
0.311561
0.308545
0.310686
0.30851
0.310953
0.309017
0.311791
0.328812
0.323498
0.348806
0.31234
0.310097
0.308234
0.306868
0.304623
0.33759
0.309683
0.318681
0.312262
0.309827
0.304676
0.340225
0.303053
0.336643
0.307551
0.311481
0.314752
0.308782
0.316213
0.310717
0.329162
0.311683
0.317469
0.311847
0.318811
0.337442
0.303053
0.307265
0.311423
0.304889
0.306276
0.335404
0.321106
0.313617
0.332364
0.304399
0.30858
0.303925
0.302649
0.303937
0.336499
0.340575
0.33449
0.305017
0.34244
0.304096
0.309563
0.332996
0.319245
0.306163
0.305881
0.324193
0.320397
0.309809
0.308971
0.307312
0.312093
0.330228
0.30991
0.309714
0.307681
0.310657
0.304562
0.30586
0.304623
0.31109
0.337564
0.342128
0.310283
0.322249
0.309917
0.344849
0.307386
0.313116
0.303357
0.336144
0.312847
0.306342
0.311575
0.321747
0.337218
0.306798
0.328493
0.310863
0.313695
0.302596
0.303068
0.308948
0.3436
0.33941
0.310513
0.316108
0.319436
0.308742
0.341917
0.296635
0.305518
0.322331
0.305857
0.301459
0.307641
0.303567
0.306337
0.309678
0.309386
0.342036
0.31905
0.304771
0.337782
0.308799
0.311908
0.328853
0.308147
0.279172
0.309445
0.304563
0.305275
0.341378
0.310742
0.310354
0.338175
0.318806
0.309427
0.319665
0.3079
0.334184
0.334768
0.310729
0.318345
0.303061
0.305054
0.303487
0.307486
0.309246
0.307521
0.307507
0.305856
0.33069
0.308582
0.315408
0.305474
0.310968
0.321216
0.316648
0.308509
0.338917
0.312052
0.306874
0.313014
0.352904
0.312569
0.342202
0.309324
0.34648
0.307404
0.306285
0.310578
0.308092
0.33106
0.335012
0.306269
0.308333
0.310368
0.309621
0.320349
0.303027
0.307548
0.305226
0.337419
0.324052
0.305768
0.305529
0.31433
0.312602
0.336364
0.307477
0.304735
0.307392
0.308251
0.308794
0.308893
0.304378
0.306504
0.33414
0.308829
0.308745
0.309097
0.311392
0.309812
0.346743
0.326521
0.305285
0.308975
0.307941
0.30817
0.307028
0.303642
0.309576
0.311494
0.305373
0.304871
0.321446
0.317314
0.308479
0.308576
0.305919
0.343218
0.311143
0.336915
0.305005
0.337981
0.33463
0.307112
0.341629
0.322365
0.308586
0.304056
0.304502
0.321171
0.313043
0.304428
0.330795
0.335006
0.321468
0.324488
0.304979
0.309315
0.311516
0.340472
0.30898
0.30445
0.304238
0.335628
0.333157
0.312505
0.309331
0.309555
0.325761
0.336283
0.315809
0.321075
0.304293
0.306578
0.341191
0.30979
0.307504
0.333084
0.345055
0.304612
0.325953
0.327472
0.302432
0.30903
0.303353
0.304882
0.306206
0.319865
0.305842
0.322153
0.303519
0.321766
0.304842
0.306872
0.308223
0.333866
0.302295
0.301035
0.314378
0.309663
0.311417
0.329272
0.26979
0.309214
0.317436
0.30354
0.317926
0.299515
0.33727
0.305823
0.306253
0.341273
0.307147
0.311083
0.34749
0.335233
0.308956
0.30779
0.306296
0.32098
0.334295
0.304115
0.307123
0.306439
0.310236
0.302638
0.338257
0.306173
0.309863
0.336534
0.335415
0.352681
0.329587
0.303303
0.32047
0.310391
0.306359
0.321589
0.319993
0.342912
0.343844
0.305866
0.305757
0.335069
0.307199
0.311638
0.337366
0.312496
0.316135
0.332674
0.315351
0.301221
0.333433
0.345158
0.303221
0.306312
0.327344
0.308185
0.323654
0.328643
0.335987
0.308848
0.33248
0.339647
0.310331
0.302251
0.311783
0.31211
0.306577
0.311116
0.302889
0.263855
0.309905
0.334425
0.302865
0.307868
0.308016
0.320251
0.307375
0.330994
0.306195
0.309315
0.317292
0.339418
0.33936
0.347598
0.319973
0.336924
0.314585
0.330432
0.31752
0.304007
0.308434
0.31808
0.308743
0.310412
0.311518
0.304004
0.341977
0.310547
0.303638
0.303516
0.309008
0.304329
0.328677
0.311894
0.310416
0.338244
0.31163
0.302877
0.304714
0.299145
0.307544
0.311831
0.344876
0.337285
0.309552
0.304475
0.312055
0.303544
0.321136
0.31721
0.331206
0.340965
0.340217
0.344733
0.306559
0.308566
0.300711
0.30906
0.318102
0.306963
0.347505
0.305582
0.309226
0.306198
0.309233
0.311297
0.304661
0.304444
0.307103
0.274052
0.31619
0.307431
0.305111
0.305961
0.306481
0.309031
0.304319
0.306759
0.323557
0.306287
0.309018
0.304494
0.305608
0.340454
0.303443
0.306717
0.309584
0.303146
0.33487
0.345995
0.309215
0.30744
0.322132
0.304708
0.303038
0.302443
0.301524
0.319831
0.309167
0.311787
0.306986
0.344216
0.34443
0.312717
0.311849
0.332031
0.304435
0.335731
0.315756
0.309999
0.311467
0.318227
0.30192
0.312872
0.309439
0.309013
0.309931
0.308001
0.320319
0.344735
0.305218
0.351262
0.350726
0.274185
0.334384
0.341847
0.31456
0.310544
0.334959
0.32012
0.350035
0.334257
0.306186
0.308269
0.340412
0.340852
0.304013
0.34031
0.309491
0.305642
0.316132
0.304414
0.33286
0.336191
0.314527
0.307496
0.331033
0.334969
0.316071
0.323012
0.309345
0.308386
0.339552
0.306444
0.340411
0.342532
0.318449
0.308861
0.323249
0.318736
0.31868
0.304617
0.343673
0.331715
0.310813
0.298346
0.307073
0.344202
0.347175
0.316992
0.301924
0.307874
0.311331
0.313723
0.30684
0.306996
0.333177
0.303688
0.321926
0.33481
0.346641
0.303045
0.30837
0.304927
0.307664
0.30519
0.337307
0.316926
0.343648
0.355223
0.313199
0.336837
0.322525
0.308724
0.281499
0.336149
0.304306
0.305395
0.303881
0.308967
0.358027
0.307946
0.336929
0.306231
0.339805
0.304564
0.347336
0.310164
0.315129
0.323578
0.318883
0.346256
0.324018
0.307624
0.304927
0.307766
0.306737
0.306496
0.338359
0.305067
0.265939
0.30819
0.308419
0.306032
0.310192
0.295456
0.307987
0.316879
0.320911
0.320856
0.305884
0.306219
0.32084
0.326467
0.309572
0.315102
0.305822
0.300135
0.308024
0.314391
0.313243
0.302891
0.306431
0.304338
0.311757
0.306858
0.310686
0.287524
0.307329
0.320379
0.307511
0.311548
0.302476
0.332564
0.330425
0.309529
0.299098
0.302219
0.296041
0.304299
0.309533
0.306959
0.332026
0.322221
0.305017
0.306149
0.305039
0.30361
0.321134
0.302112
0.336464
0.30353
0.319675
0.307606
0.317106
0.309336
0.306896
0.304356
0.335275
0.305556
0.302653
0.314471
0.33223
0.305478
0.303836
0.305464
0.308101
0.308163
0.309599
0.336129
0.303089
0.319412
0.309594
0.324514
0.322363
0.331847
0.34075
0.320689
0.305526
0.31169
0.331301
0.315146
0.33753
0.312919
0.310815
0.345763
0.33408
0.324818
0.311585
0.309435
0.318618
0.284241
0.316274
0.280662
0.326746
0.302788
0.304137
0.306461
0.291163
0.31158
0.342704
0.331486
0.308665
0.323126
0.317821
0.305301
0.304396
0.308842
0.299802
0.341456
0.296511
0.304044
0.316993
0.302699
0.300636
0.308953
0.298107
0.305037
0.320806
0.332828
0.310819
0.341074
0.344883
0.316376
0.311041
0.312372
0.311029
0.309359
0.310646
0.347234
0.319681
0.302484
0.307663
0.340705
0.317652
0.326211
0.306907
0.303866
0.318859
0.307979
0.307007
0.308159
0.339394
0.304985
0.339925
0.301889
0.302983
0.30578
0.30159
0.307641
0.301887
0.335415
0.298732
0.303942
0.325861
0.305736
0.310682
0.31922
0.307029
0.315261
0.305337
0.305561
0.301345
0.308212
0.304191
0.311838
0.30358
0.332286
0.308479
0.33832
0.335535
0.311883
0.30934
0.30911
0.306795
0.295585
0.304639
0.33954
0.308731
0.304423
0.31018
0.302979
0.336123
0.342889
0.309432
0.345348
0.303397
0.308046
0.346086
0.314014
0.308175
0.313114
0.337858
0.327343
0.342475
0.306152
0.343209
0.30702
0.30703
0.343474
0.308366
0.306407
0.304676
0.302467
0.327336
0.305396
0.306819
0.329328
0.308744
0.304609
0.311179
0.332235
0.298884
0.312159
0.304996
0.319606
0.305986
0.31657
0.318019
0.320464
0.318026
0.29607
0.304911
0.305626
0.327207
0.309899
0.307703
0.302595
0.309005
0.347274
0.302294
0.32886
0.306509
0.303366
0.302217
0.319933
0.309721
0.308041
0.311099
0.306296
0.314666
0.336671
0.333663
0.310263
0.304574
0.284032
0.320594
0.304141
0.333997
0.30763
0.339518
0.306802
0.304796
0.306385
0.337456
0.304895
0.335603
0.308748
0.311412
0.324823
0.310351
0.328627
0.321351
0.308828
0.336617
0.322413
0.308619
0.348402
0.311459
0.305983
0.34745
0.322124
0.296387
0.314213
0.31116
0.304919
0.306955
0.301
0.32251
0.340364
0.344716
0.25512
0.303777
0.29335
0.305159
0.306497
0.332811
0.332366
0.308193
0.309852
0.34317
0.308316
0.305846
0.321218
0.302803
0.310004
0.300873
0.33036
0.315754
0.306979
0.35182
0.301725
0.29379
0.304951
0.303883
0.304933
0.309899
0.34
0.306069
0.311079
0.306724
0.303975
0.294723
0.300964
0.306357
0.311248
0.302308
0.309399
0.305437
0.335369
0.315077
0.303217
0.291391
0.305926
0.309646
0.312703
0.305206
0.335409
0.305066
0.334899
0.308066
0.308019
0.315886
0.308652
0.318134
0.314474
0.304846
0.315717
0.294398
0.286041
0.306123
0.341119
0.308913
0.308304
0.324174
0.303465
0.306346
0.303364
0.304776
0.338859
0.304751
0.304851
0.30385
0.313549
0.310321
0.342687
0.331952
0.299067
0.336041
0.305777
0.30661
0.330596
0.313518
0.301899
0.322024
0.324183
0.325645
0.318694
0.313935
0.298762
0.319912
0.303298
0.293256
0.30586
0.340589
0.306082
0.305865
0.301625
0.333984
0.324283
0.312715
0.254226
0.33261
0.308078
0.311773
0.305936
0.294331
0.304935
0.3074
0.314208
0.30535
0.312682
0.316727
0.316149
0.303486
0.304981
0.308319
0.298114
0.301252
0.329221
0.338281
0.312764
0.270908
0.310521
0.303203
0.305879
0.301551
0.306376
0.295331
0.308708
0.300854
0.329623
0.312555
0.316803
0.301417
0.305393
0.300897
0.307519
0.312682
0.315873
0.306449
0.310271
0.310104
0.305425
0.311594
0.321864
0.321548
0.332436
0.316766
0.308218
0.333416
0.305116
0.310549
0.303378
0.307138
0.305542
0.306123
0.295732
0.292015
0.309934
0.308258
0.302502
0.317605
0.340523
0.306671
0.316568
0.307306
0.309419
0.30871
0.303981
0.310765
0.342293
0.322265
0.337792
0.308229
0.311098
0.333187
0.306047
0.312488
0.318879
0.309132
0.32599
0.331615
0.303381
0.329677
0.334221
0.263069
0.272974
0.304055
0.326949
0.307093
0.305571
0.324226
0.306533
0.301013
0.295648
0.304522
0.339599
0.304071
0.266805
0.300956
0.327952
0.3289
0.302073
0.340155
0.320806
0.314563
0.304644
0.300369
0.301527
0.316988
0.310583
0.284189
0.312065
0.310341
0.305026
0.313754
0.332031
0.294789
0.309078
0.301157
0.259379
0.332355
0.307578
0.338812
0.335618
0.308053
0.304451
0.319403
0.31513
0.306687
0.300466
0.309412
0.282605
0.344502
0.302307
0.339179
0.307208
0.334696
0.309263
0.302748
0.30418
0.334134
0.316905
0.304841
0.305191
0.311185
0.300643
0.311774
0.307155
0.309067
0.333478
0.309997
0.322867
0.294129
0.298242
0.303073
0.312237
0.302342
0.315013
0.318906
0.336042
0.301639
0.301341
0.345358
0.305793
0.308952
0.309589
0.334371
0.308821
0.31708
0.31251
0.273708
0.319105
0.30806
0.351581
0.308017
0.341839
0.334012
0.312204
0.306141
0.343526
0.307901
0.306716
0.267162
0.344788
0.299537
0.303661
0.351425
0.310621
0.351581
0.344322
0.306812
0.305253
0.313463
0.295892
0.306451
0.307903
0.319216
0.293557
0.31455
0.311459
0.314838
0.298921
0.332203
0.287479
0.316975
0.318183
0.305475
0.300757
0.311731
0.306475
0.311864
0.300671
0.30587
0.313803
0.311811
0.304699
0.311138
0.308586
0.303071
0.307009
0.30891
0.281835
0.28665
0.29977
0.31428
0.322249
0.29315
0.296805
0.323094
0.309337
0.285429
0.334474
0.331506
0.299786
0.299132
0.311308
0.306184
0.305532
0.328971
0.308421
0.312022
0.329059
0.31759
0.337579
0.297631
0.308179
0.307813
0.302971
0.336955
0.311965
0.307817
0.305402
0.30295
0.260552
0.309544
0.30825
0.30694
0.293084
0.306794
0.267994
0.301053
0.302123
0.324363
0.345639
0.322085
0.299026
0.304441
0.327972
0.325269
0.305757
0.306869
0.30936
0.322253
0.348871
0.323873
0.323769
0.309005
0.312041
0.312785
0.306117
0.301851
0.277786
0.306104
0.30245
0.310604
0.319875
0.305823
0.289893
0.333243
0.320277
0.309356
0.277557
0.280146
0.307794
0.312088
0.300999
0.342006
0.310777
0.305745
0.293874
0.293625
0.296467
0.302885
0.306452
0.30337
0.307519
0.31537
0.298932
0.30349
0.304703
0.30686
0.300563
0.300562
0.333031
0.322693
0.342152
0.313689
0.284681
0.31483
0.33261
0.307457
0.32194
0.325261
0.314341
0.301425
0.309463
0.29507
0.308125
0.312091
0.299636
0.333502
0.301033
0.32953
0.308059
0.295662
0.31045
0.30898
0.302273
0.294405
0.327233
0.327853
0.317832
0.319712
0.312857
0.268286
0.306924
0.316774
0.300698
0.313192
0.320838
0.321659
0.270125
0.304733
0.309703
0.328128
0.334912
0.321513
0.297269
0.302657
0.330166
0.26229
0.301202
0.339007
0.304655
0.307975
0.305549
0.33916
0.304445
0.330238
0.325975
0.333362
0.299847
0.309792
0.313414
0.306911
0.308062
0.309131
0.335269
0.34978
0.307327
0.311615
0.30858
0.298704
0.33226
0.300311
0.318945
0.279859
0.309663
0.321193
0.3245
0.307809
0.301122
0.326694
0.331427
0.290632
0.295163
0.301269
0.31759
0.329182
0.335202
0.30363
0.309563
0.289092
0.298482
0.316488
0.307668
0.299372
0.287361
0.303643
0.300684
0.318155
0.308622
0.296277
0.302933
0.31632
0.282263
0.300575
0.294648
0.279904
0.298862
0.300669
0.314459
0.295852
0.302599
0.276967
0.309481
0.334103
0.304482
0.307214
0.320289
0.310523
0.288268
0.305093
0.283076
0.334174
0.332851
0.305156
0.263536
0.306557
0.338384
0.317486
0.307004
0.332576
0.307213
0.306736
0.345429
0.312544
0.302958
0.305258
0.306482
0.302195
0.302354
0.302385
0.301714
0.303665
0.310304
0.29636
0.311223
0.302099
0.295657
0.304578
0.30577
0.310835
0.286203
0.304679
0.30589
0.310504
0.319782
0.312864
0.340969
0.29935
0.309631
0.306342
0.304939
0.290624
0.310222
0.340072
0.308238
0.318739
0.32226
0.281392
0.334895
0.295921
0.311733
0.305347
0.306112
0.288866
0.334963
0.310556
0.292938
0.329282
0.296492
0.298018
0.274148
0.303271
0.321439
0.322283
0.288956
0.2797
0.284082
0.330257
0.308914
0.283281
0.302672
0.335793
0.311246
0.292686
0.299138
0.284636
0.307462
0.294454
0.31322
0.310874
0.294008
0.290811
0.323243
0.325171
0.306621
0.318308
0.340051
0.272566
0.303813
0.328667
0.316016
0.332551
0.304344
0.301008
0.306612
0.260451
0.30521
0.307291
0.308566
0.301839
0.307665
0.306705
0.296125
0.316107
0.3113
0.301678
0.31059
0.319127
0.319261
0.308261
0.276002
0.324046
0.281196
0.292418
0.300041
0.284473
0.305621
0.309268
0.307328
0.311336
0.305201
0.286998
0.283992
0.255105
0.309482
0.296793
0.317322
0.318708
0.335199
0.29764
0.304934
0.298735
0.28889
0.289262
0.290402
0.303104
0.319451
0.308884
0.307593
0.286402
0.335312
0.325029
0.334967
0.282452
0.301691
0.268612
0.257425
0.312239
0.27806
0.340442
0.308086
0.337952
0.329858
0.286998
0.32624
0.324475
0.283835
0.27107
0.304096
0.338
0.304675
0.309991
0.307888
0.299488
0.298965
0.283543
0.285548
0.334539
0.319881
0.307279
0.315516
0.302149
0.314432
0.29252
0.316333
0.308208
0.311512
0.295005
0.254309
0.252408
0.287146
0.301755
0.299641
0.310265
0.289942
0.335359
0.306149
0.314788
0.285825
0.339721
0.295497
0.290169
0.313047
0.34038
0.282429
0.306187
0.256289
0.282367
0.26361
0.304647
0.333448
0.323744
0.297182
0.324313
0.292118
0.331781
0.263057
0.30509
0.317757
0.306902
0.277834
0.346668
0.280384
0.303073
0.27518
0.299582
0.306679
0.289202
0.34664
0.292025
0.311598
0.297883
0.303664
0.309043
0.284557
0.322912
0.338089
0.295805
0.338849
0.26991
0.338185
0.324636
0.287697
0.305912
0.305824
0.31174
0.277558
0.329324
0.302832
0.278908
0.298999
0.329785
0.299687
0.302348
0.269152
0.300787
0.311466
0.304251
0.300041
0.30049
0.303087
0.330982
0.303243
0.308252
0.323993
0.26256
0.289755
0.298755
0.316412
0.309324
0.272261
0.300273
0.286842
0.286685
0.264032
0.25143
0.253736
0.30911
0.311115
0.309268
0.301476
0.321965
0.313407
0.307246
0.30565
0.282299
0.295097
0.306928
0.294307
0.306075
0.315918
0.335954
0.291963
0.306424
0.304258
0.288793
0.304995
0.301361
0.319119
0.285433
0.310404
0.290057
0.290921
0.285138
0.328872
0.278924
0.299419
0.28259
0.29647
0.276811
0.274656
0.295757
0.329809
0.276092
0.340302
0.315339
0.323882
0.265675
0.308572
0.292845
0.285144
0.292166
0.311339
0.302578
0.251251
0.297044
0.274908
0.307809
0.319883
0.311667
0.28427
0.307538
0.304991
0.300821
0.278253
0.286934
0.301952
0.29607
0.265111
0.260981
0.305789
0.27136
0.270396
0.285311
0.293518
0.305113
0.286736
0.275834
0.278777
0.308366
0.288133
0.273542
0.258172
0.299377
0.283778
0.31845
0.322407
0.305836
0.313683
0.289712
0.284348
0.28106
0.257683
0.256194
0.306311
0.318177
0.293043
0.308019
0.301108
0.300559
0.294332
0.268392
0.28043
0.333619
0.298213
0.319973
0.268607
0.309091
0.306916
0.330728
0.330923
0.291439
0.275684
0.277535
0.30757
0.298595
0.306772
0.306235
0.277401
0.275351
0.342841
0.277569
0.254409
0.274645
0.294728
0.28103
0.295513
0.277446
0.292491
0.293815
0.258426
0.324567
0.321129
0.291619
0.300821
0.280802
0.290461
0.303575
0.278351
0.334473
0.284681
0.299336
0.317538
0.28384
0.284331
0.307512
0.292993
0.2873
0.303767
0.315053
0.293497
0.302442
0.280239
0.290236
0.271294
0.286199
0.303316
0.292429
0.289526
0.296361
0.306822
0.276179
0.268405
0.268335
0.305911
0.322259
0.263736
0.296101
0.317681
0.304114
0.304673
0.328983
0.267483
0.286112
0.276852
0.273401
0.310534
0.314037
0.320287
0.320062
0.292518
0.297134
0.291304
0.303198
0.278991
0.273729
0.293502
0.267096
0.332159
0.286694
0.294084
0.28001
0.285624
0.324551
0.276566
0.266881
0.279977
0.272581
0.309243
0.300852
0.282786
0.263134
0.280601
0.265926
0.304718
0.313838
0.315286
0.307061
0.289012
0.31112
0.307732
0.332373
0.29461
0.305241
0.276842
0.303694
0.289952
0.281533
0.270341
0.331624
0.281469
0.303326
0.279645
0.3016
0.249011
0.259454
0.275204
0.299751
0.27933
0.272048
0.290317
0.308386
0.307405
0.288517
0.295709
0.313777
0.304367
0.30339
0.258739
0.279853
0.307622
0.273182
0.311691
0.278129
0.264018
0.304101
0.279037
0.292294
0.282659
0.277269
0.272293
0.268533
0.317245
0.313736
0.305779
0.287569
0.277803
0.280005
0.277278
0.296454
0.280111
0.302762
0.275483
0.305821
0.264282
0.312274
0.277911
0.275301
0.310014
0.305768
0.285058
0.292689
0.253043
0.277117
0.281697
0.265253
0.283643
0.300554
0.319834
0.310313
0.312244
0.291187
0.286859
0.278132
0.273
0.289755
0.292471
0.327904
0.288424
0.294439
0.302684
0.271337
0.280977
0.325697
0.320943
0.335629
0.308113
0.251809
0.268524
0.336371
0.29842
0.276233
0.304868
0.32604
0.332108
0.283975
0.280801
0.298943
0.262658
0.250236
0.306021
0.2546
0.307159
0.278275
0.265923
0.291747
0.27714
0.306645
0.310223
0.261151
0.260099
0.295708
0.269373
0.283051
0.263605
0.274196
0.283478
0.308774
0.270135
0.289646
0.316404
0.291061
0.285788
0.270023
0.297011
0.288571
0.287437
0.269583
0.28184
0.294387
0.301081
0.282148
0.31674
0.280246
0.304641
0.25839
0.281831
0.272567
0.312658
0.290279
0.307624
0.326629
0.285801
0.310988
0.30683
0.290525
0.29748
0.269657
0.276551
0.293362
0.285123
0.303913
0.285666
0.266872
0.296438
0.277391
0.271651
0.256566
0.282106
0.28365
0.311194
0.261794
0.290324
0.303158
0.26116
0.267133
0.311113
0.268559
0.285328
0.282932
0.284194
0.251731
0.259846
0.281504
0.273901
0.292073
0.279483
0.289026
0.262215
0.29299
0.297129
0.28152
0.268349
0.287086
0.314877
0.286543
0.286431
0.309995
0.252681
0.258614
0.289439
0.249366
0.325008
0.294755
0.281813
0.293815
0.287289
0.265557
0.320315
0.305357
0.258108
0.30857
0.29786
0.281584
0.277495
0.273525
0.268332
0.278794
0.302301
0.322407
0.265366
0.292348
0.28775
0.266762
0.330949
0.27134
0.262117
0.259496
0.277566
0.280148
0.280007
0.291383
0.294566
0.29611
0.271944
0.273639
0.2653
0.311737
0.273457
0.249022
0.272285
0.271506
0.26338
0.294027
0.27396
0.301947
0.301149
0.288723
0.311335
0.288194
0.298192
0.291373
0.285608
0.321226
0.300047
0.268366
0.262859
0.291639
0.256533
0.248353
0.260169
0.297022
0.253891
0.252129
0.283406
0.298841
0.29688
0.300964
0.266871
0.255293
0.280723
0.277834
0.26661
0.302075
0.27139
0.305628
0.25962
0.253141
0.266587
0.264626
0.324626
0.277989
0.295274
0.294766
0.288276
0.280213
0.270577
0.296181
0.264779
0.27576
0.304383
0.267408
0.301522
0.252668
0.252425
0.286719
0.274149
0.276988
0.271376
0.291131
0.294478
0.319609
0.33293
0.312119
0.25699
0.252375
0.273199
0.277553
0.253521
0.251281
0.259992
0.26704
0.291959
0.307041
0.288756
0.284352
0.30427
0.251177
0.272911
0.277275
0.295501
0.296235
0.261641
0.279938
0.280648
0.297869
0.310411
0.269162
0.270345
0.302084
0.321447
0.306313
0.269148
0.304334
0.293924
0.291904
0.308946