/*--------------------------------*- C++ -*----------------------------------*\
| =========                 |                                                 |
| \\      /  F ield         | OpenFOAM: The Open Source CFD Toolbox           |
|  \\    /   O peration     | Version:  2212                                  |
|   \\  /    A nd           | Website:  www.openfoam.com                      |
|    \\/     M anipulation  |                                                 |
\*---------------------------------------------------------------------------*/
FoamFile
{
    version     2.0;
    format      ascii;
    arch        "LSB;label=32;scalar=64";
    class       volScalarField;
    location    "0.05";
    object      k;
}
// * * * * * * * * * * * * * * * * * * * * * * * * * * * * * * * * * * * * * //

dimensions      [0 2 -2 0 0 0 0];

internalField   nonuniform List<scalar> 
31639
(
0.0110662
0.0108651
0.0109966
0.0113708
0.0109785
0.0107933
0.0107998
0.0111511
0.0110271
0.0112216
0.0112061
0.0112084
0.0109381
0.0112752
0.0107061
0.0106403
0.0111337
0.0108346
0.010549
0.0109689
0.0100535
0.0112782
0.0112861
0.0105711
0.0105225
0.0109807
0.0109204
0.00911276
0.010785
0.0113483
0.0112261
0.0107238
0.0112817
0.0105223
0.0103086
0.0113206
0.00979093
0.0114707
0.0112803
0.00974662
0.0102199
0.0102901
0.0111551
0.0112545
0.0112198
0.0112328
0.0107508
0.0108121
0.0111147
0.011336
0.0112169
0.0097922
0.0113586
0.0100267
0.010726
0.0110616
0.0100981
0.0109532
0.0108262
0.0100953
0.0109523
0.0112545
0.010595
0.0109114
0.0110276
0.0113499
0.0109057
0.0109163
0.0104681
0.0113249
0.0112364
0.0105004
0.0111209
0.0109466
0.011269
0.0103377
0.0111682
0.0108132
0.0107044
0.0111336
0.0105679
0.00968361
0.0112807
0.0110247
0.010997
0.011195
0.0113037
0.0112595
0.0103854
0.0113652
0.0109919
0.0110281
0.0101437
0.0107692
0.0103845
0.0108015
0.0108008
0.0109232
0.0109692
0.0101437
0.0113032
0.0111813
0.0107444
0.0100189
0.0100943
0.0112594
0.0100451
0.00990468
0.0104076
0.0100388
0.0111012
0.0101737
0.0108232
0.0106909
0.0109129
0.0099944
0.0109026
0.0109428
0.0111486
0.010836
0.0112043
0.0111851
0.0111517
0.0110213
0.0110254
0.011286
0.0109282
0.0104584
0.0103202
0.0111218
0.0111997
0.0111569
0.0112277
0.0108033
0.0111914
0.0109082
0.0100954
0.00993093
0.0111616
0.0109235
0.0109114
0.0111963
0.0112276
0.00996007
0.00982268
0.0112807
0.0111343
0.0102274
0.0101953
0.0112046
0.0105523
0.0111511
0.0105787
0.0111275
0.0104079
0.0113432
0.0109393
0.0104051
0.0103276
0.0105761
0.0112639
0.0104646
0.0105678
0.0100866
0.010235
0.0107996
0.0103769
0.0113593
0.0112001
0.00996954
0.010646
0.010625
0.0102749
0.01091
0.0113661
0.0111038
0.0109827
0.0113663
0.0109287
0.0108909
0.0107393
0.0108294
0.0106369
0.00981336
0.0110411
0.0114178
0.0108257
0.0113295
0.010231
0.0101994
0.0116075
0.0111999
0.0111425
0.0108523
0.0109386
0.0108029
0.0107883
0.0111253
0.0100507
0.0107609
0.0112919
0.0113958
0.0110961
0.0110611
0.0109645
0.0108453
0.0108011
0.0106386
0.0112578
0.00983151
0.0108697
0.0108227
0.0110768
0.0112257
0.0112786
0.011268
0.010289
0.0106129
0.0112687
0.0111387
0.0110399
0.0109075
0.0100522
0.0108918
0.0101006
0.0108424
0.0111834
0.0106649
0.0102583
0.0111313
0.0110495
0.0114051
0.0103826
0.0102267
0.0110963
0.0111216
0.0100565
0.0113029
0.0105907
0.0100366
0.0107526
0.0110899
0.0108818
0.0107108
0.0106592
0.0111706
0.0107262
0.010665
0.0102585
0.0108286
0.0106797
0.01035
0.0107213
0.0113595
0.0111937
0.0107362
0.0103375
0.0111114
0.0111294
0.0110923
0.0113463
0.0112433
0.0109897
0.0112596
0.0107362
0.0108654
0.00991949
0.0105441
0.0112189
0.0106668
0.01085
0.0107017
0.0109972
0.0115107
0.0113697
0.011088
0.0101559
0.0108517
0.0105231
0.0112388
0.0108977
0.0113497
0.0113471
0.010789
0.010221
0.0106062
0.0103652
0.0101581
0.0112151
0.0104138
0.0112523
0.0107862
0.0106428
0.0103488
0.0114592
0.0107474
0.0108569
0.0112729
0.011044
0.0106393
0.0108105
0.0104406
0.0109092
0.0107727
0.0102835
0.0107271
0.0106722
0.00961171
0.00990969
0.0112225
0.0112859
0.0109043
0.0100507
0.0104317
0.011118
0.0104262
0.0103119
0.011305
0.0114789
0.0107688
0.0112345
0.0113211
0.0103029
0.0112053
0.0100199
0.0100607
0.0113505
0.0112199
0.0112373
0.0113542
0.011177
0.0103507
0.0108353
0.0107942
0.011295
0.0114288
0.0114126
0.0108019
0.0106443
0.0111545
0.0111051
0.0110138
0.0107288
0.010837
0.0107225
0.0109191
0.0110583
0.0107511
0.0102996
0.0110865
0.0113695
0.0107474
0.0112877
0.0112872
0.010859
0.0102885
0.0108408
0.0108265
0.0100393
0.0114989
0.0104322
0.0110542
0.0110684
0.00996855
0.0108856
0.0108635
0.0101381
0.0109754
0.0103411
0.0109207
0.0113523
0.0111501
0.00990862
0.011017
0.0103536
0.0110337
0.0112314
0.0113219
0.0113013
0.0104357
0.0111561
0.0100565
0.0107415
0.0100605
0.0112982
0.0111477
0.0112443
0.0111874
0.0104301
0.0114131
0.0108409
0.0111346
0.0108133
0.0105832
0.0108793
0.0111087
0.0110513
0.0111238
0.0109913
0.0111536
0.010843
0.0103327
0.0109328
0.0110779
0.0110755
0.00994276
0.0112608
0.0112135
0.0108374
0.010988
0.0110598
0.011028
0.0113193
0.00991479
0.0110493
0.0112666
0.0099448
0.0109324
0.0110457
0.0103666
0.0101272
0.0101277
0.0107404
0.0101566
0.0108324
0.0106052
0.0107143
0.0113675
0.0102273
0.0111717
0.011291
0.0108774
0.011197
0.010752
0.0112888
0.0108671
0.0110776
0.0113507
0.0108303
0.0101963
0.0109076
0.0112757
0.0112093
0.0111408
0.0112984
0.0107401
0.011016
0.0112181
0.0113848
0.0113064
0.0103107
0.0108271
0.00977657
0.0110008
0.0107727
0.010257
0.0101752
0.0107292
0.0111536
0.0112057
0.0101434
0.0111503
0.0106756
0.0108235
0.0111884
0.0089389
0.0107877
0.0100622
0.0106978
0.0112236
0.0113636
0.0111477
0.0109121
0.00991604
0.0111355
0.010896
0.0110648
0.0100965
0.0103247
0.010826
0.0101852
0.0103296
0.0109836
0.0100555
0.0107693
0.00989234
0.0111451
0.0102349
0.011333
0.0112028
0.011172
0.0112584
0.0106723
0.0111517
0.0112504
0.0109638
0.0112208
0.0108971
0.0111628
0.0114278
0.0106959
0.0112528
0.0112879
0.0108299
0.010518
0.0113583
0.0108992
0.00990771
0.0100478
0.0108993
0.0113756
0.0112904
0.0108767
0.0115457
0.0114908
0.0110941
0.0109609
0.0108227
0.0107569
0.0103354
0.0108603
0.0111108
0.0113337
0.0105995
0.010457
0.0104132
0.0106935
0.0107917
0.00981397
0.0111236
0.010667
0.011094
0.0109147
0.0112018
0.01092
0.0103439
0.0110586
0.0112622
0.0104941
0.0112023
0.011249
0.0106308
0.0108331
0.00912476
0.0104565
0.0108379
0.0108986
0.0103644
0.0102884
0.0109174
0.0101917
0.011102
0.0106011
0.0108265
0.0112511
0.010858
0.0100319
0.0107311
0.0109184
0.0112865
0.0102246
0.00973604
0.0112319
0.0100985
0.0109621
0.0114151
0.0102746
0.0108461
0.0113121
0.0109925
0.0102182
0.0112135
0.0109934
0.0101251
0.0111554
0.0109524
0.0107965
0.0110705
0.00993254
0.0105566
0.0110405
0.0107467
0.0109053
0.0109962
0.011418
0.0111825
0.011052
0.0112607
0.0112549
0.0111569
0.0105161
0.0111409
0.0113115
0.0114221
0.0104778
0.0109231
0.0109888
0.0115587
0.0103862
0.00989102
0.0112981
0.0103516
0.0114532
0.0107343
0.0102833
0.0109734
0.0112322
0.0111029
0.0110608
0.00994924
0.0111069
0.0109254
0.0100076
0.0112943
0.0112055
0.00913149
0.010251
0.0105011
0.0107292
0.010979
0.0109515
0.0108726
0.010887
0.0112281
0.010888
0.0108595
0.0103035
0.0113569
0.0100926
0.0108461
0.0108415
0.0105751
0.0113713
0.0108483
0.0105157
0.01007
0.0102735
0.0108111
0.0112442
0.0104035
0.0113588
0.0110103
0.0111947
0.0102892
0.0107158
0.0111372
0.0113761
0.0112953
0.0111208
0.0109001
0.0109524
0.0113561
0.0113631
0.0112777
0.0105724
0.0112204
0.0102713
0.0113065
0.0111828
0.0108512
0.0104057
0.0107644
0.00969408
0.011285
0.0110604
0.0114351
0.0108098
0.0105744
0.0101715
0.0110128
0.0100631
0.00993681
0.0103785
0.0106948
0.0102594
0.0108713
0.0101708
0.0111272
0.0110789
0.00990822
0.0113612
0.0103723
0.0104748
0.0106972
0.01063
0.0111531
0.0112952
0.0113611
0.0112398
0.0108854
0.0109362
0.0107871
0.0107659
0.0100908
0.00817468
0.0113249
0.010785
0.0111497
0.0112195
0.0101681
0.0112648
0.0112963
0.0111402
0.0111612
0.011102
0.0109896
0.0113638
0.0113949
0.0109553
0.0112336
0.011226
0.0103994
0.0112428
0.0106351
0.0110752
0.0105954
0.0107916
0.0105593
0.011424
0.0108131
0.0109316
0.010902
0.0104297
0.0113676
0.0110127
0.0107377
0.010362
0.011117
0.0100001
0.0112036
0.0111663
0.0105859
0.0113379
0.0114298
0.0113202
0.0101226
0.0109404
0.0109373
0.0110127
0.0103612
0.0111891
0.0112342
0.0106628
0.0109062
0.0106357
0.0111483
0.010702
0.0108262
0.0100203
0.0111366
0.0110429
0.0111366
0.0106907
0.0108535
0.0110174
0.0108957
0.0106739
0.0111198
0.0111556
0.0107937
0.0100032
0.00999677
0.0108133
0.00978674
0.0101549
0.0109944
0.0109923
0.0111866
0.00996614
0.0107721
0.0112898
0.0104448
0.0100655
0.010918
0.0103297
0.0111607
0.0105173
0.0112618
0.0105571
0.0106704
0.0113683
0.00998617
0.0106867
0.0107643
0.0111953
0.0113322
0.0112571
0.0104037
0.0110588
0.011314
0.0106688
0.0113376
0.011221
0.011075
0.0111014
0.010914
0.0114084
0.0114334
0.0114026
0.011078
0.0106561
0.0110466
0.0108618
0.0100406
0.010717
0.0111907
0.0112382
0.0113935
0.0108566
0.011313
0.0112443
0.0106472
0.0112506
0.0112125
0.0110846
0.011238
0.0102192
0.0107264
0.0111153
0.00991613
0.0109687
0.0108127
0.0108844
0.0107744
0.0113612
0.0111281
0.0111971
0.0107687
0.0111379
0.0109339
0.0113147
0.0109723
0.0108184
0.0103424
0.0112411
0.010486
0.0107445
0.0108956
0.0107362
0.0110187
0.0113285
0.0102739
0.0113019
0.0103157
0.0110196
0.0108071
0.0107435
0.0108275
0.0112876
0.0101648
0.0110828
0.0112497
0.0113653
0.0110244
0.0109208
0.00980791
0.0111988
0.0112211
0.0110373
0.0111144
0.011219
0.0109643
0.0112068
0.0108745
0.0103868
0.0108464
0.0113268
0.00999244
0.0104247
0.0115321
0.011181
0.0106081
0.0108008
0.0109993
0.0105772
0.0108179
0.010466
0.0112033
0.0113429
0.0099002
0.0110118
0.0112577
0.011261
0.0115058
0.0107486
0.0112222
0.0104188
0.0103939
0.011298
0.0112102
0.0108542
0.0104183
0.0111745
0.0112096
0.0106117
0.0113469
0.011247
0.0112726
0.0111081
0.0111727
0.0110185
0.0109738
0.010757
0.0106164
0.0101448
0.0109792
0.0109276
0.0103649
0.0112642
0.01012
0.0107273
0.0108624
0.0103126
0.0108157
0.0106786
0.011002
0.0109454
0.0112193
0.0102992
0.0103039
0.0107884
0.01017
0.010599
0.0112059
0.0108077
0.0112509
0.0110563
0.0107888
0.0113529
0.0107054
0.0110387
0.0107863
0.0107999
0.0110439
0.0104333
0.010932
0.0111864
0.0112798
0.01138
0.0103568
0.0101511
0.0109067
0.0112253
0.0104174
0.0107041
0.0111877
0.0108232
0.0115488
0.0108315
0.0107324
0.0112226
0.0102348
0.0112259
0.0114491
0.0103614
0.0105968
0.0108344
0.0107194
0.0113603
0.0113652
0.0111812
0.0104516
0.0111887
0.0102025
0.0107815
0.0113128
0.0107693
0.0115337
0.00999284
0.010912
0.0110747
0.0109734
0.0101036
0.0101214
0.0111793
0.0113686
0.0107306
0.0113207
0.0110863
0.0108427
0.0102535
0.0106002
0.0110803
0.0108726
0.010883
0.0113968
0.0112783
0.0114864
0.0113235
0.0110657
0.0110668
0.0111164
0.0104343
0.0112704
0.011093
0.0109787
0.0110399
0.0113736
0.0108984
0.0113176
0.0107783
0.00986935
0.0114152
0.0106496
0.0112226
0.0106502
0.0112285
0.0104427
0.0110857
0.0114605
0.0108394
0.010883
0.0101013
0.0111558
0.0112455
0.0110028
0.0101818
0.0114986
0.0108671
0.0109715
0.0113011
0.0113012
0.0111775
0.0108253
0.0109871
0.0114846
0.0104299
0.0105106
0.0103602
0.0105173
0.0110073
0.0101508
0.0113464
0.0112742
0.0114947
0.0107699
0.0107527
0.0109249
0.0112001
0.0109273
0.0110319
0.0112931
0.0113898
0.0109944
0.0112382
0.0109741
0.0107285
0.0110448
0.010671
0.0113778
0.0113301
0.0113759
0.0114582
0.0112515
0.0106124
0.0114574
0.0110276
0.0109818
0.0107363
0.0110443
0.0113311
0.0108654
0.0111904
0.0107557
0.0108995
0.0110961
0.0104879
0.0101724
0.0107278
0.0108551
0.0113983
0.0106441
0.0101221
0.0110272
0.011237
0.0106032
0.0106584
0.0109235
0.0113535
0.0112372
0.010749
0.0106989
0.0109144
0.0112847
0.0107133
0.0109006
0.0109311
0.0101307
0.0107596
0.0107949
0.0111593
0.0112486
0.010883
0.0113023
0.0111734
0.0108584
0.0109542
0.0102521
0.0104722
0.0101576
0.0113427
0.0110497
0.0114437
0.0116892
0.0110934
0.0101339
0.011266
0.0107323
0.0111026
0.0110852
0.0112015
0.010177
0.0113207
0.0103219
0.0109361
0.0109491
0.010911
0.0115272
0.0108173
0.011176
0.0104288
0.0108039
0.0109271
0.0113269
0.0105518
0.0106438
0.0111107
0.011221
0.0111447
0.0111254
0.011327
0.0103707
0.0109619
0.0107887
0.0106238
0.0111492
0.0114239
0.0113596
0.0112114
0.0114186
0.010374
0.0103438
0.0103933
0.0113454
0.0101805
0.0111996
0.0110742
0.0102782
0.0107189
0.0111851
0.0113008
0.0105954
0.0106949
0.0106749
0.0109935
0.0113926
0.0109055
0.0103071
0.0109627
0.0114789
0.0112475
0.0115065
0.0113445
0.0116003
0.0113739
0.0113126
0.0104894
0.0101633
0.0109488
0.0105974
0.0113958
0.0103487
0.0110333
0.010847
0.0113884
0.0105323
0.0112034
0.0111687
0.0110683
0.0108645
0.0103221
0.0112739
0.0107497
0.011475
0.0109311
0.0114116
0.0113616
0.0109561
0.010174
0.0102885
0.0108178
0.0111575
0.0105965
0.0115775
0.0104124
0.0111638
0.0111387
0.0107267
0.0110811
0.0111611
0.0113546
0.0113356
0.0113376
0.011001
0.0110582
0.0101441
0.0106375
0.0113859
0.0104981
0.011145
0.0108304
0.0103903
0.010839
0.0105769
0.010839
0.0110881
0.0112108
0.0104284
0.0108147
0.0109705
0.0103587
0.0106363
0.0108558
0.0109674
0.0111464
0.0103243
0.010287
0.0108757
0.0107845
0.0114011
0.011486
0.0113395
0.0106597
0.0107516
0.0109854
0.0106138
0.0112049
0.0102564
0.0109217
0.0108839
0.0114137
0.0112332
0.0109568
0.0110612
0.011346
0.0103291
0.0110263
0.0113965
0.0106993
0.0097055
0.0109096
0.0104324
0.0110073
0.01007
0.0113424
0.0114807
0.011386
0.0109719
0.0102739
0.0102677
0.0112557
0.0113823
0.011358
0.0110009
0.0110145
0.0111029
0.011387
0.0112312
0.0100629
0.0109385
0.011092
0.011071
0.0106652
0.0111151
0.0100358
0.0113934
0.0112515
0.0109277
0.011002
0.0111348
0.0108751
0.0114079
0.011131
0.0104145
0.0108093
0.0112299
0.0107714
0.0109348
0.0111046
0.0100943
0.0103586
0.0113421
0.0114566
0.0113043
0.011463
0.0110878
0.0112605
0.0110367
0.0110154
0.0110724
0.0112796
0.0107027
0.010914
0.0106264
0.0108845
0.0112476
0.0099782
0.0110088
0.0100982
0.0112614
0.0101356
0.0100897
0.0107919
0.0100066
0.0110771
0.0110381
0.0112427
0.0112828
0.0106668
0.0105288
0.0114605
0.010713
0.010385
0.0109811
0.01056
0.0113486
0.0111401
0.0110281
0.0103807
0.0112494
0.0111978
0.011339
0.0101701
0.010661
0.0110316
0.0111622
0.0115408
0.0102918
0.0102241
0.0112929
0.0111148
0.0113811
0.0109119
0.00996844
0.0111054
0.0112491
0.010183
0.0100678
0.0112883
0.0103808
0.0103887
0.0112752
0.0114559
0.0111571
0.0115269
0.010839
0.0107994
0.0113359
0.0105543
0.0113173
0.0106841
0.010973
0.0112789
0.0108027
0.0101877
0.0111863
0.0112067
0.0107085
0.0108628
0.0109494
0.0106066
0.00992002
0.0109816
0.0110926
0.011255
0.0107133
0.0109998
0.0101921
0.0111712
0.0114364
0.0100754
0.0112079
0.0110224
0.00982757
0.0101958
0.0109703
0.0108756
0.0112318
0.0107916
0.0104027
0.0112053
0.011391
0.0113104
0.0111162
0.011336
0.0102577
0.0113449
0.0109051
0.010328
0.010266
0.00970857
0.0103094
0.0110412
0.010831
0.0110888
0.010891
0.010441
0.0105954
0.0100496
0.0100202
0.0114786
0.0114316
0.0104428
0.01137
0.0113612
0.010408
0.0108886
0.0110319
0.0106207
0.0106889
0.0113107
0.010561
0.00999519
0.0113335
0.0113929
0.0107125
0.0113878
0.0107688
0.0105043
0.0103759
0.0107979
0.010123
0.0103679
0.0110385
0.0110271
0.0108152
0.0113386
0.0113586
0.0108695
0.0112246
0.00777161
0.0108169
0.0102411
0.0108159
0.0112971
0.0108277
0.0105974
0.0107963
0.0103868
0.0110483
0.0108484
0.0105957
0.0102681
0.00989959
0.00992305
0.0107775
0.0102978
0.0108709
0.0102723
0.010771
0.0112894
0.011003
0.0107877
0.0109535
0.0111567
0.0108783
0.0111668
0.0101003
0.0109853
0.0113241
0.0113534
0.0107447
0.0115107
0.010531
0.0111817
0.0108226
0.0101674
0.0112989
0.0113342
0.0110737
0.0110114
0.011251
0.0110505
0.00991388
0.00999343
0.0107611
0.0114172
0.0109694
0.0112547
0.0106737
0.0107944
0.0104565
0.0102011
0.0102139
0.0101795
0.0111173
0.0110147
0.0112467
0.0106843
0.010707
0.0115187
0.0103319
0.0108683
0.0114368
0.0112808
0.0105268
0.0107792
0.0111594
0.0113159
0.0113197
0.00936726
0.0110969
0.0112431
0.010989
0.0108716
0.0114244
0.0112018
0.011333
0.0110247
0.010579
0.0109644
0.0113357
0.0110798
0.0107951
0.0102834
0.0112845
0.0112956
0.0112465
0.011207
0.010031
0.00974548
0.0107666
0.0111638
0.010836
0.0110104
0.0111555
0.0111942
0.0111977
0.0107173
0.0111998
0.0109295
0.0112562
0.0103918
0.0103788
0.0107534
0.011447
0.0103608
0.0112129
0.0102891
0.0108355
0.0109131
0.0114801
0.0108956
0.0112522
0.0114329
0.0112397
0.010995
0.0112231
0.0108965
0.0107018
0.00996791
0.0114451
0.00965041
0.0102391
0.00950775
0.00994294
0.0100817
0.0108044
0.0110168
0.0103187
0.0106625
0.00978815
0.0103785
0.0105748
0.0113676
0.010114
0.0102058
0.01117
0.0101287
0.0107257
0.0110674
0.0111835
0.0107479
0.0102568
0.009987
0.0106193
0.011469
0.0105413
0.0101409
0.0111251
0.0106805
0.0109941
0.0108585
0.0103788
0.0112875
0.00994496
0.0101973
0.0108002
0.0113118
0.0107186
0.0108376
0.0108818
0.0108872
0.00989874
0.0104323
0.0107405
0.0112115
0.0111594
0.010203
0.0098066
0.0107944
0.0114004
0.0108112
0.010915
0.0105025
0.0107443
0.0108517
0.0101994
0.0113232
0.010639
0.0101718
0.00980683
0.0111084
0.0108885
0.0113388
0.0109499
0.0112355
0.0102534
0.0107845
0.0099605
0.00982214
0.0112902
0.0103844
0.0109138
0.0109199
0.0105359
0.010185
0.011343
0.011214
0.0113735
0.0110483
0.00958546
0.0108487
0.00991193
0.0113493
0.0103357
0.0113
0.00979018
0.0110888
0.0111842
0.0106412
0.0106828
0.00993667
0.0105701
0.0108571
0.0111545
0.0110949
0.0113746
0.0112381
0.0103204
0.0113627
0.00990284
0.0109904
0.011092
0.0112769
0.0112685
0.0106445
0.011414
0.0108416
0.0106432
0.0106104
0.0109645
0.0112354
0.0105578
0.0102892
0.011347
0.0111443
0.0107638
0.0113561
0.0110365
0.0110903
0.0111696
0.0112025
0.0112462
0.010788
0.010748
0.0112657
0.0111918
0.00982934
0.0108501
0.0104529
0.0113901
0.0110647
0.0112671
0.0102168
0.0101741
0.0109419
0.0110313
0.011068
0.0111693
0.0112238
0.0108921
0.0111244
0.0103122
0.0110769
0.0107886
0.0113295
0.011254
0.0113021
0.0110241
0.0113272
0.010565
0.0112971
0.0104837
0.010746
0.0107171
0.0109515
0.0107503
0.0111198
0.0100917
0.0112715
0.0111278
0.0108126
0.0102343
0.0113431
0.0110563
0.0112365
0.0107994
0.0108932
0.0112366
0.0101692
0.0112952
0.0109088
0.0109552
0.0104848
0.0105792
0.0106562
0.0101512
0.0107042
0.0114697
0.0109975
0.00981224
0.0110245
0.0100992
0.0110504
0.0110695
0.00998929
0.0100346
0.0106286
0.0109773
0.0112325
0.0106838
0.0107719
0.0108798
0.00986889
0.010731
0.0113028
0.0112599
0.0113019
0.0108889
0.0111275
0.0103084
0.0103238
0.0114575
0.0109049
0.0110875
0.011142
0.0114371
0.0109566
0.0109491
0.00996779
0.0110205
0.0112545
0.0106299
0.0112781
0.0111805
0.0110327
0.0103624
0.0110763
0.01076
0.00974947
0.0109902
0.0104785
0.0102188
0.0110639
0.0109277
0.0112449
0.0112287
0.0110108
0.0114563
0.00973493
0.0106716
0.0112876
0.011368
0.00996509
0.0110951
0.0103468
0.0105067
0.0113334
0.0105283
0.0110699
0.0114669
0.011146
0.00989649
0.0111512
0.0103006
0.0112392
0.0110855
0.0110247
0.0112631
0.0109827
0.011219
0.0102025
0.0111196
0.01127
0.0103006
0.011029
0.0109042
0.0107382
0.0112256
0.0107492
0.0112489
0.0113717
0.011345
0.0108335
0.0112331
0.0109501
0.0110958
0.0105631
0.0104853
0.0101503
0.00999539
0.0110672
0.0111454
0.0108757
0.0113922
0.010472
0.0113588
0.00999504
0.0114558
0.0113957
0.0111601
0.011355
0.0105468
0.00995618
0.0108071
0.0102477
0.0112675
0.0108863
0.0100223
0.0107666
0.0114933
0.0111125
0.0101446
0.0105292
0.00993763
0.011496
0.0101731
0.0112359
0.0104288
0.0103867
0.0113396
0.0113292
0.0112975
0.0110999
0.0100331
0.0109755
0.0113538
0.0103453
0.0113995
0.0108994
0.0114762
0.00977731
0.0110425
0.0105458
0.0109877
0.0106552
0.0107229
0.0107046
0.0105745
0.01081
0.0108355
0.0109122
0.0107299
0.0114144
0.0103073
0.0108418
0.0108627
0.0110994
0.011392
0.0103793
0.0111727
0.0102615
0.0107741
0.0112721
0.0112249
0.0108338
0.0110743
0.0111088
0.0105443
0.0108435
0.0107993
0.0101191
0.0100849
0.0110975
0.0111802
0.0103771
0.0107705
0.0111848
0.0102733
0.0109941
0.0103901
0.0111226
0.011366
0.0108667
0.0101915
0.0111968
0.0100411
0.0110486
0.0114178
0.00971809
0.0115539
0.0103073
0.0107228
0.0106279
0.0101954
0.0107354
0.0105918
0.00997939
0.0113362
0.0113016
0.0096483
0.0106922
0.0109258
0.0109541
0.0110801
0.0114271
0.0112431
0.0105958
0.0104956
0.00999871
0.00987586
0.00926265
0.0113766
0.0109954
0.011084
0.01114
0.0101784
0.0100917
0.0107884
0.011275
0.00997423
0.0111312
0.0108427
0.0108896
0.0110544
0.0105698
0.0110753
0.0107052
0.0109018
0.0113721
0.00959715
0.0109022
0.0109901
0.011244
0.0110275
0.0112255
0.0109428
0.0102428
0.0114241
0.0116679
0.0108867
0.0107952
0.0102665
0.010689
0.0110713
0.0112869
0.0107892
0.0107663
0.010662
0.00994963
0.0106566
0.0113404
0.0107745
0.0115654
0.0109134
0.0107454
0.0113577
0.0102068
0.0111389
0.0101565
0.0113671
0.0110955
0.0106844
0.011561
0.0106455
0.0108957
0.0113493
0.0107696
0.0111492
0.0107653
0.0111417
0.0102018
0.0108775
0.0108243
0.0103727
0.0111869
0.0106268
0.0105707
0.0113467
0.0102871
0.0113277
0.0108008
0.0112529
0.0105303
0.0110151
0.010248
0.010269
0.0113126
0.0102846
0.0107937
0.0111835
0.00997873
0.0108109
0.0111522
0.0106732
0.0101578
0.0105763
0.0108296
0.010696
0.0110347
0.0108635
0.0111946
0.0106779
0.0112453
0.00984464
0.0101007
0.0113692
0.010634
0.00997502
0.0101629
0.0109056
0.0089727
0.0101101
0.0108703
0.0108399
0.0114703
0.0103652
0.0112372
0.0112641
0.0113341
0.0112575
0.0114036
0.0107343
0.0105879
0.011201
0.0106842
0.0106013
0.0111481
0.0107138
0.00985196
0.0101236
0.0107768
0.00944157
0.0111293
0.0111473
0.0106318
0.011187
0.0112365
0.0109554
0.0115953
0.0105624
0.0100774
0.010683
0.0107689
0.011112
0.0106153
0.010981
0.0113393
0.0107582
0.0106024
0.0108926
0.0114462
0.0111859
0.0115745
0.0112473
0.0108594
0.0109772
0.0104599
0.0106092
0.0114167
0.0105576
0.0114064
0.0106195
0.0111904
0.00965329
0.0110888
0.010847
0.011006
0.0104961
0.011109
0.0108186
0.0111979
0.0096956
0.0105268
0.0108562
0.0106604
0.0109485
0.0108888
0.0109157
0.0112773
0.010959
0.00999338
0.0105218
0.0101743
0.0109462
0.0108678
0.0102282
0.0115534
0.0109569
0.0109349
0.011244
0.0104649
0.0102542
0.0113711
0.0102264
0.0100302
0.00992546
0.00997518
0.00982659
0.0106425
0.0113937
0.0112595
0.0108218
0.010919
0.0111248
0.0106157
0.0111154
0.010009
0.0112702
0.00783587
0.011116
0.0101042
0.00999899
0.0111592
0.010137
0.0110058
0.0111077
0.0112031
0.0103357
0.0110077
0.01081
0.0108568
0.010151
0.0112182
0.0110152
0.0112562
0.0109984
0.010225
0.0109079
0.0108507
0.0106432
0.00991638
0.0104594
0.0103999
0.0100032
0.0101305
0.0108682
0.0105977
0.0101621
0.0106028
0.0112146
0.0112692
0.0113819
0.00799363
0.0100476
0.0112474
0.010129
0.0111156
0.00995859
0.0113697
0.0111347
0.0111889
0.0102144
0.0108555
0.0113384
0.0113243
0.0110354
0.0112464
0.0108819
0.0109189
0.010824
0.0101184
0.0109572
0.010608
0.0105937
0.010613
0.00996663
0.0108221
0.0112708
0.0103769
0.0105197
0.0101291
0.0111246
0.0110843
0.00990839
0.0107491
0.0108685
0.0110617
0.0101875
0.0108949
0.010967
0.0116167
0.00905842
0.0109496
0.0107586
0.0100622
0.0113162
0.0104395
0.0103375
0.0110482
0.0113859
0.0100661
0.0112806
0.0110184
0.0101414
0.0100281
0.0112345
0.0113408
0.0101202
0.0109338
0.00998447
0.010511
0.0113693
0.010503
0.0110458
0.0109996
0.0114317
0.0106666
0.0106613
0.0104764
0.0107952
0.0109771
0.0105886
0.011195
0.0102156
0.0101844
0.0109786
0.0107859
0.011151
0.0106209
0.0111791
0.0110999
0.0109665
0.011261
0.0110907
0.0107061
0.010344
0.0111233
0.0107514
0.0105601
0.0109921
0.011415
0.0111731
0.0106813
0.010107
0.010986
0.0104288
0.00992896
0.0105377
0.0107843
0.00989174
0.0110667
0.0103387
0.00950726
0.0100702
0.0109974
0.00952223
0.0107152
0.0111494
0.0109562
0.0100148
0.0109808
0.0116099
0.0102068
0.00987436
0.0103006
0.0111389
0.0108387
0.0107146
0.0111951
0.0101221
0.0111986
0.0108926
0.0113728
0.0113307
0.00799544
0.0109246
0.0110727
0.0111267
0.0106
0.0107561
0.00931036
0.0108393
0.0113395
0.0106157
0.0100043
0.0107858
0.0111422
0.0110294
0.00990126
0.0109788
0.0111976
0.0113396
0.0108063
0.0109655
0.00994461
0.0100179
0.00998853
0.0108821
0.0107407
0.0110482
0.0114427
0.0112009
0.00971386
0.0112624
0.0112318
0.011164
0.0106754
0.0112592
0.0103427
0.0103394
0.0106682
0.0108467
0.0104446
0.00989113
0.0110463
0.010574
0.0111688
0.0104222
0.00946715
0.0106025
0.0111185
0.0108896
0.0102567
0.0104877
0.0111689
0.0112447
0.0105012
0.0107446
0.0111246
0.011369
0.0110909
0.0114052
0.0110561
0.0110551
0.00989039
0.0108883
0.0102578
0.0111977
0.0108869
0.0105568
0.0100764
0.0114013
0.00987646
0.0106171
0.0100327
0.0106346
0.0096041
0.0108101
0.0108176
0.0108342
0.0106711
0.0104783
0.0112373
0.010171
0.0110914
0.0106007
0.010757
0.00967663
0.0111226
0.0108023
0.0102816
0.0104848
0.0108242
0.0107728
0.0108882
0.00900161
0.010956
0.0106999
0.0107635
0.0104231
0.0105657
0.0105463
0.00911552
0.0111637
0.0108523
0.00651551
0.0103146
0.0111606
0.0111369
0.0111087
0.0103625
0.00917544
0.0112225
0.0102517
0.0111795
0.0114104
0.0108729
0.0103848
0.0112727
0.00997791
0.00963835
0.00973172
0.0109314
0.0107811
0.010506
0.0114114
0.0111372
0.0109557
0.0103737
0.00979928
0.011468
0.0109497
0.0115069
0.0111522
0.0100765
0.0105893
0.010828
0.0101394
0.0108259
0.0106451
0.0109091
0.0116531
0.0107821
0.0108587
0.0101789
0.0106639
0.0105129
0.0109689
0.0107064
0.00998139
0.0102692
0.0109336
0.0111186
0.0101205
0.0110148
0.0104545
0.0111177
0.0102127
0.0102031
0.00909248
0.0112841
0.0112285
0.0110401
0.0111264
0.010624
0.0101577
0.00993509
0.00926915
0.0108019
0.00996666
0.0106952
0.0105714
0.0111529
0.0106218
0.0111322
0.0103077
0.00677212
0.0102098
0.0111723
0.00733855
0.0108907
0.0114774
0.010754
0.0114051
0.0100624
0.010266
0.0103255
0.0113655
0.00884483
0.0113158
0.0102266
0.0093824
0.0111869
0.0102957
0.0112607
0.00712585
0.0097676
0.0108931
0.0111407
0.0113546
0.011074
0.0112796
0.0110644
0.0110622
0.0112417
0.0111028
0.0108097
0.0104828
0.00904897
0.0111263
0.0104641
0.0105426
0.0112565
0.0112606
0.0108484
0.00992899
0.0113424
0.0111139
0.0107249
0.0101209
0.00999218
0.0110513
0.0112323
0.0112602
0.0111987
0.0108008
0.0109457
0.0100652
0.0111359
0.0108259
0.0110584
0.0105375
0.0100118
0.00939359
0.0106678
0.0115557
0.0110746
0.0106783
0.0103159
0.0106381
0.0101864
0.0100162
0.0111137
0.0105249
0.00842806
0.00889027
0.00950076
0.0100828
0.0108836
0.0105946
0.010717
0.0106038
0.00963948
0.0107511
0.011192
0.00966449
0.0115587
0.00983535
0.0112326
0.0102767
0.011203
0.0110235
0.0109626
0.0110758
0.0104899
0.010128
0.0103645
0.0104988
0.0110625
0.0108579
0.0103347
0.0103059
0.0108705
0.00992071
0.0108187
0.010358
0.0111263
0.010419
0.0106946
0.00846451
0.0112444
0.0113831
0.0108885
0.0111263
0.010698
0.0107263
0.0109826
0.0110196
0.0110109
0.0112987
0.010986
0.00989866
0.00981443
0.0115808
0.0100705
0.00988292
0.00980333
0.0108541
0.0112824
0.0107277
0.0114273
0.0115488
0.0112455
0.0111186
0.0106041
0.0100299
0.0106809
0.00942893
0.0110001
0.0107605
0.0106271
0.0106403
0.0103784
0.0106833
0.0113475
0.00966933
0.0103683
0.0107082
0.00974939
0.0111788
0.00932957
0.0096087
0.00990368
0.0109493
0.0102714
0.00997353
0.0103052
0.00993456
0.0107535
0.00903456
0.00904444
0.0107139
0.0100298
0.00967617
0.0107427
0.0100654
0.0104789
0.0106529
0.0103604
0.00994057
0.0107571
0.0102058
0.0103787
0.00992502
0.0104991
0.0104538
0.00931074
0.0112055
0.0106554
0.0107393
0.0103081
0.0101739
0.00990956
0.0107425
0.0107067
0.0112484
0.0108771
0.0109843
0.010534
0.0108779
0.0111684
0.0110289
0.00873581
0.00899431
0.00976096
0.0111118
0.00984909
0.0109091
0.0088761
0.010418
0.0108754
0.0103635
0.0105602
0.0104655
0.0104783
0.0105166
0.011378
0.010246
0.0104642
0.0113504
0.00972271
0.0105243
0.0100391
0.0111341
0.0103579
0.00984088
0.0106809
0.00998241
0.00911922
0.00932495
0.0100283
0.0103055
0.00928307
0.0113167
0.0102949
0.00975678
0.0104533
0.0111387
0.0104839
0.00951597
0.0113717
0.0107528
0.00995559
0.0104098
0.0107847
0.00995007
0.0106583
0.0107551
0.0104631
0.00989365
0.0097087
0.0106382
0.0102226
0.00946055
0.00960889
0.00960373
0.0106193
0.00972534
0.0111586
0.0107099
0.0106111
0.0104235
0.0111726
0.0100042
0.0106727
0.0104308
0.007084
0.0111922
0.00953149
0.0106611
0.011042
0.0111661
0.00916522
0.0108877
0.0112961
0.0100841
0.010757
0.01047
0.0102499
0.00906661
0.0106155
0.010116
0.0112062
0.0115078
0.0103542
0.01123
0.0100709
0.0101306
0.00980539
0.00879126
0.00914757
0.0112602
0.00939976
0.0110414
0.0100586
0.00948411
0.0104776
0.0113473
0.00923443
0.00740508
0.0100265
0.0109395
0.0109832
0.0108732
0.00686246
0.0104757
0.0109076
0.0109332
0.0112877
0.0103508
0.00931829
0.0111478
0.00930757
0.0106668
0.0103989
0.0102413
0.0102354
0.0107561
0.0100189
0.010009
0.00926698
0.0100822
0.0109302
0.0105444
0.0105262
0.00972498
0.0102877
0.0102973
0.0100618
0.0109872
0.00962191
0.00995183
0.010829
0.0110175
0.00970162
0.0109742
0.0101606
0.0114522
0.00934169
0.0111394
0.0104481
0.0108517
0.0108038
0.0101874
0.00995711
0.0114022
0.0105564
0.0107035
0.0104813
0.00986741
0.0109145
0.0110476
0.00980485
0.00997389
0.0102076
0.00954239
0.0102731
0.0106556
0.00929746
0.0113568
0.00929501
0.0103005
0.0105615
0.00934831
0.0102028
0.01043
0.00988546
0.010479
0.0100102
0.0106537
0.0094191
0.010889
0.0094641
0.010254
0.00847618
0.0105393
0.00954148
0.00976742
0.0108416
0.00976386
0.0101158
0.011365
0.0108084
0.0107925
0.0110951
0.00940077
0.0106086
0.0102165
0.0106435
0.0107121
0.0103365
0.0112297
0.010858
0.00981214
0.00973521
0.0108684
0.0105655
0.0105874
0.00911123
0.0110999
0.0113758
0.010993
0.0105322
0.00996561
0.0101026
0.0104165
0.00961837
0.0100032
0.0108536
0.0103689
0.0101579
0.01038
0.0102844
0.0104683
0.00942894
0.0101367
0.00982942
0.00919728
0.011207
0.0104825
0.00990907
0.0111015
0.0104497
0.0103771
0.0106639
0.00924551
0.00976092
0.00962389
0.00957078
0.0113976
0.0107332
0.00901422
0.0111679
0.0093767
0.0104596
0.0107074
0.0104246
0.0109744
0.0103063
0.0105564
0.0102966
0.0102158
0.0101833
0.0109515
0.00957327
0.00981604
0.0102506
0.0092072
0.0101985
0.00924941
0.010062
0.0110692
0.0106409
0.00902076
0.00908144
0.00978878
0.00959695
0.0100834
0.00993092
0.0103395
0.0108145
0.00897822
0.0107583
0.0105297