/*--------------------------------*- C++ -*----------------------------------*\
| =========                 |                                                 |
| \\      /  F ield         | OpenFOAM: The Open Source CFD Toolbox           |
|  \\    /   O peration     | Version:  2212                                  |
|   \\  /    A nd           | Website:  www.openfoam.com                      |
|    \\/     M anipulation  |                                                 |
\*---------------------------------------------------------------------------*/
FoamFile
{
    version     2.0;
    format      ascii;
    arch        "LSB;label=32;scalar=64";
    class       volScalarField;
    location    "0.05";
    object      nut;
}
// * * * * * * * * * * * * * * * * * * * * * * * * * * * * * * * * * * * * * //

dimensions      [0 2 -1 0 0 0 0];

internalField   nonuniform List<scalar> 
31639
(
3.57503e-05
3.44816e-05
3.51226e-05
3.83701e-05
3.43552e-05
3.34855e-05
3.26145e-05
3.60172e-05
3.52033e-05
3.72634e-05
3.68038e-05
3.71113e-05
3.51893e-05
3.77737e-05
3.35442e-05
3.14184e-05
3.59812e-05
3.3211e-05
3.14119e-05
3.48369e-05
2.68352e-05
3.72775e-05
3.77102e-05
3.15407e-05
3.07633e-05
3.4833e-05
3.47092e-05
2.94927e-05
3.27594e-05
3.788e-05
3.7356e-05
3.22744e-05
3.78689e-05
3.07827e-05
2.85452e-05
3.77163e-05
2.53074e-05
3.88069e-05
3.75791e-05
2.43112e-05
2.8415e-05
2.82914e-05
3.70368e-05
3.6958e-05
3.66563e-05
3.73173e-05
3.3546e-05
3.33343e-05
3.60203e-05
3.80751e-05
3.72023e-05
2.50571e-05
3.79406e-05
2.62051e-05
3.26662e-05
3.52216e-05
2.69675e-05
3.48749e-05
3.42952e-05
2.71293e-05
3.46996e-05
3.66806e-05
3.0864e-05
3.45249e-05
3.54165e-05
3.82832e-05
3.45997e-05
3.48504e-05
2.96238e-05
3.80561e-05
3.73216e-05
3.19127e-05
3.6615e-05
3.4984e-05
3.73867e-05
2.85391e-05
3.70214e-05
3.319e-05
3.35412e-05
3.61962e-05
3.10358e-05
2.39604e-05
3.77115e-05
3.55926e-05
3.58713e-05
3.70829e-05
3.79161e-05
3.76126e-05
2.94578e-05
3.83343e-05
3.53054e-05
3.49548e-05
2.76178e-05
3.38377e-05
3.00483e-05
3.38288e-05
3.3593e-05
3.48281e-05
3.51801e-05
2.7401e-05
3.77197e-05
3.68618e-05
3.38779e-05
2.66806e-05
2.7266e-05
3.75089e-05
2.66926e-05
2.55581e-05
3.00722e-05
2.636e-05
3.6671e-05
2.76399e-05
3.38566e-05
3.22895e-05
3.49396e-05
2.61832e-05
3.35586e-05
3.37603e-05
3.60487e-05
3.42333e-05
3.65702e-05
3.68928e-05
3.67836e-05
3.52358e-05
3.48711e-05
3.7494e-05
3.47123e-05
3.04295e-05
2.95494e-05
3.67098e-05
3.7333e-05
3.70191e-05
3.74085e-05
3.28228e-05
3.66459e-05
3.48517e-05
2.72921e-05
2.60362e-05
3.68104e-05
3.48198e-05
3.47109e-05
3.70466e-05
3.72544e-05
2.61918e-05
2.49711e-05
3.77225e-05
3.63602e-05
2.80163e-05
2.79945e-05
3.71236e-05
3.02529e-05
3.56832e-05
3.1546e-05
3.61145e-05
2.89868e-05
3.81452e-05
3.44287e-05
2.91719e-05
2.88327e-05
3.14024e-05
3.75801e-05
2.91543e-05
3.04161e-05
2.6854e-05
2.76324e-05
3.39534e-05
2.86908e-05
3.80756e-05
3.70187e-05
2.65729e-05
3.28837e-05
3.26856e-05
2.8275e-05
3.49434e-05
3.83531e-05
3.62128e-05
3.52704e-05
3.80606e-05
3.50543e-05
3.49716e-05
3.36553e-05
3.34614e-05
3.31334e-05
2.48838e-05
3.49732e-05
3.85632e-05
3.42962e-05
3.79193e-05
2.76787e-05
2.74962e-05
3.91692e-05
3.66008e-05
3.61488e-05
3.42917e-05
3.49379e-05
3.29866e-05
3.26934e-05
3.67038e-05
2.69361e-05
3.28842e-05
3.75174e-05
3.82989e-05
3.66058e-05
3.63489e-05
3.42224e-05
3.42306e-05
3.39245e-05
3.31666e-05
3.71846e-05
2.48733e-05
3.43551e-05
3.31175e-05
3.57891e-05
3.69442e-05
3.65326e-05
3.77306e-05
2.84946e-05
3.14582e-05
3.69733e-05
3.65176e-05
3.60774e-05
3.39133e-05
2.68941e-05
3.38365e-05
2.70685e-05
3.32211e-05
3.66776e-05
3.14287e-05
2.81572e-05
3.59549e-05
3.56546e-05
3.83944e-05
2.91829e-05
2.73943e-05
3.58585e-05
3.61795e-05
2.70683e-05
3.79108e-05
3.05247e-05
2.66632e-05
3.37316e-05
3.58568e-05
3.44211e-05
3.16634e-05
3.10694e-05
3.61047e-05
3.36887e-05
3.30565e-05
2.82705e-05
3.42086e-05
3.33331e-05
2.84699e-05
3.1702e-05
3.80148e-05
3.67194e-05
3.23728e-05
2.871e-05
3.65079e-05
3.64938e-05
3.44682e-05
3.82177e-05
3.74493e-05
3.47561e-05
3.74931e-05
3.35466e-05
3.3529e-05
2.63139e-05
3.11029e-05
3.75718e-05
3.32677e-05
3.58009e-05
3.2124e-05
3.45056e-05
3.81717e-05
3.83409e-05
3.53066e-05
2.74405e-05
3.33671e-05
3.04179e-05
3.73397e-05
3.37234e-05
3.78626e-05
3.80721e-05
3.27175e-05
2.81342e-05
3.037e-05
2.89263e-05
2.68833e-05
3.73002e-05
2.95197e-05
3.67503e-05
3.39848e-05
3.1824e-05
2.90407e-05
3.85777e-05
3.24475e-05
3.19354e-05
3.72369e-05
3.48378e-05
3.06862e-05
3.39528e-05
2.96918e-05
3.46964e-05
3.38747e-05
2.82546e-05
3.26338e-05
3.31485e-05
2.39571e-05
2.57063e-05
3.7238e-05
3.77992e-05
3.62211e-05
2.67793e-05
2.90985e-05
3.64955e-05
2.97149e-05
2.95802e-05
3.76519e-05
3.84867e-05
3.36514e-05
3.71735e-05
3.80285e-05
2.85239e-05
3.73738e-05
2.62136e-05
2.63814e-05
3.7644e-05
3.71596e-05
3.73827e-05
3.82117e-05
3.64535e-05
2.9102e-05
3.44183e-05
3.40435e-05
3.75522e-05
3.82562e-05
3.86096e-05
3.39538e-05
3.29576e-05
3.60932e-05
3.65241e-05
3.55658e-05
3.34775e-05
3.37807e-05
3.36417e-05
3.41012e-05
3.58142e-05
3.38268e-05
2.84249e-05
3.52675e-05
3.83012e-05
3.27636e-05
3.71881e-05
3.7907e-05
3.43473e-05
2.82454e-05
3.42298e-05
3.41278e-05
2.66977e-05
3.87155e-05
2.93582e-05
3.51147e-05
3.68749e-05
2.58935e-05
3.45148e-05
3.42754e-05
2.74931e-05
3.4807e-05
2.88312e-05
3.41735e-05
3.78262e-05
3.58033e-05
2.56404e-05
3.53169e-05
2.89537e-05
3.54131e-05
3.72778e-05
3.76308e-05
3.72581e-05
2.93195e-05
3.68877e-05
2.69397e-05
3.36238e-05
2.64579e-05
3.78618e-05
3.68644e-05
3.74879e-05
3.71502e-05
3.05117e-05
3.79247e-05
3.42839e-05
3.6066e-05
3.40344e-05
2.96056e-05
3.40514e-05
3.61827e-05
3.59902e-05
3.64402e-05
3.48184e-05
3.64273e-05
3.3526e-05
2.84589e-05
3.38769e-05
3.58817e-05
3.61702e-05
2.57623e-05
3.74666e-05
3.71772e-05
3.40943e-05
3.58089e-05
3.62426e-05
3.46731e-05
3.80048e-05
2.71161e-05
3.55291e-05
3.73848e-05
2.59635e-05
3.44712e-05
3.55913e-05
2.89419e-05
2.73288e-05
2.73663e-05
3.21689e-05
2.71587e-05
3.39836e-05
3.38078e-05
3.2069e-05
3.76955e-05
2.79557e-05
3.68965e-05
3.78081e-05
3.44508e-05
3.67636e-05
3.28656e-05
3.7467e-05
3.41359e-05
3.4715e-05
3.82406e-05
3.4352e-05
2.7726e-05
3.46778e-05
3.74104e-05
3.72048e-05
3.61351e-05
3.77904e-05
3.35308e-05
3.53862e-05
3.67734e-05
3.81766e-05
3.72975e-05
2.85381e-05
3.38977e-05
2.4821e-05
3.35424e-05
3.3817e-05
2.79014e-05
2.6815e-05
3.24338e-05
3.64605e-05
3.69074e-05
2.74388e-05
3.62345e-05
3.1627e-05
3.42002e-05
3.6436e-05
2.60343e-05
3.39228e-05
2.63348e-05
3.33481e-05
3.7328e-05
3.81563e-05
3.66374e-05
3.38172e-05
2.63067e-05
3.59628e-05
3.48197e-05
3.626e-05
2.67903e-05
2.82987e-05
3.41275e-05
2.75583e-05
2.88903e-05
3.50005e-05
2.65664e-05
3.29137e-05
2.68214e-05
3.59439e-05
2.80265e-05
3.81035e-05
3.70512e-05
3.69284e-05
3.74822e-05
3.09938e-05
3.68537e-05
3.73827e-05
3.47776e-05
3.67741e-05
3.47568e-05
3.69945e-05
3.79199e-05
3.18772e-05
3.72209e-05
3.77524e-05
3.42806e-05
3.10556e-05
3.822e-05
3.46668e-05
2.55883e-05
2.61659e-05
3.45293e-05
3.77562e-05
3.78195e-05
3.41222e-05
3.86976e-05
3.80973e-05
3.64314e-05
3.4905e-05
3.30433e-05
3.32439e-05
2.88099e-05
3.42988e-05
3.54866e-05
3.79054e-05
3.02871e-05
2.99487e-05
2.95371e-05
3.3073e-05
3.40094e-05
2.52049e-05
3.59417e-05
3.16032e-05
3.59154e-05
3.41115e-05
3.71619e-05
3.39263e-05
2.86309e-05
3.58465e-05
3.77827e-05
3.00312e-05
3.69248e-05
3.80706e-05
3.39586e-05
3.40667e-05
2.94802e-05
2.97365e-05
3.4296e-05
3.46151e-05
2.89159e-05
2.83904e-05
3.47496e-05
3.03222e-05
3.59464e-05
3.05503e-05
3.33658e-05
3.74192e-05
3.43352e-05
2.69952e-05
3.15475e-05
3.47561e-05
3.77209e-05
2.77101e-05
2.46478e-05
3.70181e-05
2.69979e-05
3.52051e-05
3.83568e-05
2.80139e-05
3.44239e-05
3.71095e-05
3.42081e-05
2.72745e-05
3.72632e-05
3.41818e-05
2.77528e-05
3.6953e-05
3.51451e-05
3.3803e-05
3.61701e-05
2.57672e-05
3.12705e-05
3.51056e-05
3.25837e-05
3.21189e-05
3.3867e-05
3.75127e-05
3.71693e-05
3.59911e-05
3.72451e-05
3.76018e-05
3.66355e-05
3.0616e-05
3.67119e-05
3.75171e-05
3.81596e-05
3.00644e-05
3.48145e-05
3.47588e-05
3.93197e-05
2.89857e-05
2.55132e-05
3.79062e-05
2.95534e-05
3.887e-05
3.33454e-05
2.84975e-05
3.46963e-05
3.73245e-05
3.50196e-05
3.55449e-05
2.64896e-05
3.64544e-05
3.47634e-05
2.60822e-05
3.76973e-05
3.69443e-05
2.87654e-05
2.81398e-05
2.93749e-05
3.22967e-05
3.52651e-05
3.48448e-05
3.41866e-05
3.46605e-05
3.72075e-05
3.44676e-05
3.41163e-05
2.83178e-05
3.83489e-05
2.66869e-05
3.43859e-05
3.32824e-05
3.21715e-05
3.83364e-05
3.44173e-05
3.03433e-05
2.68314e-05
2.79014e-05
3.32116e-05
3.74516e-05
2.98798e-05
3.82257e-05
3.40999e-05
3.71288e-05
2.828e-05
3.33164e-05
3.63667e-05
3.84598e-05
3.77014e-05
3.67691e-05
3.48289e-05
3.42818e-05
3.81057e-05
3.80514e-05
3.73919e-05
3.05129e-05
3.71996e-05
2.83796e-05
3.76688e-05
3.56534e-05
3.41254e-05
2.9251e-05
3.36322e-05
2.46028e-05
3.77284e-05
3.4821e-05
3.83909e-05
3.38867e-05
3.24606e-05
2.80024e-05
3.72428e-05
2.69614e-05
2.52564e-05
2.87621e-05
3.07225e-05
2.82238e-05
3.40546e-05
2.70252e-05
3.68938e-05
3.54411e-05
2.53994e-05
3.79543e-05
2.87767e-05
3.09453e-05
3.3397e-05
3.20036e-05
3.61902e-05
3.79096e-05
3.85144e-05
3.70865e-05
3.38976e-05
3.5156e-05
3.26907e-05
3.28736e-05
2.69546e-05
2.04385e-05
3.79207e-05
3.38406e-05
3.63334e-05
3.71692e-05
2.75594e-05
3.74284e-05
3.75205e-05
3.66235e-05
3.68779e-05
3.64461e-05
3.53467e-05
3.81976e-05
3.8423e-05
3.47107e-05
3.70933e-05
3.70399e-05
2.91589e-05
3.7279e-05
3.1888e-05
3.55683e-05
3.27971e-05
3.41289e-05
3.116e-05
3.83346e-05
3.3798e-05
3.46843e-05
3.35834e-05
2.90378e-05
3.82653e-05
3.49982e-05
3.2216e-05
2.84074e-05
3.65631e-05
2.65465e-05
3.74709e-05
3.6194e-05
3.26054e-05
3.71974e-05
3.86597e-05
3.73442e-05
2.71211e-05
3.49931e-05
3.35352e-05
3.47155e-05
2.91085e-05
3.70554e-05
3.72293e-05
3.28565e-05
3.44838e-05
3.28923e-05
3.59973e-05
3.21523e-05
3.36626e-05
2.63481e-05
3.67809e-05
3.54014e-05
3.69739e-05
3.10076e-05
3.45094e-05
3.56015e-05
3.44124e-05
3.16651e-05
3.61736e-05
3.68405e-05
3.3693e-05
2.64551e-05
2.6291e-05
3.40334e-05
2.53597e-05
2.84029e-05
3.50076e-05
3.52488e-05
3.72398e-05
2.61754e-05
3.39743e-05
3.77566e-05
2.96221e-05
2.70963e-05
3.50785e-05
2.89153e-05
3.56674e-05
2.98731e-05
3.70901e-05
3.07389e-05
3.19038e-05
3.8152e-05
2.63382e-05
3.31869e-05
3.36718e-05
3.69843e-05
3.77016e-05
3.77348e-05
2.89405e-05
3.62608e-05
3.73961e-05
3.19324e-05
3.81056e-05
3.69763e-05
3.55114e-05
3.71109e-05
3.48729e-05
3.81792e-05
3.85778e-05
3.81761e-05
3.61408e-05
3.22041e-05
3.55532e-05
3.45349e-05
2.72009e-05
3.35574e-05
3.62426e-05
3.73642e-05
3.77219e-05
3.39379e-05
3.79343e-05
3.71979e-05
3.32847e-05
3.69184e-05
3.71123e-05
3.59816e-05
3.65974e-05
2.78994e-05
3.28257e-05
3.6573e-05
2.54187e-05
3.45314e-05
3.38692e-05
3.34827e-05
3.35845e-05
3.82425e-05
3.64235e-05
3.72392e-05
3.34423e-05
3.62573e-05
3.47525e-05
3.73805e-05
3.51099e-05
3.28928e-05
2.85642e-05
3.72582e-05
2.89835e-05
3.32236e-05
3.37042e-05
3.3283e-05
3.52374e-05
3.80978e-05
2.80659e-05
3.75629e-05
2.86854e-05
3.55596e-05
3.25754e-05
3.3549e-05
3.4004e-05
3.78247e-05
2.76299e-05
3.62649e-05
3.73482e-05
3.72794e-05
3.50611e-05
3.42811e-05
2.51395e-05
3.70314e-05
3.69127e-05
3.55954e-05
3.67279e-05
3.73103e-05
3.52552e-05
3.56763e-05
3.48215e-05
2.93484e-05
3.34079e-05
3.7957e-05
2.67556e-05
2.97825e-05
3.89652e-05
3.7085e-05
3.15315e-05
3.30611e-05
3.46684e-05
3.11971e-05
3.40772e-05
3.01439e-05
3.69553e-05
3.75685e-05
2.52854e-05
3.49321e-05
3.77906e-05
3.6836e-05
3.81402e-05
3.38427e-05
3.72398e-05
2.93463e-05
2.91628e-05
3.79074e-05
3.70748e-05
3.46029e-05
2.96164e-05
3.68188e-05
3.70674e-05
3.06101e-05
3.77453e-05
3.73962e-05
3.7557e-05
3.57433e-05
3.69343e-05
3.50171e-05
3.54793e-05
3.39857e-05
3.18408e-05
2.75776e-05
3.50795e-05
3.49593e-05
2.93231e-05
3.76621e-05
2.6953e-05
3.32992e-05
3.37319e-05
2.84312e-05
3.37103e-05
3.21705e-05
3.55644e-05
3.43691e-05
3.67601e-05
2.80409e-05
2.80012e-05
3.31705e-05
2.77235e-05
3.26144e-05
3.72253e-05
3.39224e-05
3.74125e-05
3.4305e-05
3.39477e-05
3.76513e-05
3.22813e-05
3.46774e-05
3.41028e-05
3.39113e-05
3.5179e-05
2.92415e-05
3.46493e-05
3.65891e-05
3.79205e-05
3.83238e-05
2.81319e-05
2.75167e-05
3.4498e-05
3.74157e-05
2.99543e-05
3.31213e-05
3.58582e-05
3.42118e-05
3.92117e-05
3.34797e-05
3.3499e-05
3.61833e-05
2.80505e-05
3.72667e-05
3.7814e-05
2.88808e-05
3.11552e-05
3.43525e-05
3.22782e-05
3.79795e-05
3.78924e-05
3.57219e-05
2.92919e-05
3.70656e-05
2.78575e-05
3.33417e-05
3.69657e-05
3.19408e-05
3.87094e-05
2.63957e-05
3.46061e-05
3.56744e-05
3.4782e-05
2.65375e-05
2.73643e-05
3.72224e-05
3.79937e-05
3.24029e-05
3.80715e-05
3.56211e-05
3.4342e-05
2.7851e-05
3.02926e-05
3.53944e-05
3.40542e-05
3.42882e-05
3.82434e-05
3.78804e-05
3.84912e-05
3.80943e-05
3.53582e-05
3.51534e-05
3.65303e-05
2.86532e-05
3.69798e-05
3.61914e-05
3.52326e-05
3.52268e-05
3.78022e-05
3.34504e-05
3.79894e-05
3.3582e-05
2.55167e-05
3.84681e-05
3.11597e-05
3.71909e-05
3.20503e-05
3.74943e-05
2.9098e-05
3.62342e-05
3.87782e-05
3.38628e-05
3.46073e-05
2.68744e-05
3.69412e-05
3.72375e-05
3.58663e-05
2.76749e-05
3.92748e-05
3.39513e-05
3.57944e-05
3.7259e-05
3.74651e-05
3.67827e-05
3.41455e-05
3.38768e-05
3.84454e-05
2.90814e-05
2.94536e-05
2.8598e-05
3.04565e-05
3.52998e-05
2.72429e-05
3.805e-05
3.74782e-05
3.8157e-05
3.34244e-05
3.35222e-05
3.46837e-05
3.69582e-05
3.46932e-05
3.42488e-05
3.7598e-05
3.72395e-05
3.3698e-05
3.75111e-05
3.52465e-05
3.33694e-05
3.59057e-05
3.18265e-05
3.78571e-05
3.77203e-05
3.84212e-05
3.84162e-05
3.71617e-05
3.1502e-05
3.86683e-05
3.48501e-05
3.48535e-05
3.36327e-05
3.55722e-05
3.81403e-05
3.44549e-05
3.69021e-05
3.27644e-05
3.44025e-05
3.58964e-05
2.9509e-05
2.7071e-05
3.38641e-05
3.27962e-05
3.77141e-05
3.17845e-05
2.716e-05
3.50601e-05
3.71204e-05
3.06971e-05
3.19413e-05
3.48635e-05
3.81392e-05
3.72629e-05
3.35312e-05
3.08893e-05
3.45967e-05
3.66088e-05
3.24098e-05
3.44266e-05
3.46198e-05
2.67478e-05
3.21303e-05
3.23752e-05
3.59726e-05
3.69082e-05
3.43096e-05
3.72655e-05
3.6134e-05
3.43391e-05
3.46368e-05
2.87688e-05
3.05102e-05
2.66219e-05
3.70719e-05
3.54358e-05
3.82378e-05
4.00736e-05
3.63585e-05
2.73783e-05
3.68866e-05
3.25289e-05
3.55282e-05
3.5695e-05
3.70643e-05
2.73976e-05
3.80604e-05
2.84833e-05
3.49983e-05
3.46394e-05
3.40412e-05
3.87292e-05
3.33043e-05
3.61786e-05
2.97373e-05
3.37044e-05
3.38493e-05
3.70275e-05
3.14314e-05
3.02162e-05
3.66611e-05
3.68798e-05
3.58947e-05
3.65372e-05
3.77014e-05
2.88597e-05
3.36796e-05
3.34028e-05
3.05625e-05
3.67526e-05
3.80632e-05
3.82125e-05
3.73789e-05
3.86089e-05
2.8784e-05
2.82739e-05
2.9065e-05
3.79805e-05
2.72393e-05
3.71223e-05
3.56545e-05
2.85521e-05
3.23905e-05
3.67762e-05
3.75757e-05
3.11657e-05
3.21298e-05
3.31038e-05
3.52041e-05
3.80106e-05
3.42962e-05
2.89536e-05
3.49015e-05
3.82894e-05
3.70045e-05
3.83574e-05
3.80313e-05
3.95967e-05
3.82206e-05
3.70235e-05
2.9335e-05
2.7172e-05
3.47708e-05
3.13654e-05
3.77125e-05
2.79505e-05
3.56427e-05
3.38186e-05
3.84779e-05
2.97006e-05
3.61085e-05
3.66475e-05
3.53868e-05
3.3018e-05
2.84359e-05
3.72851e-05
3.16599e-05
3.81225e-05
3.42818e-05
3.87325e-05
3.83335e-05
3.49677e-05
2.71128e-05
2.80685e-05
3.39189e-05
3.5444e-05
3.16362e-05
3.90733e-05
2.85382e-05
3.78133e-05
3.65486e-05
3.21269e-05
3.61316e-05
3.71903e-05
3.77177e-05
3.80955e-05
3.77648e-05
3.51722e-05
3.5572e-05
2.70768e-05
3.192e-05
3.82832e-05
2.9365e-05
3.62018e-05
3.38458e-05
2.9546e-05
3.43132e-05
3.60653e-05
3.41692e-05
3.63311e-05
3.70528e-05
2.86711e-05
3.38743e-05
3.49013e-05
2.8557e-05
3.19372e-05
3.42777e-05
3.38651e-05
3.63161e-05
2.87062e-05
2.84494e-05
3.42589e-05
3.28812e-05
3.86013e-05
3.89225e-05
3.81323e-05
3.32588e-05
3.36422e-05
3.53181e-05
3.29707e-05
3.69436e-05
2.86295e-05
3.47901e-05
3.3802e-05
3.83814e-05
3.65204e-05
3.36368e-05
3.47754e-05
3.75546e-05
2.83317e-05
3.50651e-05
3.80915e-05
3.29147e-05
2.40227e-05
3.42698e-05
2.8624e-05
3.52524e-05
2.63407e-05
3.76657e-05
3.87307e-05
3.75678e-05
3.5166e-05
2.86948e-05
2.83222e-05
3.72292e-05
3.78166e-05
3.74086e-05
3.51779e-05
3.40836e-05
3.66131e-05
3.79442e-05
3.7194e-05
2.70094e-05
3.32311e-05
3.62134e-05
3.61048e-05
3.25685e-05
3.55697e-05
2.69484e-05
3.79957e-05
3.73888e-05
3.49631e-05
3.53414e-05
3.61358e-05
3.44591e-05
3.84804e-05
3.63813e-05
2.92138e-05
3.40502e-05
3.67613e-05
3.37824e-05
3.45589e-05
3.58219e-05
2.64477e-05
2.95756e-05
3.79251e-05
3.82327e-05
3.73473e-05
3.83751e-05
3.60374e-05
3.75837e-05
3.54122e-05
3.50582e-05
3.61325e-05
3.75587e-05
3.20718e-05
3.37845e-05
3.29449e-05
3.4554e-05
3.72185e-05
2.61082e-05
3.50562e-05
2.72401e-05
3.74211e-05
2.73557e-05
2.73803e-05
3.41305e-05
2.6379e-05
3.42568e-05
3.55346e-05
3.74137e-05
3.76261e-05
3.18843e-05
3.18713e-05
3.88297e-05
3.12255e-05
2.89735e-05
3.37594e-05
3.09292e-05
3.80065e-05
3.61096e-05
3.51366e-05
2.84846e-05
3.68615e-05
3.70673e-05
3.80349e-05
2.77354e-05
3.07034e-05
3.50478e-05
3.62511e-05
3.8724e-05
2.92636e-05
2.79761e-05
3.63437e-05
3.4629e-05
3.83103e-05
3.49544e-05
2.6212e-05
3.58298e-05
3.70361e-05
2.80185e-05
2.64377e-05
3.76488e-05
2.97545e-05
2.96616e-05
3.78321e-05
3.82205e-05
3.69318e-05
3.92223e-05
3.45311e-05
3.28155e-05
3.78144e-05
3.11201e-05
3.7979e-05
3.19285e-05
3.55483e-05
3.73094e-05
3.40753e-05
2.79781e-05
3.72549e-05
3.75473e-05
3.28285e-05
3.42956e-05
3.46484e-05
3.07498e-05
3.28278e-05
3.51005e-05
3.48859e-05
3.75593e-05
3.24908e-05
3.63574e-05
2.77199e-05
3.67258e-05
3.84361e-05
2.6771e-05
3.68081e-05
3.51496e-05
2.50145e-05
2.79086e-05
3.50578e-05
3.45853e-05
3.70678e-05
3.2654e-05
2.91346e-05
3.71579e-05
3.80235e-05
3.75714e-05
3.58479e-05
3.82157e-05
2.79959e-05
3.78334e-05
3.45408e-05
2.85263e-05
2.82789e-05
2.40531e-05
2.90228e-05
3.6174e-05
3.2945e-05
3.56538e-05
3.48452e-05
3.05089e-05
3.15746e-05
2.6507e-05
2.62807e-05
3.87693e-05
3.84663e-05
2.92915e-05
3.78743e-05
3.72773e-05
2.88984e-05
3.4146e-05
3.46472e-05
3.05161e-05
3.26074e-05
3.82238e-05
3.01054e-05
2.605e-05
3.81249e-05
3.81367e-05
3.15514e-05
3.78713e-05
3.22473e-05
3.02169e-05
2.88386e-05
3.39761e-05
2.77395e-05
2.84839e-05
3.53375e-05
3.62077e-05
3.37645e-05
3.70726e-05
3.78747e-05
3.41774e-05
3.74367e-05
2.06015e-05
3.39794e-05
2.8225e-05
3.47629e-05
3.7309e-05
3.42563e-05
3.15607e-05
3.41288e-05
2.93349e-05
3.58785e-05
3.42432e-05
3.1845e-05
2.79569e-05
2.59906e-05
2.54951e-05
3.26711e-05
2.83268e-05
3.38093e-05
2.87404e-05
3.2884e-05
3.77311e-05
3.53267e-05
3.29276e-05
3.49746e-05
3.60894e-05
3.41886e-05
3.69166e-05
2.68483e-05
3.49735e-05
3.80094e-05
3.82217e-05
3.36251e-05
3.91836e-05
3.03679e-05
3.60785e-05
3.39597e-05
2.75064e-05
3.68705e-05
3.8173e-05
3.62188e-05
3.64795e-05
3.70438e-05
3.52442e-05
2.56488e-05
2.66486e-05
3.36685e-05
3.85309e-05
3.47036e-05
3.7557e-05
3.19291e-05
3.30594e-05
2.97112e-05
2.74682e-05
2.75973e-05
2.7053e-05
3.62847e-05
3.53868e-05
3.78568e-05
3.32425e-05
3.24347e-05
3.89012e-05
2.76468e-05
3.4789e-05
3.80691e-05
3.74045e-05
3.22512e-05
3.35924e-05
3.67879e-05
3.78539e-05
3.75513e-05
2.88161e-05
3.50505e-05
3.70057e-05
3.56207e-05
3.47668e-05
3.8327e-05
3.65442e-05
3.79844e-05
3.56598e-05
3.11303e-05
3.53251e-05
3.74242e-05
3.62851e-05
3.4319e-05
2.79551e-05
3.77683e-05
3.7439e-05
3.67708e-05
3.72881e-05
2.70427e-05
2.47047e-05
3.37392e-05
3.64841e-05
3.28053e-05
3.58067e-05
3.69595e-05
3.72892e-05
3.74264e-05
3.23213e-05
3.65151e-05
3.44813e-05
3.71456e-05
2.82351e-05
2.81473e-05
3.32798e-05
3.78162e-05
2.90973e-05
3.71691e-05
2.83797e-05
3.34651e-05
3.45766e-05
3.80821e-05
3.35741e-05
3.7742e-05
3.75999e-05
3.67435e-05
3.52093e-05
3.65763e-05
3.46947e-05
3.21791e-05
2.59397e-05
3.86254e-05
2.38618e-05
2.69029e-05
2.96725e-05
2.66089e-05
2.67597e-05
3.33997e-05
3.51744e-05
2.86089e-05
3.19627e-05
2.46338e-05
2.90021e-05
3.28702e-05
3.77268e-05
2.7045e-05
2.75026e-05
3.69369e-05
2.71317e-05
3.34536e-05
3.6068e-05
3.56065e-05
3.41525e-05
2.84449e-05
2.6701e-05
3.22685e-05
3.84994e-05
3.02104e-05
2.76306e-05
3.52422e-05
3.17837e-05
3.5166e-05
3.44102e-05
2.85518e-05
3.74187e-05
2.61484e-05
2.73221e-05
3.29661e-05
3.72856e-05
3.19875e-05
3.31648e-05
3.34419e-05
3.50204e-05
2.566e-05
2.9528e-05
3.34037e-05
3.79181e-05
3.64991e-05
2.72197e-05
2.49305e-05
3.30818e-05
3.87425e-05
3.41679e-05
3.44405e-05
3.16435e-05
3.38599e-05
3.45227e-05
2.81006e-05
3.79974e-05
3.16437e-05
2.78125e-05
2.49701e-05
3.66469e-05
3.46023e-05
3.79475e-05
3.5074e-05
3.72269e-05
2.80511e-05
3.30285e-05
2.59831e-05
2.44429e-05
3.66288e-05
2.8813e-05
3.32374e-05
3.47624e-05
3.54905e-05
2.77735e-05
3.80528e-05
3.70596e-05
3.83115e-05
3.5557e-05
2.30968e-05
3.43973e-05
2.62434e-05
3.78554e-05
2.8294e-05
3.77331e-05
2.48355e-05
3.56797e-05
3.57241e-05
3.14955e-05
3.22091e-05
2.56641e-05
3.10334e-05
3.44866e-05
3.67239e-05
3.59975e-05
3.79617e-05
3.70853e-05
2.83306e-05
3.809e-05
3.3188e-05
3.52734e-05
3.59024e-05
3.73984e-05
3.6842e-05
3.45146e-05
3.807e-05
3.3384e-05
3.17689e-05
3.15788e-05
3.53722e-05
3.7101e-05
3.12683e-05
2.91856e-05
3.74317e-05
3.54731e-05
3.40964e-05
3.86708e-05
3.55891e-05
3.52092e-05
3.58455e-05
3.72892e-05
3.7147e-05
3.44166e-05
3.3349e-05
3.7224e-05
3.62847e-05
3.02424e-05
3.44753e-05
3.06939e-05
3.79694e-05
3.53672e-05
3.77723e-05
2.82489e-05
2.81946e-05
3.48118e-05
3.66167e-05
3.64807e-05
3.79262e-05
3.72579e-05
3.44949e-05
3.62843e-05
2.8825e-05
3.42709e-05
3.43439e-05
3.77338e-05
3.73679e-05
3.78655e-05
3.40599e-05
3.82227e-05
2.98569e-05
3.78424e-05
3.09433e-05
3.37865e-05
3.25981e-05
3.48946e-05
3.38917e-05
3.65642e-05
2.7338e-05
3.74207e-05
3.68227e-05
3.34595e-05
2.83738e-05
3.79075e-05
3.62095e-05
3.72001e-05
3.40682e-05
3.46556e-05
3.67043e-05
2.76894e-05
3.78842e-05
3.35309e-05
3.48894e-05
3.04878e-05
3.12466e-05
3.07974e-05
2.7217e-05
3.21561e-05
3.87524e-05
3.49227e-05
2.61551e-05
3.47097e-05
2.71961e-05
3.51209e-05
3.54813e-05
2.59737e-05
2.71263e-05
3.13005e-05
3.48062e-05
3.66969e-05
3.22419e-05
3.67403e-05
3.36837e-05
3.12317e-05
3.17183e-05
3.79731e-05
3.75182e-05
3.7512e-05
3.66499e-05
3.57658e-05
2.79067e-05
2.89369e-05
3.82769e-05
3.31216e-05
3.4812e-05
3.65963e-05
3.86756e-05
3.49832e-05
3.59889e-05
2.61882e-05
3.68639e-05
3.7494e-05
3.20811e-05
3.78182e-05
3.74215e-05
3.54578e-05
3.24184e-05
3.61975e-05
3.24807e-05
2.5703e-05
3.4974e-05
2.89726e-05
2.72502e-05
3.4822e-05
3.45528e-05
3.64321e-05
3.64841e-05
3.52712e-05
3.80245e-05
2.45633e-05
3.20615e-05
3.79092e-05
3.78039e-05
2.62317e-05
3.48782e-05
2.95366e-05
3.2372e-05
3.80438e-05
3.12867e-05
3.58102e-05
3.85464e-05
3.62832e-05
2.59717e-05
3.66948e-05
2.80922e-05
3.76589e-05
3.65035e-05
3.5774e-05
3.78563e-05
3.52873e-05
3.75238e-05
2.793e-05
3.72511e-05
3.76095e-05
2.93045e-05
3.58069e-05
3.44441e-05
3.25102e-05
3.69385e-05
3.29855e-05
3.7298e-05
3.80888e-05
3.84405e-05
3.4271e-05
3.73331e-05
3.46057e-05
3.64992e-05
3.02215e-05
3.20757e-05
2.74075e-05
2.67981e-05
3.53449e-05
3.61405e-05
3.44386e-05
3.8072e-05
3.33905e-05
3.81175e-05
2.64801e-05
3.82572e-05
3.83923e-05
3.61382e-05
3.83002e-05
2.97844e-05
2.60181e-05
3.397e-05
2.73676e-05
3.76603e-05
3.46247e-05
2.61214e-05
3.32237e-05
3.85778e-05
3.54947e-05
2.74143e-05
3.04809e-05
2.59525e-05
3.88509e-05
2.71386e-05
3.70079e-05
3.1881e-05
2.82686e-05
3.75297e-05
3.76999e-05
3.77026e-05
3.66607e-05
2.76772e-05
3.55e-05
3.78133e-05
2.9248e-05
3.78807e-05
3.50997e-05
3.80915e-05
2.58962e-05
3.67177e-05
3.20645e-05
3.56259e-05
3.19704e-05
3.38191e-05
3.2577e-05
3.16455e-05
3.2818e-05
3.32258e-05
3.61973e-05
3.3983e-05
3.83668e-05
2.92219e-05
3.4137e-05
3.45135e-05
3.66421e-05
3.7799e-05
2.79194e-05
3.71648e-05
2.88176e-05
3.40849e-05
3.76949e-05
3.75222e-05
3.30176e-05
3.56372e-05
3.60549e-05
3.21647e-05
3.45494e-05
3.33571e-05
2.7373e-05
2.74333e-05
3.57241e-05
3.69357e-05
3.41216e-05
3.25655e-05
3.70187e-05
2.84394e-05
3.53616e-05
2.86165e-05
3.62909e-05
3.81457e-05
3.46874e-05
2.77016e-05
3.70064e-05
2.70383e-05
3.55839e-05
3.76764e-05
2.61672e-05
3.8712e-05
2.90957e-05
3.22017e-05
3.29172e-05
2.77918e-05
3.2171e-05
3.27157e-05
2.57259e-05
3.71342e-05
3.75687e-05
2.41131e-05
3.19412e-05
3.62486e-05
3.43693e-05
3.55097e-05
3.85416e-05
3.70629e-05
3.35696e-05
3.07408e-05
2.64355e-05
2.54643e-05
3.02669e-05
3.83452e-05
3.70921e-05
3.62332e-05
3.64409e-05
2.80156e-05
2.75775e-05
3.39885e-05
3.69252e-05
2.60911e-05
3.61685e-05
3.45952e-05
3.32251e-05
3.63206e-05
3.24345e-05
3.66921e-05
3.12208e-05
3.38756e-05
3.79154e-05
2.35617e-05
3.54537e-05
3.70006e-05
3.73124e-05
3.60159e-05
3.7192e-05
3.47758e-05
2.77715e-05
3.83769e-05
3.93874e-05
3.47766e-05
3.45035e-05
3.21862e-05
3.41663e-05
3.60091e-05
3.6837e-05
3.46552e-05
3.37178e-05
3.34964e-05
2.65665e-05
3.24386e-05
3.81724e-05
3.5856e-05
3.93503e-05
3.46177e-05
3.32318e-05
3.80391e-05
2.79543e-05
3.66043e-05
2.77213e-05
3.77486e-05
3.59714e-05
3.25247e-05
3.89732e-05
3.20602e-05
3.39755e-05
3.80274e-05
3.30633e-05
3.80009e-05
3.64644e-05
3.64965e-05
2.74595e-05
3.44721e-05
3.42029e-05
2.9871e-05
3.71151e-05
3.31769e-05
3.315e-05
3.80187e-05
2.81069e-05
3.78948e-05
3.44405e-05
3.75067e-05
3.18285e-05
3.51894e-05
2.75819e-05
2.85909e-05
3.85125e-05
2.83287e-05
3.42906e-05
3.67122e-05
2.71079e-05
3.35509e-05
3.70769e-05
3.18378e-05
2.86454e-05
3.09147e-05
3.31202e-05
3.27978e-05
3.66805e-05
3.32012e-05
3.71871e-05
3.49916e-05
3.72102e-05
2.56101e-05
2.99989e-05
3.80343e-05
3.37421e-05
2.6813e-05
2.86653e-05
3.42291e-05
2.85016e-05
2.7658e-05
3.45197e-05
3.39201e-05
3.87045e-05
3.28519e-05
3.72693e-05
3.71479e-05
3.67963e-05
3.73533e-05
3.74302e-05
3.27422e-05
3.19135e-05
3.72063e-05
3.36865e-05
3.28066e-05
3.75199e-05
3.42924e-05
2.65339e-05
2.7267e-05
3.34201e-05
2.96149e-05
3.58995e-05
3.6885e-05
3.32589e-05
3.73514e-05
3.70896e-05
3.65755e-05
3.91978e-05
3.33742e-05
2.77285e-05
3.28625e-05
3.29453e-05
3.68686e-05
3.32082e-05
3.60665e-05
3.76307e-05
3.33132e-05
3.20285e-05
3.48458e-05
3.80039e-05
3.63146e-05
3.94767e-05
3.65383e-05
3.29745e-05
3.37272e-05
2.96205e-05
3.19796e-05
3.80597e-05
3.00874e-05
3.83774e-05
3.26826e-05
3.71494e-05
2.73061e-05
3.62195e-05
3.45909e-05
3.68638e-05
3.39542e-05
3.58362e-05
3.4172e-05
3.73068e-05
2.66381e-05
2.92879e-05
3.45879e-05
3.23086e-05
3.5106e-05
3.44872e-05
3.4737e-05
3.76539e-05
3.47816e-05
2.62585e-05
3.0918e-05
2.75803e-05
3.49863e-05
3.41685e-05
2.8259e-05
3.92529e-05
3.45767e-05
3.37479e-05
3.68076e-05
3.02348e-05
2.85374e-05
3.83584e-05
2.85497e-05
2.70914e-05
3.37034e-05
3.28067e-05
2.85822e-05
3.1178e-05
3.80453e-05
3.73397e-05
3.25084e-05
3.50049e-05
3.70034e-05
3.43057e-05
3.65154e-05
2.65497e-05
3.75949e-05
2.07121e-05
3.69517e-05
2.80177e-05
2.73584e-05
3.71019e-05
2.71884e-05
3.39815e-05
3.53005e-05
3.7079e-05
3.20087e-05
3.61669e-05
3.31781e-05
3.41562e-05
3.26325e-05
3.62946e-05
3.51872e-05
3.73843e-05
3.46986e-05
2.83394e-05
3.63254e-05
3.42838e-05
3.38531e-05
3.41204e-05
2.96245e-05
3.16479e-05
2.65806e-05
2.75207e-05
3.45092e-05
3.32008e-05
2.90984e-05
3.21065e-05
3.69072e-05
3.80393e-05
3.7682e-05
2.03493e-05
2.63742e-05
3.76618e-05
2.72237e-05
3.61975e-05
2.66678e-05
3.76194e-05
3.68568e-05
3.70414e-05
2.81028e-05
3.34665e-05
3.79552e-05
3.78173e-05
3.52209e-05
3.7863e-05
3.4183e-05
3.49335e-05
3.41167e-05
2.7631e-05
3.48567e-05
3.13678e-05
3.43399e-05
3.39897e-05
2.9498e-05
3.37584e-05
3.78142e-05
3.07647e-05
3.12311e-05
2.74782e-05
3.69256e-05
3.66947e-05
2.55846e-05
3.40065e-05
3.44104e-05
3.55715e-05
2.7935e-05
3.45925e-05
3.41389e-05
3.88637e-05
2.69811e-05
3.38146e-05
3.38159e-05
2.5918e-05
3.7417e-05
2.86932e-05
2.87949e-05
3.51876e-05
3.81113e-05
2.65465e-05
3.71961e-05
3.56242e-05
3.46467e-05
2.62499e-05
3.7923e-05
3.81188e-05
2.62292e-05
3.46382e-05
2.55192e-05
2.8878e-05
3.79176e-05
3.25242e-05
3.50307e-05
3.68012e-05
3.83798e-05
3.3257e-05
3.20464e-05
3.36494e-05
3.33434e-05
3.4819e-05
3.20504e-05
3.77343e-05
2.82727e-05
3.24716e-05
3.42223e-05
3.29064e-05
3.66351e-05
3.37562e-05
3.60808e-05
3.61816e-05
3.47064e-05
3.7958e-05
3.6193e-05
3.28739e-05
3.08834e-05
3.65461e-05
3.34366e-05
3.25239e-05
3.58806e-05
3.81979e-05
3.63713e-05
3.64334e-05
3.20728e-05
3.62356e-05
3.11454e-05
2.75332e-05
3.40914e-05
3.52658e-05
2.72558e-05
3.56328e-05
3.37037e-05
2.43216e-05
2.75312e-05
3.63086e-05
2.72808e-05
3.31935e-05
3.65397e-05
3.53594e-05
2.74393e-05
3.51856e-05
3.88791e-05
2.84939e-05
2.76308e-05
2.82875e-05
3.75186e-05
3.43078e-05
3.35666e-05
3.72306e-05
2.73662e-05
3.61799e-05
3.46909e-05
3.81158e-05
3.81406e-05
2.20817e-05
3.47001e-05
3.57971e-05
3.63014e-05
3.45036e-05
3.39396e-05
2.91105e-05
3.51242e-05
3.83044e-05
3.12688e-05
2.60612e-05
3.25073e-05
3.73659e-05
3.59618e-05
2.69021e-05
3.33509e-05
3.69075e-05
3.77124e-05
3.39728e-05
3.35818e-05
2.55125e-05
2.78883e-05
2.77339e-05
3.44908e-05
3.3273e-05
3.51218e-05
3.84959e-05
3.74072e-05
3.05715e-05
3.72935e-05
3.75394e-05
3.61139e-05
3.2065e-05
3.73067e-05
3.32105e-05
2.88719e-05
3.19814e-05
3.42278e-05
3.53734e-05
3.14304e-05
3.56791e-05
3.22437e-05
3.72986e-05
2.85843e-05
2.59557e-05
3.30903e-05
3.78592e-05
3.63477e-05
3.19363e-05
3.26833e-05
3.66351e-05
3.75119e-05
3.22739e-05
3.29458e-05
3.72597e-05
3.83305e-05
3.63327e-05
3.81509e-05
3.66028e-05
3.6596e-05
2.64354e-05
3.30652e-05
2.76781e-05
3.59748e-05
3.74707e-05
3.18589e-05
2.74738e-05
3.80509e-05
2.7269e-05
3.11906e-05
2.88187e-05
3.37679e-05
2.68254e-05
3.56429e-05
3.41802e-05
3.38498e-05
3.42034e-05
2.96297e-05
3.77528e-05
2.82537e-05
3.59402e-05
3.42073e-05
3.35453e-05
2.72748e-05
3.68348e-05
3.56719e-05
2.90739e-05
3.01776e-05
3.31767e-05
3.26692e-05
3.41045e-05
2.71822e-05
3.5198e-05
3.25277e-05
3.4675e-05
3.12197e-05
3.13151e-05
3.11207e-05
2.76848e-05
3.68077e-05
3.42245e-05
1.16438e-05
2.85904e-05
3.48676e-05
3.75511e-05
3.66959e-05
2.92712e-05
2.88878e-05
3.76327e-05
2.79012e-05
3.69212e-05
3.80478e-05
3.4822e-05
2.86179e-05
3.75656e-05
2.71328e-05
2.56486e-05
2.55685e-05
3.58672e-05
3.37671e-05
3.16954e-05
3.81862e-05
3.62375e-05
3.49448e-05
2.88879e-05
2.47079e-05
3.85136e-05
3.46284e-05
3.86184e-05
3.74736e-05
2.75035e-05
3.36052e-05
3.30843e-05
3.30617e-05
3.40626e-05
3.17524e-05
3.30068e-05
3.97051e-05
3.47465e-05
3.24833e-05
2.81354e-05
3.52151e-05
3.36999e-05
3.59433e-05
3.24833e-05
2.72388e-05
2.83147e-05
3.54344e-05
3.59413e-05