/*--------------------------------*- C++ -*----------------------------------*\
| =========                 |                                                 |
| \\      /  F ield         | OpenFOAM: The Open Source CFD Toolbox           |
|  \\    /   O peration     | Version:  2212                                  |
|   \\  /    A nd           | Website:  www.openfoam.com                      |
|    \\/     M anipulation  |                                                 |
\*---------------------------------------------------------------------------*/
FoamFile
{
    version     2.0;
    format      ascii;
    arch        "LSB;label=32;scalar=64";
    class       volScalarField;
    location    "0.05";
    object      p;
}
// * * * * * * * * * * * * * * * * * * * * * * * * * * * * * * * * * * * * * //

dimensions      [0 2 -2 0 0 0 0];

internalField   nonuniform List<scalar> 
31639
(
0.0117404
0.00816629
0.0134308
0.00597381
0.00824949
0.0114993
0.0128921
0.0122742
0.00872037
0.00744441
0.0127798
0.00831554
0.0086413
0.0112381
0.00978104
0.0137336
0.01593
0.0162829
0.00266793
0.0124951
0.0090935
0.00702471
0.00955971
0.00591303
0.0102614
0.0121484
0.0118123
0.0373291
0.0123471
0.0123193
0.00661046
0.0175862
0.00877855
0.00475039
0.0213726
0.0122576
0.00705011
0.0128127
0.0127944
0.0104651
0.00835899
0.0119802
0.00936286
0.0129956
0.013398
0.00558621
0.00839309
0.0066235
0.014385
0.00603092
0.00556184
0.00445771
0.0217894
0.0132922
0.00435036
0.0162605
0.00714021
0.0118952
0.00817595
0.00570024
0.00625378
0.0119882
0.00994816
0.0122498
0.0215995
0.003524
0.00216189
0.00684968
0.00848786
0.00530616
0.00753992
0.0160452
0.00735982
0.00317785
0.0218879
0.0174218
0.0075587
0.00699595
0.00810425
0.00769822
0.0116995
0.0112333
0.0110658
0.00615546
0.0109382
0.0101377
0.00937536
0.00662398
0.00216329
0.00882161
0.00501391
0.0159756
0.00585289
0.00779328
0.00373687
0.0118164
0.00636055
0.00449922
0.00854634
0.0113389
0.0201909
0.0201618
0.0102986
0.00782898
0.00434292
0.00542095
0.0115184
0.00573896
0.0066634
0.0103726
0.0128503
0.011188
0.0119759
0.00704649
0.00313344
0.0125035
0.0214697
0.0132619
0.0202956
0.00628938
0.0177524
0.00543751
0.00282809
0.00600332
0.0114425
0.0112517
0.00808491
0.00609603
0.0074387
0.00900391
0.0212398
0.000938166
0.013593
0.00319268
0.00383195
0.00681889
0.00713265
0.00780065
0.00560134
0.00624822
0.00618867
0.00920948
0.0100437
0.00574913
0.00838534
0.0109342
0.0204304
0.00712529
0.0105615
0.0218173
0.00638415
0.0146892
0.00457102
0.00411667
0.00534098
0.0040739
0.00300653
0.00749384
0.0142773
0.0067736
0.00372476
0.0160974
0.00722419
0.0119528
0.0170603
0.0171342
0.0133436
0.0149288
0.00469699
0.00327205
0.0154042
0.0112278
0.0152188
0.00873396
0.0108552
0.00729209
0.00983623
0.0176839
0.00684238
0.0103269
0.0085486
0.0141073
0.0120175
0.0125065
0.0125529
0.0122815
0.0146944
0.0103356
0.0112467
0.0139493
0.0142047
0.00739854
0.0144354
0.00438582
0.00500754
0.00519979
0.00501259
0.00795633
0.00511729
0.0126847
0.0106363
0.0161285
0.0141385
0.0150433
0.00728419
0.00605138
0.00253082
0.00428187
0.018005
0.00490508
0.00490519
0.0104503
0.0202912
0.0108506
0.0130678
0.0109473
0.0109622
0.0109338
0.0153427
0.00819507
0.00847821
0.0104526
0.0110581
0.0153508
0.0133453
0.00761446
0.0137616
0.0134809
0.00954146
0.0174696
0.00460266
0.0126795
0.0161056
0.013952
0.0143089
0.00242128
0.00223095
0.0145749
0.0120152
0.00433828
0.0061523
0.0131328
0.0152534
0.0143757
0.00634733
0.0164693
0.00485046
0.0170072
0.0139158
0.0024536
0.000706626
0.00558799
0.0142616
0.0163556
0.00794385
0.00849334
0.0119049
0.00365145
0.0117558
0.0135822
0.00568374
0.00456546
0.0079578
0.0112417
0.00802807
0.0108993
0.00179241
0.0206807
0.0129838
0.0115837
0.0264987
0.00541983
0.0118212
0.0146529
0.00704154
0.0137934
0.0050278
0.0153916
0.00683786
0.00559654
0.017239
0.0177124
0.0175943
0.0233863
0.0126183
0.0126732
0.015407
0.0146918
0.00278819
0.0142266
0.0158443
0.0012702
0.00455718
0.00456503
0.0133669
0.00394301
0.0160063
0.00212913
0.00626345
0.0072553
0.00674382
0.0153646
0.004866
0.00435822
0.00974791
0.00391662
0.0111211
0.00257484
0.00939569
0.0154246
0.00651009
0.0258234
0.0206434
0.00915689
0.00840491
0.0118386
0.00226885
0.0177932
0.0138304
0.0136026
0.0130461
0.00545055
0.0199412
0.00401857
0.0107412
0.0145512
0.0130746
0.0147083
0.00473839
0.00547864
0.00568029
0.00596641
0.0156749
0.00446934
0.0161415
0.021462
0.0219924
0.00680758
0.0149032
0.0168669
0.00380846
0.0018664
0.016403
0.00342872
0.00490317
0.0152176
0.00412397
0.0134454
0.0132911
0.0200123
0.00754017
0.0153653
0.00749342
0.0141949
0.0043302
0.00567158
0.00485334
0.00979035
0.00992984
0.0147975
0.0161671
0.00990955
0.0257324
0.00277496
0.00687317
0.00619376
0.00331648
0.00987497
0.0105758
0.0147226
0.00958474
0.0179945
0.011247
0.00529327
0.00356154
0.00593876
0.0207008
0.0173145
0.0144343
0.0181424
0.0136911
0.00446257
0.00670198
0.00444277
0.00410984
0.00389828
0.00479543
0.00826488
0.000384215
0.0165181
0.00242245
0.0182929
0.00485762
0.0152981
0.00421874
0.0156793
0.0166529
0.0125234
0.00598804
0.0242695
0.0162953
0.0128176
0.0122406
0.00406611
0.0144357
0.00220489
0.00635311
0.00641931
0.00666954
0.0125506
0.00549205
0.00646688
0.0143739
0.0266423
0.0131565
0.0144593
0.0105869
0.0113034
0.0101203
0.00841524
0.00812258
0.0199685
0.00966034
0.000855531
0.0143733
0.0262554
0.00930057
0.0195028
0.0112522
0.0134565
0.00586917
0.00486976
0.0153426
0.00554167
0.0122123
0.0122294
0.0149014
0.00363301
0.0044819
0.0159511
0.00674981
0.00236958
0.00285942
0.0110055
0.00381029
0.00684947
0.00721969
0.0167617
0.0163838
0.0177092
0.0166641
0.0145153
0.00706134
0.0148964
0.0066988
0.0158437
0.0177978
0.00550382
0.0145576
0.00610308
0.0119657
0.017096
0.0113219
0.00306594
0.0140266
0.0391644
0.00302677
0.00910683
0.00618911
0.0136369
0.00177526
0.00469585
0.00562455
0.0046831
0.0148596
0.00120061
0.00939782
0.0191939
0.00847125
0.00982135
0.00568162
0.020956
0.00365172
0.00774511
0.0199843
0.025697
0.00930553
0.0133384
0.010848
0.0072432
0.00559263
0.00425722
0.017601
0.00200693
0.0115413
0.0111094
0.0105254
0.00316346
0.00479284
0.0168598
0.0190339
0.00239331
0.00277333
0.00312219
0.00182536
0.0224457
0.00642535
0.00265818
0.0179178
0.0199945
0.0178335
0.00374313
0.0161185
0.0149498
0.017004
0.00192346
0.0199753
0.0200128
-0.000357781
0.0173395
0.016761
0.0174405
0.0110793
0.0185936
0.000791521
0.00302528
0.0169927
0.00249702
0.00304542
0.00517264
0.012594
0.0085098
0.015644
0.00104298
0.00553563
0.00894075
0.0187549
0.00120967
0.0148992
0.00228837
0.0260098
0.0262762
0.00617965
0.0376097
0.00636446
0.00632733
0.0103078
0.01062
0.00735802
0.0100708
0.0270256
0.00738339
0.0145776
0.000598899
0.00660368
0.0102515
0.00577618
0.0166967
0.00129326
0.00397995
0.0100382
0.003583
0.0090684
0.00924919
0.00499548
0.0210726
0.00365225
0.00255711
0.000368762
0.0117142
0.0191982
0.0028808
0.000585458
0.00353923
0.0039078
0.00306667
0.017811
-5.19778e-05
0.001182
0.000804793
0.0160481
0.00199577
0.0167808
0.0171409
0.0178751
0.00522466
4.40177e-05
0.000210617
0.0027204
0.00077489
0.0109828
0.000947276
0.0109764
0.0173975
0.00146561
0.00637479
0.00855752
0.0209734
0.0193536
0.0151755
0.0072243
0.00348339
0.0201275
0.0173098
0.00161836
0.0017803
0.00745316
0.012645
0.0051895
0.00108718
8.32133e-05
0.000871438
0.0166954
0.0139981
0.00640098
0.0385855
0.0137363
0.0107258
0.00739225
0.0115865
0.0148587
0.0147232
0.0102987
0.0065691
0.00822426
0.00851379
0.0139586
0.0032235
0.0100207
0.00118199
0.0109142
0.0254949
0.0177516
0.0163773
0.0121748
0.00958626
0.0231451
0.010783
0.0129333
0.00573285
0.0205662
0.019381
0.00281517
0.010643
0.0120702
0.000209584
0.0235828
0.00649559
0.00109886
0.00316826
0.00179599
0.0209469
0.0191195
0.0195358
0.00294815
0.00010217
0.0165407
0.0111184
0.0174459
0.0179678
0.0180421
0.00117659
2.70864e-06
0.0170662
0.0149107
0.0154184
0.0180414
0.00100601
0.00642884
0.0264772
0.00373112
0.00212524
0.0185216
0.0105038
0.00440955
0.0168767
0.0166159
0.0135514
0.0078057
0.00520777
0.012301
0.00709192
0.000346878
0.000670201
0.00137132
0.00521905
0.001968
0.0209684
0.00743195
0.000562477
0.000652734
0.0160573
0.00565582
0.000684417
0.0388958
0.00526468
0.00626618
0.00844673
0.00953962
0.0080747
0.0103311
0.00975182
0.00655366
0.00753517
0.0108641
0.00693491
0.00647175
0.00733893
0.00968637
0.018477
0.0104645
0.00989122
0.016217
0.0209871
0.0176624
0.00493802
0.00973715
0.00279485
0.0110073
0.0217983
0.000832142
0.00201716
0.00183727
0.00560453
0.00649889
0.0161052
0.0154368
0.00457239
0.0018738
0.0125698
0.0208783
0.000505925
0.0171434
0.0068304
0.0158653
0.0145311
0.0153725
0.0197385
0.0183487
0.0237468
0.0168355
0.0140685
0.0174755
0.0157981
0.0163362
0.00587613
0.0205919
0.00577308
0.00151232
0.00383915
0.0160095
6.70224e-05
0.0132182
0.00312395
0.00434921
0.0132861
0.00795565
0.0198806
0.00368594
0.0138904
0.00449295
0.0228676
0.00658529
0.000572126
0.000950458
0.0186468
0.012469
0.000848387
0.00204222
0.00116737
0.00394245
0.000541418
0.000259297
0.0156995
0.0152171
0.000160042
0.0152533
0.0134843
0.0163252
0.00893021
0.00882526
0.00714016
0.0114651
0.0120283
0.00557499
0.000901826
0.0105153
0.0143982
0.0106409
0.0196938
0.0176652
0.0105486
0.0172093
0.0065093
0.0265222
0.00310145
0.0172909
0.0103486
7.32889e-05
0.0117833
0.00301639
0.00631171
0.00259884
0.00260272
0.0132222
0.0187863
0.00459387
0.0165901
0.000796372
0.000778717
0.00083979
0.0218697
0.0220335
0.0209413
0.0225369
0.0185589
0.0171455
0.00575335
0.00368229
0.00635274
0.00167573
0.0122542
0.00548743
0.0144295
0.00797747
0.00638634
0.00197942
-0.000119429
0.00466353
0.00248718
0.0195465
0.0084837
0.00457753
0.00440074
0.00814238
0.000786105
0.0137443
0.00444431
0.0171829
0.00329208
0.00222615
0.0112771
0.0112265
0.0175349
0.0208194
0.0182101
0.0138584
0.00778212
0.00845376
0.0165191
0.000113443
0.000921549
0.0162426
0.0166075
-0.000122086
0.000352856
0.0023287
0.0163655
0.00428804
0.0099435
0.0210824
0.0206262
0.0105102
0.024694
0.00793101
0.0068512
0.00706781
0.00456206
0.00282946
0.0172692
0.00291821
0.0105258
0.0127561
0.0194495
0.00613049
0.00709092
0.00673097
0.0156762
0.015884
0.015894
0.022589
0.00209729
0.0183295
0.0180395
0.0184386
0.00999438
0.000358614
0.021701
0.0223448
0.0205715
0.0121345
0.0128483
0.013999
0.0130638
0.0156109
0.0119855
0.000496195
0.0163907
0.00761883
0.00520915
0.0166733
0.00125903
0.000737772
0.00290656
0.00273188
0.0199594
0.00801945
0.00292609
0.00408216
0.00725033
0.0147761
0.00692179
0.0063508
0.0133296
0.00931281
0.000271003
0.0171794
0.0108764
0.0180629
0.00908257
0.00188846
0.0139758
0.0138971
0.000688349
0.0080202
0.00745883
0.000538782
0.000667603
0.0170238
0.0195521
0.00787196
0.0101989
0.00117125
0.0180961
0.0225499
0.0189078
0.0130515
0.00608693
0.0177787
0.0134004
0.00705671
0.00984711
0.00545849
0.005556
0.00878776
0.0167666
0.00301834
0.0109713
0.00691198
0.00623641
0.000199075
0.0187468
0.0073378
0.0193433
0.00531889
0.0158413
0.0182898
0.0090905
0.00911585
0.0190796
0.0154424
0.0173699
0.00671715
0.00778656
0.015338
0.0146339
0.0116175
0.0123247
0.0178614
0.0182969
0.0241009
0.014153
0.0159766
0.00100618
0.000650395
0.0163863
0.0149542
0.00768434
0.017779
0.0025443
0.0125049
0.0139442
0.0175088
0.00215538
0.0179548
0.0163124
0.0194441
0.0184912
0.0193292
0.00910144
0.0166171
0.00736953
0.012794
0.0123966
0.011781
0.0201165
0.0186235
0.0180373
0.0152442
0.00825503
0.0107593
0.0118732
0.018301
0.0117446
3.7305e-05
0.0190656
0.0210038
0.00990333
0.00834521
0.00350369
0.00247738
0.00696108
0.0184831
0.00577975
0.00618554
0.0227876
0.00926788
0.00343707
0.00473628
0.000397414
0.00885074
0.0100155
0.00911017
0.0170844
0.000601689
0.0197528
0.0017592
0.0191789
0.0185395
0.0226386
0.00871468
0.00897519
0.00763461
0.0143509
0.0127659
0.0149194
0.0230601
0.016774
0.0177647
0.011763
0.0143125
0.00846066
0.0150404
0.0130463
0.00285863
0.00259481
0.0104991
0.000828461
0.00747749
0.0199088
0.0209819
0.00380315
0.0192645
0.0125038
0.0202327
0.0111188
0.0113944
0.00152599
0.000840214
0.0147061
0.0132948
0.00640217
0.00842949
0.0079672
0.0123439
0.00853149
0.0166929
0.0178857
0.0229301
0.0176395
0.019028
0.0115207
0.00810694
0.00947515
0.000843225
0.00162562
0.00310829
0.0083417
0.00753299
0.0132275
0.00778692
0.0139322
0.0157994
0.0175037
0.00805994
0.00501087
0.0233943
0.0122498
0.0209702
0.0207187
0.00920429
0.0211515
0.00213859
0.0178764
0.00533637
0.0100314
0.00398707
0.00778739
0.00872826
0.0200412
0.0204035
0.000644997
0.0183449
0.0219265
0.025029
0.00813578
0.0154452
0.0177105
0.0179744
0.00724168
0.00781006
0.0167015
0.0252725
0.0166206
0.00306662
0.0146785
0.0247072
0.0143162
0.0140804
0.0136707
0.00680054
0.0207131
0.0179237
0.0208912
0.00181147
0.0149749
0.00120488
0.0123435
0.0175142
0.00374722
0.0176736
0.00545044
0.0167647
0.0228166
0.00985532
0.000483397
0.0111722
0.011932
0.00069019
0.00738856
0.00747627
0.0117737
0.00861726
0.024111
0.0192235
0.00756194
0.00745951
0.0186012
0.0104609
0.0176964
0.023384
0.0180043
0.000617152
0.000598494
0.0190556
0.0165564
0.0115842
0.0129138
0.0148074
0.0122701
0.0127513
0.0208881
0.0182836
0.0219586
0.0164864
0.0144451
0.00203191
0.0211211
0.00278611
0.00798514
0.0197395
0.0211415
0.0170751
0.00892229
0.00798227
0.000430052
0.018489
0.0114173
0.0195969
0.0107606
0.0207588
0.0219689
0.01386
0.0148022
0.00883314
0.0043061
0.0239857
0.0114183
0.0146682
0.011404
0.0105192
0.0152829
0.0242685
0.0140537
0.0131476
0.026052
0.00226279
0.0205054
0.0126524
0.0252494
0.01308
0.0105131
0.0203431
0.0208583
0.00373837
0.00777892
0.0043272
0.00534424
0.018027
0.00954568
0.010375
0.000418099
0.00829047
0.0301507
0.00851854
0.00890873
0.0123001
0.0126953
0.0119952
0.0189636
0.0194884
0.0140799
0.00754047
0.0192566
0.0108063
0.0199505
0.0178424
0.0180097
0.0198678
0.0203051
0.0186218
0.00710747
0.000556526
0.0213647
0.00644779
0.022416
0.0250021
0.023411
0.00852725
0.021398
0.0143714
0.00226511
0.00185674
0.00312261
0.0190874
0.0197938
0.0196697
0.0182338
0.0218632
0.0089407
0.00737769
0.0200306
0.0221966
0.0105629
0.0197107
0.0211865
0.0140435
0.00812765
0.0240981
0.0215159
0.0185015
0.0149888
0.0191726
0.0157312
0.020647
0.00171402
0.015708
0.0185441
0.0211806
0.0150875
0.0201507
0.0100755
0.0253723
0.0158263
0.00209082
0.0191983
0.00459587
0.000124308
0.00434183
0.0151151
0.0128654
0.0149535
0.0192491
0.0208809
0.00787605
0.0165002
0.0094089
0.0128146
0.0121435
0.01196
0.00736136
0.0196388
0.013159
0.0136789
0.0194596
0.0136501
0.00678404
0.00651642
0.0137073
0.0144034
0.0131008
0.0182672
0.0187048
0.00107569
0.0129263
0.0194771
0.0185557
0.0134071
0.0137158
0.0112863
0.0140257
0.0245138
0.00121861
0.00671606
0.02044
0.00314702
0.00900483
0.00974619
0.00928679
0.0227334
0.0240861
0.00301136
0.0246574
0.0219417
0.0157459
0.0156943
0.0222999
0.0162723
0.0206078
0.0193503
0.00384664
0.0085895
0.0234485
0.000424903
0.000694634
0.0224518
0.0209403
0.00366606
0.022219
0.0163307
0.0142621
0.00928204
0.0210731
0.0205505
0.00745288
0.0194872
0.0180811
0.0159083
0.0142179
0.000858646
0.00148843
0.00108436
0.0163946
0.0188177
0.0121103
0.0213734
0.0237367
0.0117086
0.0103944
0.00727062
0.00435374
0.0259569
0.000108062
0.00297754
0.00932035
0.00112752
0.000243509
0.000457075
0.00996397
0.00729165
0.000887474
0.0321877
0.0204026
0.0153892
0.0238608
0.0133114
0.0256274
0.00417366
0.00823819
0.0086089
0.0246586
0.0247855
0.0133864
0.00699958
0.0140152
0.0126523
0.0165489
0.0153648
0.0159864
0.018755
0.00138994
0.0200123
0.020206
0.0203591
0.0197835
0.0165966
0.0163542
0.0125977
0.0116004
0.0212563
0.0184574
0.00593656
0.00463658
0.0124979
0.0179294
0.0239103
0.00577906
0.00671125
0.00694591
0.017837
0.0225637
0.0237689
0.0233488
0.00186884
0.00110458
0.0221739
0.00071137
0.0218248
0.0227158
0.00458392
0.0063745
0.00286596
0.0212219
0.00806006
0.0186475
0.0146201
0.014683
0.0228733
0.0233361
0.0104957
0.025642
0.0254066
0.0172906
0.0158707
5.3201e-05
0.000622371
0.017649
0.0159662
0.0192661
0.0250863
0.0383037
0.0255424
0.0201474
0.0255648
0.0202851
0.00249853
0.0186635
0.0215339
0.00289894
0.0202828
0.00493192
0.000532212
0.0198551
0.0006888
0.00921907
0.0100158
0.00991569
0.00912782
0.00042896
0.00195378
0.00626901
0.0242933
0.0226426
0.0164039
0.00973547
0.0123324
0.00778579
0.00977169
0.00723763
0.00947239
0.00929557
0.00836728
0.0173652
0.014886
0.019948
0.0147441
0.0199895
0.0013739
0.0195538
0.000998372
0.0258302
0.0201568
0.0131995
0.0165969
0.00803526
0.010559
0.00368036
0.00268988
0.00646943
0.00434646
0.0119187
0.0195796
0.00913745
0.015318
0.0139812
0.00547465
0.0137398
0.0242205
0.00140498
0.00311798
0.00129898
0.0159635
0.0227572
0.0184165
0.00595833
0.0046596
0.0225064
0.00287176
0.0225372
0.0212687
0.0388944
0.0226025
0.0223408
0.0254984
0.0239713
0.0229433
0.0179448
0.0046009
0.0185518
0.00439553
0.0190064
0.0196489
-1.42693e-05
0.0240602
0.0112304
0.00224438
0.0188421
0.0237872
0.0185458
0.0213183
0.0185894
0.00940671
0.0115003
0.0179085
0.02021
0.0221263
0.0237467
0.000714153
0.00312419
0.0151156
0.0200543
0.0188338
0.0166792
0.0176043
0.00129778
0.016675
0.00898348
0.00939768
0.00918065
0.00801216
0.0105927
0.0128133
0.000537181
0.0204401
0.0213297
0.0179889
0.00119489
0.0211795
0.0128624
0.0135367
0.0152712
0.0159703
0.0186375
0.0145444
0.032771
0.00372683
0.0132793
0.0206859
0.0159341
0.015924
0.00308577
0.0144656
0.0226716
0.0253376
0.0186756
0.00855796
0.0219813
0.00783355
0.0147035
0.0234677
0.0247123
0.0146793
0.0249967
0.0247961
0.0246138
0.0229319
0.0155377
0.0238565
0.0225606
0.019825
0.00885376
0.017821
0.00701793
0.00193338
0.0182465
0.0057795
0.0232797
0.0237287
0.0230844
0.0214777
0.0136092
0.0216375
0.0244601
0.00760746
0.00535948
0.0105704
0.0261951
0.0178343
0.0171891
0.00439773
0.00382451
0.0206457
0.00131177
0.0125088
0.0256593
0.0220671
0.0187512
0.0194009
0.0116299
0.0102843
0.00269302
0.0199851
0.000293806
0.00728272
0.0224005
0.000958198
0.00277548
0.0043307
0.00566624
0.0033313
0.0157528
0.017761
0.0206551
0.0135404
0.00832447
0.0298711
0.00828886
0.00955944
0.0102182
0.0215633
0.0194306
0.0244574
0.022006
0.00687542
0.0122635
0.011903
0.0118886
0.013878
0.0168754
0.016923
0.0196937
0.0187166
0.017552
0.012883
0.00955645
0.00969492
0.00235718
0.0185193
0.0220471
0.00787986
0.00325569
0.0330388
0.0124617
0.0225807
0.0152148
0.0229064
0.0274487
0.0177832
0.00796585
0.00676295
0.0146202
0.0243592
0.0232202
0.00601862
0.025843
0.000215739
-0.000223969
0.0223272
0.024882
0.0124178
0.0102828
0.0208509
0.00531041
0.023298
0.0251941
0.0101382
0.020584
0.0213646
0.0317401
0.00575159
0.0240319
0.0141085
0.0147297
0.0202685
0.0241904
0.00268962
0.0188471
0.0258497
0.0251573
0.0269334
0.00575104
0.0211167
0.0205949
0.00296693
0.0167002
0.0241165
0.0172521
0.00240953
0.00749229
0.0158674
0.00520362
0.0174901
0.00738584
0.000632906
0.00081891
0.0106259
0.00305633
0.0229544
0.0134152
0.00586471
0.0102387
0.0237437
0.0238378
0.0211191
0.0221211
0.0234771
0.0135298
0.00243129
0.00505871
0.0117095
0.0200309
0.020101
0.0206424
0.0208741
0.0142288
0.0139673
0.0126427
0.0173691
0.0153996
0.0155195
0.0167443
0.0253349
0.0182509
0.0201095
0.0171328
0.0190052
0.0187805
0.0094836
0.0184421
0.0144073
0.00890267
0.0129484
0.0292234
0.0145977
0.0325701
0.0193299
0.00558499
0.00865239
0.017004
0.0276957
0.0155798
0.0147062
0.00659377
0.0193916
0.000600116
0.00164825
0.000317597
0.0241724
0.0239365
0.0242672
0.0124745
0.0262173
0.00466211
0.0248564
0.0252265
0.0242491
0.00250457
0.0276521
0.0244437
0.00185446
0.0258885
0.0147344
0.0154654
0.0144985
0.0201957
0.0219151
0.0180099
0.018924
0.0200474
0.0123904
0.0119394
0.00308403
0.0251687
0.0198223
0.0226452
0.0173438
0.0220489
0.024639
0.00914567
0.0236772
0.00242606
0.0177188
0.00840309
0.000957657
0.000153141
0.0106606
0.0221908
0.00836455
0.0202597
0.0206302
0.00695322
0.0216966
0.00807145
0.0260007
0.0206103
0.0256437
0.0193322
0.0104815
0.0203799
0.0213449
0.0236745
0.00545081
0.0210079
0.0210253
0.0220148
0.0236062
0.0168778
0.0223354
0.0179951
0.00242144
0.0214253
0.00538389
0.0159634
0.0168563
0.0115656
0.0184829
0.0279401
0.0140934
0.0130179
0.0137529
0.00953604
0.0179247
0.00665093
0.0118978
0.0219632
0.0103907
0.0207396
0.00621033
0.0221232
0.0184878
0.00576251
0.015672
0.0230093
0.0060795
0.0181742
0.0119539
0.00162052
0.000127349
0.00163182
0.0231941
0.0152302
0.017371
0.0132352
0.0129572
0.0232613
0.0252207
0.0244383
0.0185035
0.0240639
0.0196805
0.0254351
0.0133866
0.0259072
0.0257501
0.0257455
0.024952
0.0242195
0.00292709
0.0203717
0.0243064
0.0185111
0.0167494
0.0270544
0.0243749
0.0122432
0.0252708
0.0025434
0.0229554
0.0240398
0.0167829
0.0160322
0.0217188
0.0227504
0.0216653
0.00107305
0.0253122
0.0191219
0.0072157
0.000370008
0.0250584
0.00769145
0.00321556
0.00209517
0.000280029
0.0179656
0.00569828
0.0301091
0.00915315
0.0215999
0.0115421
0.00877336
0.0126135
0.0211276
0.00902942
0.0250646
0.0208597
0.0122418
0.0234221
0.0209544
0.0179723
0.0280662
0.0189771
0.0241216
0.0154919
0.0259972
0.0154213
0.0153369
0.00325597
0.0195798
0.0184556
0.0195755
0.0225577
0.0165033
0.0260746
0.0195304
0.0189856
0.00264573
0.00581829
0.0261805
0.0137729
0.00510675
0.0138648
0.0345412
0.0083815
0.027054
0.00628082
0.00123837
0.0104187
0.0108175
0.00959068
0.0179089
0.00550419
0.0167071
0.020973
0.0149153
0.00496526
0.00537236
0.0245389
0.00151601
0.0182678
0.016993
0.0112584
0.0229035
0.0273152
0.0118701
0.0228783
0.0214188
0.0189229
0.000376474
0.0184784
0.0206563
0.0244534
0.0249386
0.0281463
0.0261619
0.00324538
0.00214596
0.0264092
0.0031373
0.0236871
0.0253421
0.023518
0.00509847
0.0289153
0.0111066
0.020958
0.0251846
0.0227378
0.0234436
0.0225008
0.0214295
0.0195937
0.0115097
0.0215039
0.0162748
0.00189685
0.0106756
0.0235712
0.0214336
0.0277126
0.0292159
0.00149005
0.0152467
0.00248882
0.00476198
0.0246151
0.00469431
0.00401892
0.0258639
0.00595933
0.0101099
0.0148793
0.0250163
0.000263775
0.0244264
0.0210337
0.0115617
0.0240061
0.0255556
0.0132413
0.0240858
0.0195027
0.0258413
0.0240281
0.0236497
0.0174704
0.0267954
0.0186421
0.00540698
0.00569413
0.0260137
0.0193984
0.0237477
0.0288651
0.0214129
0.0228205
0.0284572
0.00568166
0.0258246
0.0252316
0.0259512
0.014216
0.0374976
0.00437435
0.00732027
0.011494
0.0106262
0.0280741
0.00847755
0.020593
0.016349
0.0170716
0.0159621
0.00579365
0.0104503
0.00680337
0.0244386
0.00112571
0.0260122
0.0265275
0.026818
0.012679
0.0222618
0.0331894
0.0206808
0.00184995
0.0238791
0.00798052
0.00999859
0.027343
0.0128262
0.027006
0.0274621
0.0183967
0.00290651
0.02439
0.0234091
0.024267
0.0180362
0.0239969
0.0239881
0.0231431
0.0204408
0.021043
0.0216557
0.0217625
0.0178907
0.0166262
0.00166879
0.0249424
0.0150908
0.0161954
0.0176519
0.00897433
0.00752538
0.0300726
0.0234269
0.0214604
0.0272741
0.0282043
0.0105458
0.0043111
0.00729166
0.0295366
0.015209
0.0077532
0.0252393
0.00656767
0.0220332
0.0126225
0.00552404
0.00528889
0.02065
0.0119893
0.0226502
0.000940463
0.0199273
0.00207579
0.0215887
0.0123449
0.0180337
0.0185065
0.0175644
0.0227282
0.0220331
0.0248341
0.00764299
0.0338722
0.0326915
0.0287801
0.0198438
0.0195888
0.0152422
0.020747
0.0231538
0.0243386
0.027817
7.74698e-05
0.010816
0.0119566
0.0368161
0.0249193
0.00308474
0.0256694
0.00313307
0.0146271
0.0167874
0.0102434
0.00746182
0.0289196
0.0235232
0.00796381
0.0157739
0.0298322
0.0101612
0.00625081
0.000515939
0.014567
0.00216564
0.0268437
0.00635944
0.0284923
0.0338053
0.00870659
0.0237694
0.00031775
0.000340194
0.00825076
0.0274923
0.0274859
0.0261809
0.0232567
0.00172959
0.0179647
0.0386171
0.0171888
0.0231481
0.0220644
0.0229199
0.0232292
0.0184067
0.0254555
0.0225891
0.00790824
0.0019414
0.00219991
0.00222002
0.0216559
0.0242082
0.0135458
0.0241613
0.00568177
0.00589382
0.00670563
0.0208429
0.0282067
0.0278033
0.0291883
0.0165182
0.00818383
0.025622
0.00775274
0.0207487
0.0225128
0.02329
0.0126927
0.0256026
0.0115702
0.0212125
0.0220326
0.0210618
0.0111256
0.0157839
0.0391316
0.00984331
0.00250959
0.0201011
0.0171798
0.0214648
0.0138227
0.016141
0.0174325
0.018611
0.0153879
0.0224572
0.0324485
0.0166667
0.0251968
0.0115969
0.0207005
0.0157273
0.0199706
0.0217013
0.020448
0.0275578
0.00386125
0.027058
0.0179319
0.000845777
0.0117372
0.0283773
0.0254336
0.0150095
0.00357732
0.0230176
0.00830341
0.0291638
0.00835985
0.0237995
0.0225459
0.0264604
0.0201183
0.0244084
0.0167117
0.00279771
0.0219198
0.0024819
0.0266137
0.000257263
0.000918627
0.00554104
0.0020031
0.0182004
0.000937866
0.0294259
0.0296404
0.024911
0.0256577
0.0278799
0.027942
0.0270058
0.0273581
0.00763692
0.0297958
0.0269463
0.00592116
0.0255265
0.0313876
0.0175645
9.89224e-05
0.0246029
0.0267146
0.0229911
0.0214457
0.0241882
0.0287299
0.00271884
0.0252879
0.00124963
0.000668974
5.24639e-05
0.0220381
0.0156004
0.00680314
0.0127813
0.0250267
0.0369952
0.0175816
0.0229226
0.023517
0.0285574
0.00233564
0.0389466
0.0263754
0.00765866
0.0187253
0.00909
0.0196898
0.0241729
0.00924956
0.0260059
0.020233
0.0109749
0.0172647
0.0105708
0.0213641
0.0171533
0.0273902
0.0281661
0.0080118
0.0146312
0.0177716
0.0173305
0.0234987
0.0330426
0.0119924
0.0233829
0.0179307
0.0117984
0.0151848
0.0298593
0.0168125
0.0153901
-0.000160637
0.0317349
0.0310463
0.00101525
0.0256118
0.00194578
0.0192879
0.029299
0.00434681
0.0272333
0.0271392
0.0289086
0.0277393
0.0223036
0.0229276
0.0249856
0.00679178
0.0241561
0.00844151
0.00224091
0.0127733
0.00343092
0.0229343
0.0248302
0.0105744
0.0105404
0.0128926
0.0290038
0.0032598
0.0248127
0.0147661
0.028667
0.0203334
0.0280172
0.0270348
0.0302209
0.0268396
0.00125928
0.0178595
0.0267181
0.0186704
0.024341
0.0234762
0.00493426
0.0281957
0.021387
0.0295173
3.62291e-05
0.0268666
0.00680703
0.0144709
0.00193955
0.0229234
0.0221871
0.0347213
0.0212398
0.00710158
0.0262985
0.0250865
0.000773155
0.000544239
0.0341847
0.0234713
0.00815547
0.0380288
0.00938197
0.0147914
0.0256469
0.000331248
0.00295999
0.0389771
0.00745957
0.011221
0.0110707
0.0182637
0.0250607
0.0144451
0.0105032
0.0256625
0.0288285
0.0266302
0.0248691
0.0146206
0.0250769
0.0176321
0.0108196
0.022115
0.0217499
0.0176702
0.0199965
0.0145134
0.0136282
0.025326
0.0259848
0.0263794
0.0219583
0.0311737
0.0212167
0.0220137
0.0207052
0.0217165
0.0262689
0.0188851
0.00420912
0.0285732
0.0276555
0.0258313
0.00437961
0.0245849
0.0214437
0.0239982
0.0218644
0.0292682
0.0256736
0.00335529
0.0103478
0.0289581
0.0291807
0.0315174
0.00284532
0.0141115
0.00991319
0.0270194
0.026152
0.0279891
0.0312864
0.0316016
0.0271755
0.0310429
0.0267628
0.026305
0.0169223
0.028031
0.0237125
0.0309843
0.0374339
0.0235042
0.0219557
0.0387203
0.0193795
0.0138018
0.0288688
0.0159398
0.0310324
0.000879728
0.0240975
0.0149141
0.0356702
0.0232731
0.0222048
0.0295297
0.0142006
0.000938451
0.0130414
0.0359662
0.000222653
-0.000165664
0.0237976
0.00926123
0.010009
0.0098523
0.00707352
0.00600145
0.00671071
0.00539895
0.0105976
0.0275531
0.0308387
0.00311543
0.0278223
0.0246707
0.00244512
0.023406
0.0285189
0.0288999
0.0163141
0.0201031
0.0153283
0.0283461
0.0159784
0.0246
0.0219343
0.0162994
0.0227065
0.027686
0.0157011
0.0153633
0.022519
0.0221348
0.0187812
0.0301637
0.00352491
0.0317488
0.019348
0.0165383
0.0181784
0.0285712
0.0124745
0.00962042
0.0286787
0.0254431
0.0261495
0.0279094
0.0356178
0.0322141
0.0288081
0.0260602
0.0284195
0.0299068
0.0289831
0.0179833
0.0304779
0.0290945
0.00847885
0.0260432
0.019291
0.0303925
0.0252534
0.0299278
0.0150388
0.0269498
0.0190441
0.0221534
0.028006
0.0302789
0.00816815
0.0247355
0.0197077
0.0190071
0.0201008
0.030951
0.0253804
0.02675
0.000524704
0.0227359
4.78203e-05
0.026609
0.00220456
0.0365726
0.0092163
0.0189243
0.00741788
0.00714711
0.00645028
0.0245818
0.0267099
0.0183382
0.0187925
0.0245248
0.0167287
0.0279981
0.0287745
0.0209141
0.0315326
0.0273234
0.0317231
0.0274728
0.0257099
0.0295466
0.0167087
0.0216709
0.0223489
0.0177635
0.00396983
0.029792
0.0292271
0.0346609
0.0090541
0.0273791
0.024415
0.00969873
0.0222436
0.027154
0.0237264
0.0308812
0.0293071
0.0279996
0.0305079
0.0227198
0.0291702
0.0304337
0.0294493
0.0288982
0.0241602
0.0270435
0.0213842
0.0312239
0.0261983
0.0389808
0.0383268
0.0252736
0.0309101
0.0248164
0.0244084
0.0237586
0.0203386
0.0286516
0.0254147
0.02741
0.0285929
0.0313082
0.0275744
0.0234851
0.0261532
0.0262283
0.0305434
0.0253544
0.027026
0.0287519
0.0298732
0.00212165
0.0276728
0.00292721
0.0033577
0.00372162
0.00188862
0.027228
0.0058049
0.000671781
0.0200584
0.0269717
0.0369206
0.0376005
0.0311706
0.0249832
0.0305724
0.0166346
0.0344165
0.0220758
0.0242738
0.0264277
0.0285704
0.0187612
0.02823
0.0295168
0.021399
0.0229617
0.0293663
0.0231444
0.0338395
0.0295148
0.0327666
0.0101314
0.00185939
0.0273511
0.0271174
0.0266667
0.0329352
0.0279631
0.0335349
0.0280404
0.0301582
0.0176514
0.0313382
0.0226431
0.0302125
0.0240382
0.0305804
0.0314754
0.0191912
0.0278385
0.0206564
0.0288421
0.0206284
0.0291486
0.0253219
0.0243895
0.0290895
0.0281647
0.0253085
0.0282116
0.0192633
0.0335776
0.0262722
0.0278508
0.0287559
0.0299788
0.00818185
0.0203311
0.0303868
0.00299387
0.00393334
0.030933
0.0272605
0.000468624
0.0369943
0.0246415
0.0341033
0.0268327
0.0233855
0.0233644
0.0322359
0.0270197
0.02319
0.0244318
0.026297
0.0269366
0.0267047
0.034669
0.0296428
0.0297747
0.0200558
0.0201134
0.0313423
0.0253617
0.0296794
0.0296487
0.0334809
0.0370003
0.0352326
0.0235995
0.0313989
0.0248065
0.0291191
0.0285138
0.0244136
0.0111318
0.0308676
0.037327
0.0302847
0.023289
0.0268553
0.0232989
0.0383982
0.0215037
0.0276092
0.0233674
0.024452
0.0292515
0.0308761
0.0246516
0.0295514
0.0289645
0.02631
0.0300195
0.0291505
0.0290807
0.0260705
0.0313964
0.0315233
0.0309831
0.0265867
0.030592
0.0306524
0.0303363
0.00972601
0.0310638
0.0220555
0.0228111
0.0280096
0.0334529
0.0222438
0.0270982
0.0314096
0.0265826
0.0272023
0.0235428
0.0351793
0.0262199
0.0307753
0.0223002
0.022393
0.0269393
0.0311463
0.0222071
0.0265022
0.0263277
0.0306248
0.0311161
0.0265616
0.0268342
0.0333784
0.033257
0.0274352
0.0328764
0.0321965
0.0290063
0.033115
0.0135357
0.0329521
0.0311609
0.0306845
0.0309689
0.0295524
0.0309119
0.0341493
0.0279317
0.0307305
0.0246482
0.0281791
0.0253832
0.0291123
0.0291011
0.0352773
0.0295795
0.0350563
0.03515