/*--------------------------------*- C++ -*----------------------------------*\
| =========                 |                                                 |
| \\      /  F ield         | OpenFOAM: The Open Source CFD Toolbox           |
|  \\    /   O peration     | Version:  2212                                  |
|   \\  /    A nd           | Website:  www.openfoam.com                      |
|    \\/     M anipulation  |                                                 |
\*---------------------------------------------------------------------------*/
FoamFile
{
    version     2.0;
    format      ascii;
    arch        "LSB;label=32;scalar=64";
    class       surfaceScalarField;
    location    "0.05";
    object      phi;
}
// * * * * * * * * * * * * * * * * * * * * * * * * * * * * * * * * * * * * * //

dimensions      [0 3 -1 0 0 0 0];

oriented        oriented;

internalField   nonuniform List<scalar> 
68568
(
-1.51349e-07
1.56162e-07
-2.94417e-08
2.46287e-08
1.45517e-07
-7.44008e-08
-7.71707e-08
6.05475e-09
1.76348e-07
-1.34683e-07
-5.97971e-08
1.81321e-08
-4.49632e-09
2.20257e-09
-1.69237e-07
1.7153e-07
-1.27454e-09
1.4184e-07
1.00966e-09
-1.41576e-07
1.39439e-07
-4.6623e-10
-1.28353e-07
-1.06201e-08
8.36761e-08
-8.8807e-08
1.30502e-07
-1.25371e-07
-3.96183e-08
-2.71167e-08
1.50411e-07
1.31451e-07
-1.56912e-08
-1.10854e-07
-4.90577e-09
1.4952e-07
5.36842e-08
-5.76879e-08
1.00998e-07
1.37673e-07
-6.23235e-08
-6.42774e-08
-2.0239e-07
1.92267e-07
-1.40292e-07
6.87829e-08
-5.66158e-09
1.83455e-07
-1.88955e-07
1.36245e-08
-8.12459e-09
-7.03527e-08
-5.16073e-08
1.20794e-07
1.16606e-09
1.28583e-07
8.82334e-08
-1.31109e-07
-8.57073e-08
-5.13293e-08
-7.90657e-08
1.15445e-07
1.49502e-08
1.12823e-07
-1.18006e-07
-4.61467e-08
1.12281e-07
-4.42144e-09
-6.77605e-10
-1.07182e-07
8.58963e-08
-1.55446e-07
7.79221e-08
-8.37275e-09
1.13467e-07
-4.28174e-10
-1.12963e-07
-7.5756e-11
-1.80275e-08
9.06599e-09
1.41498e-07
-1.32537e-07
-4.60953e-08
1.90996e-07
-2.75715e-08
-1.17329e-07
-7.63632e-10
-5.18866e-10
-1.37129e-07
1.38411e-07
-7.53279e-08
-4.91359e-08
1.17485e-07
6.97905e-09
-9.80364e-08
-4.03178e-08
-1.29945e-08
-6.55296e-08
1.42862e-07
8.56359e-09
7.79925e-08
4.59019e-08
-3.10178e-08
-9.28767e-08
-6.89498e-08
-1.00444e-07
1.29775e-07
4.93727e-08
-1.21664e-07
3.3415e-09
1.54925e-07
-8.25152e-08
-1.45919e-07
7.35085e-08
-1.33798e-08
2.50325e-09
1.18338e-07
-1.07462e-07
1.58341e-07
-3.30748e-08
-1.13252e-08
-1.13941e-07
1.20854e-07
-9.26551e-08
-5.95494e-08
3.13508e-08
-6.013e-10
1.10644e-07
-1.1011e-07
6.69712e-11
1.23254e-07
8.59622e-08
-8.61123e-08
6.23731e-10
-4.73645e-10
4.36463e-08
-1.61636e-07
9.40534e-08
2.39358e-08
-1.63689e-07
1.42259e-07
6.50762e-08
-7.48348e-08
-1.81241e-10
-3.11911e-10
-8.61405e-10
1.15444e-07
-1.11577e-09
1.14257e-07
-1.13819e-07
-6.23897e-10
1.85323e-10
-2.68001e-08
-1.59587e-07
1.21279e-07
1.96558e-07
-1.4958e-07
-1.68257e-07
-6.26713e-08
-1.05089e-07
2.96344e-07
-1.48204e-07
1.65628e-07
-1.39045e-07
1.21621e-07
-1.25341e-07
6.64376e-08
-5.37357e-09
1.16704e-07
-1.13938e-07
-3.62694e-09
8.60827e-10
9.9347e-08
2.55107e-08
1.19191e-08
-1.36777e-07
2.22532e-09
-1.54198e-07
1.49528e-07
3.44257e-08
-2.97562e-08
-8.6637e-09
-9.48331e-08
1.03168e-07
3.28707e-10
-1.33312e-07
1.39607e-07
1.78808e-07
-1.8274e-07
-3.83741e-10
-1.89853e-10
2.10484e-09
-1.66611e-09
1.10433e-07
-1.10872e-07
3.99685e-08
-1.17008e-07
-2.02628e-09
9.30635e-08
-9.94579e-08
3.78348e-09
2.61092e-09
-8.68311e-08
1.43969e-07
-6.32927e-08
6.15517e-09
1.48851e-07
-7.70992e-08
-7.51995e-08
3.44816e-09
9.1963e-08
-9.22311e-08
-4.95457e-10
-1.13702e-07
-1.73723e-09
1.17642e-07
7.70265e-08
7.25946e-08
-7.82041e-09
-1.41801e-07
-6.09476e-09
1.37534e-07
-1.32285e-07
8.45671e-10
8.98312e-08
-1.52318e-07
-3.04318e-09
1.09884e-07
-1.80257e-08
3.41364e-08
-1.25995e-07
1.51912e-07
-2.37929e-08
-1.72205e-07
4.40858e-08
4.1258e-08
8.33015e-08
-1.22782e-08
6.53106e-08
-1.29394e-07
7.09105e-08
-6.82711e-09
1.36669e-07
-1.3779e-07
-1.5381e-10
-1.02033e-07
1.45661e-07
-3.22176e-08
-1.14104e-08
-2.0815e-07
-1.52584e-07
2.91651e-07
6.90823e-08
-1.24127e-07
-1.07851e-09
1.29602e-07
-6.46636e-09
1.36694e-07
-1.45058e-07
-5.46302e-08
6.29946e-08
-1.27443e-07
6.58296e-08
6.75761e-08
-5.96311e-09
-2.01603e-08
-5.43434e-08
-4.93047e-08
-1.02303e-07
1.025e-07
-4.72574e-10
2.75656e-10
4.06335e-08
1.76286e-07
-6.80686e-08
1.06313e-07
-6.41379e-08
5.08882e-08
-7.40128e-08
-8.10651e-08
1.51129e-07
3.94863e-09
-5.71376e-10
-2.22311e-07
-5.3931e-10
2.23422e-07
7.5241e-08
-4.72583e-08
8.62748e-08
-2.56284e-10
6.55418e-08
-6.53473e-08
6.17993e-11
-1.94896e-08
1.41905e-07
6.84106e-08
-1.90826e-07
1.72633e-07
-8.72541e-08
-9.05169e-08
5.13795e-09
1.20904e-07
3.84882e-08
-3.67638e-08
-1.22628e-07
1.65885e-07
-7.8073e-08
7.73232e-08
-1.65135e-07
3.56818e-08
1.34567e-08
1.16747e-07
-8.96679e-08
8.53069e-08
-1.64876e-07
1.26089e-07
1.05812e-09
-1.2334e-07
-3.80712e-09
-4.02033e-08
-2.83453e-07
1.98315e-07
8.485e-08
8.74768e-08
-6.69852e-09
-3.98876e-10
5.22614e-10
9.50403e-08
-9.5164e-08
-1.25404e-07
1.25266e-07
-3.80614e-10
-6.05715e-08
1.20921e-07
6.08857e-09
7.46616e-09
8.87374e-08
-5.06963e-09
-9.11339e-08
-1.29724e-07
5.73194e-08
9.06293e-08
-1.82246e-08
-4.47151e-08
-8.21758e-08
-1.02379e-08
-8.43592e-08
1.6366e-07
5.54919e-09
7.31941e-08
7.62859e-08
-1.44277e-07
-5.20256e-09
1.15128e-07
1.02797e-09
-1.16042e-07
-1.13897e-10
-6.05684e-09
-2.12655e-07
-1.44354e-08
2.22591e-07
-7.00578e-09
1.24447e-07
-1.25337e-07
5.81344e-08
-7.5836e-09
9.88068e-08
-4.20449e-10
-9.73185e-08
-1.06779e-09
1.23779e-07
-8.20396e-10
1.37519e-07
-4.69476e-08
8.20612e-08
1.49921e-10
-1.05116e-07
-3.41286e-09
1.12915e-07
-4.38542e-09
9.20664e-08
-5.08193e-08
-9.12408e-08
-3.05706e-11
9.11569e-08
1.14475e-10
-3.54168e-08
-1.37898e-07
1.46597e-07
2.6718e-08
-2.21464e-09
1.32261e-07
-1.2963e-07
-4.16284e-10
-8.94025e-08
-3.71742e-08
1.26776e-07
-1.98833e-10
-4.25462e-09
2.0782e-09
-1.11526e-07
-1.65583e-07
8.82435e-08
8.2526e-08
-5.18619e-09
3.44538e-10
-1.01994e-07
1.0193e-07
-2.81348e-10
1.39807e-07
-8.00926e-10
-3.05933e-10
-1.12276e-07
2.97108e-10
1.12284e-07
-2.09472e-08
2.17108e-08
6.63865e-09
1.3315e-07
-7.28256e-08
4.98578e-09
1.42642e-07
-1.4181e-07
-1.4211e-08
-1.25278e-07
1.41559e-07
1.92632e-08
-3.55443e-08
7.29553e-08
-7.42902e-08
1.53247e-07
3.89609e-09
1.15034e-07
1.54471e-07
-1.29698e-09
-1.55389e-07
6.96471e-08
-1.45231e-07
-4.5519e-09
8.01362e-08
1.45075e-07
-7.98558e-08
7.97488e-09
1.0118e-07
-9.90208e-08
-1.13901e-07
5.90033e-08
-3.12145e-08
-1.51903e-07
1.44818e-07
-1.948e-08
2.65645e-08
1.60756e-07
4.7354e-08
-5.3807e-08
-1.52841e-07
-7.47713e-08
-3.08323e-08
8.17566e-08
2.3847e-08
-1.32319e-07
6.96552e-08
-5.53457e-08
1.1801e-07
-1.54579e-07
-3.39969e-09
1.61038e-07
-3.05904e-09
-1.10727e-07
2.09991e-08
-6.48516e-08
-1.65829e-07
-6.35417e-09
9.5939e-08
-1.38684e-09
-1.13899e-07
-5.73935e-10
-1.10654e-07
1.41771e-07
-7.49607e-08
6.07009e-09
1.5802e-07
-8.44264e-08
-8.00361e-08
6.44217e-09
-1.3637e-07
1.83023e-07
-4.71051e-08
4.521e-10
8.33857e-08
-8.41243e-08
-1.35632e-07
9.60932e-08
7.43257e-09
-2.34606e-09
6.79985e-10
1.05975e-07
-1.05462e-07
-1.1926e-09
1.92925e-07
-4.89581e-08
-1.05478e-07
-1.10352e-07
6.12243e-08
1.16497e-07
-1.11854e-07
-2.56462e-09
-1.85459e-09
1.03119e-07
-1.01608e-07
3.44391e-10
-9.95465e-09
-1.36941e-07
1.34101e-07
1.27949e-08
-1.412e-07
1.58101e-07
-9.97821e-09
-6.92276e-09
1.22707e-07
-8.52446e-08
-3.33205e-08
4.60208e-09
-8.16211e-09
-9.93008e-08
9.87993e-08
3.34462e-08
-6.91465e-09
-1.37258e-07
-2.03357e-08
1.11983e-07
-8.5424e-08
-6.22347e-09
1.62894e-07
-6.93097e-09
-1.39814e-08
-1.41982e-07
1.59277e-07
1.96261e-10
-2.73011e-09
-1.56744e-07
1.38155e-07
-1.36864e-09
-1.17259e-10
1.30884e-07
-1.31181e-07
3.22773e-10
-2.5843e-11
-1.27353e-07
-8.27232e-08
1.27901e-07
2.14776e-08
-1.72713e-07
-1.12117e-07
1.11857e-07
1.19043e-10
1.4023e-10
-1.35819e-07
-7.28567e-09
1.90513e-09
-1.03339e-07
-6.17398e-13
1.03305e-07
3.50751e-11
-1.2374e-07
-2.42259e-10
1.24156e-07
-1.7411e-10
-7.72543e-09
1.1902e-07
-1.03411e-07
-7.3529e-09
-1.04268e-07
1.03754e-07
2.07672e-10
1.32792e-08
2.89688e-08
9.0299e-08
-1.30815e-07
7.36223e-08
-7.39622e-08
1.46339e-07
-1.45999e-07
1.04598e-07
-8.22548e-08
-2.45032e-08
2.1598e-09
1.34076e-07
-3.54874e-08
-1.10067e-07
1.35093e-08
5.64744e-09
-1.10096e-07
1.2445e-07
-2.00018e-08
-5.96232e-10
1.03481e-07
-1.02395e-07
-4.9031e-10
-1.42617e-07
-8.49537e-09
1.67497e-07
2.08883e-07
-8.89538e-08
1.88591e-07
1.5503e-07
-7.726e-08
5.61528e-09
-2.64926e-08
2.61145e-08
-1.09143e-07
1.12546e-07
8.93284e-08
9.44474e-08
-7.4901e-09
9.40687e-08
7.31329e-08
-1.61152e-07
-6.04912e-09
8.27289e-08
8.00666e-08
-7.76514e-09
1.22748e-07
-7.61124e-08
8.42481e-08
7.43472e-08
-1.26113e-07
6.01474e-08
-8.38156e-09
6.61408e-10
-9.98876e-08
-1.21778e-09
2.76752e-10
-3.13992e-07
1.8761e-07
2.0761e-07
-1.2791e-07
4.72914e-08
9.59921e-09
4.39777e-08
4.58771e-08
-9.94539e-08
-1.29476e-07
2.00168e-09
1.28626e-07
-1.15193e-09
-9.91754e-08
9.86993e-08
-1.49913e-11
4.91172e-10
1.3016e-07
-1.68472e-07
1.99165e-07
-1.60853e-07
1.56919e-08
-1.37237e-09
1.27521e-07
-3.18402e-08
7.48093e-09
-7.43216e-08
9.86808e-08
-7.24817e-08
1.40891e-07
5.21305e-09
-1.47201e-07
7.65891e-08
7.58294e-08
-5.21786e-09
-1.11833e-07
-2.50551e-08
1.16552e-07
5.22134e-10
7.77037e-08
-1.20383e-10
-7.81054e-08
1.47396e-07
-6.68204e-08
7.77657e-08
1.37957e-09
-1.19506e-10
9.40616e-11
-9.77859e-08
1.79821e-07
-4.79675e-08
-2.98472e-08
-1.02007e-07
-2.63103e-09
3.00733e-08
-1.06439e-07
8.31282e-08
-3.39591e-08
2.28024e-08
2.13095e-07
-3.21191e-08
1.67626e-07
-1.74599e-07
-6.30488e-08
-6.75912e-08
5.36192e-09
1.32498e-07
6.28671e-09
-7.12674e-08
-7.24471e-08
1.36425e-07
7.28981e-09
1.20475e-08
1.1494e-07
-1.54129e-07
-1.70022e-10
7.04485e-08
-6.8913e-09
-6.62297e-10
-1.35877e-07
1.38953e-10
1.36401e-07
-1.39948e-07
1.70851e-07
-4.41083e-08
1.12446e-08
-9.65687e-09
5.16017e-08
1.12526e-07
-1.30051e-07
7.59456e-08
-2.73126e-08
8.14177e-08
-1.42394e-07
9.59728e-08
-1.29794e-07
1.28276e-07
2.21127e-10
9.35342e-08
2.21068e-08
-1.68237e-07
-2.18731e-08
1.68003e-07
-1.84687e-07
1.01263e-07
-1.38887e-07
-1.70996e-09
1.67352e-07
2.43308e-08
6.71034e-08
-9.61338e-08
4.6995e-09
5.49325e-08
-2.16122e-08
7.58097e-10
-1.00876e-07
6.04799e-10
-2.37277e-07
2.373e-07
-5.62426e-10
-9.63071e-08
-1.01047e-07
-9.41429e-08
1.02481e-07
-1.12606e-07
8.48711e-08
-1.07638e-07
1.72937e-08
5.47281e-09
1.271e-07
-9.16368e-08
-9.34824e-09
-1.56764e-07
-1.10205e-08
2.11686e-08
1.46615e-07
-3.1344e-07
-2.75216e-10
-1.32651e-07
1.31819e-07
4.32915e-10
-9.44082e-08
-4.616e-11
3.11413e-10
-1.43494e-08
-9.54529e-08
1.52935e-07
-4.31324e-08
1.0969e-07
5.42657e-09
4.41611e-08
-1.36369e-07
1.35542e-07
-3.59459e-09
-5.4509e-08
1.4117e-07
-9.98309e-08
2.69048e-10
-1.29519e-07
-2.26302e-10
9.27883e-08
-9.46902e-08
2.35855e-10
-6.70139e-08
-6.65927e-08
1.2579e-07
7.81701e-09
1.14675e-07
1.77818e-08
-9.82654e-08
-3.41917e-08
6.91286e-08
1.54196e-07
-2.06409e-07
-1.85998e-08
-1.11352e-07
-1.96639e-08
1.28866e-07
5.4281e-11
-1.29262e-07
3.41451e-10
2.43696e-08
7.83774e-09
5.50506e-08
-8.72579e-08
-1.43083e-07
7.70165e-08
-5.20084e-09
-1.1878e-07
1.16293e-07
-6.79687e-09
-4.00429e-10
1.22815e-07
3.34327e-10
-8.10075e-08
-7.27811e-08
1.46675e-07
7.11313e-09
1.30747e-07
-7.03654e-08
-6.73441e-08
6.96229e-09
1.31235e-07
-2.36761e-09
-1.19439e-12
-1.02452e-07
-9.28885e-08
1.00932e-07
-1.33379e-07
-4.76524e-08
1.05293e-08
1.7194e-07
-1.07424e-07
3.00388e-08
-1.30765e-07
2.51929e-10
-1.06996e-07
6.77108e-10
-6.95856e-10
1.36165e-07
2.60099e-08
-2.78047e-08
-1.3437e-07
4.66604e-08
-1.31734e-07
-1.90524e-11
1.28003e-10
3.95127e-08
-1.97115e-07
-7.93723e-08
1.34341e-07
9.06931e-08
2.10252e-08
-1.47946e-07
-1.86759e-08
1.45597e-07
-8.24817e-08
6.18377e-09
1.34905e-07
-1.33559e-07
9.28875e-08
4.21523e-08
-1.48111e-09
-6.53139e-10
1.85666e-10
-9.85804e-08
6.76877e-08
-4.52406e-09
-1.62036e-09
-3.08648e-09
-2.3706e-09
9.7061e-08
-9.16039e-08
8.36564e-08
1.063e-07
-1.05098e-07
-8.48588e-08
1.51357e-07
-1.68979e-07
3.45111e-10
1.61922e-10
1.59629e-07
-1.03181e-08
-1.40245e-07
-4.3238e-08
1.54889e-07
1.1056e-08
1.20406e-07
-1.1355e-07
-5.91815e-09
-9.37335e-10
-1.1122e-09
1.15961e-07
1.66583e-07
-5.78981e-08
-2.37208e-09
9.54755e-08
-8.46559e-08
-5.24809e-10
2.2125e-10
1.42945e-07
-1.61714e-07
7.85459e-09
1.49323e-07
2.10924e-09
-1.20439e-08
1.73296e-07
-2.17353e-07
4.7072e-08
1.01029e-09
9.19884e-08
-8.8653e-10
-9.21121e-08
-1.18989e-07
1.19249e-07
-1.66288e-10
1.17631e-09
-1.92818e-10
-1.13397e-07
1.12323e-07
-3.86309e-11
-1.11321e-07
-2.48193e-10
2.173e-10
7.24459e-08
-1.04344e-07
-7.75312e-08
1.09429e-07
2.05005e-11
-1.16901e-07
1.17006e-07
-1.26177e-10
-3.64029e-08
6.16293e-08
5.33414e-09
-1.98979e-08
-1.43074e-07
7.44097e-08
-6.10708e-09
2.85717e-08
-1.61719e-08
1.08006e-07
-1.37335e-07
6.62853e-08
6.3779e-08
7.27106e-09
-1.61148e-07
-1.12763e-07
1.13068e-07
-1.28044e-07
-4.38507e-08
5.88266e-08
1.31722e-07
-1.32527e-07
2.4091e-10
5.64355e-10
-1.79668e-09
-1.86989e-07
1.57698e-10
1.88628e-07
-1.07211e-07
4.38318e-11
1.07221e-07
-1.29651e-07
-1.5478e-10
5.44217e-10
7.3425e-08
-1.29525e-07
-6.94832e-09
3.05898e-10
-1.31366e-07
-1.20899e-10
7.71856e-08
7.79333e-08
-5.59093e-09
-7.46029e-08
-7.48346e-08
1.43169e-07
6.26803e-09
-1.18376e-07
8.66881e-10
1.17293e-07
2.16448e-10
1.26038e-07
3.11868e-08
1.12193e-07
-1.59162e-08
1.09557e-07
-5.63618e-09
-1.00198e-07
4.7259e-08
4.56703e-08
7.2687e-09
1.54127e-08
1.30372e-07
-1.53824e-08
-1.259e-07
7.46375e-08
-7.25632e-08
-1.3347e-07
-1.07698e-07
1.18384e-07
1.22785e-07
1.10117e-07
-1.26587e-10
1.1714e-07
-1.18605e-07
1.4362e-09
2.87196e-11
-1.3318e-07
-1.30537e-07
8.45965e-10
6.06444e-11
1.72561e-08
3.42276e-08
-1.56338e-07
1.5244e-08
-4.40342e-08
1.99962e-07
1.36502e-07
-1.27766e-07
-8.8573e-09
8.37325e-10
1.96196e-08
-2.16665e-08
1.35261e-07
-3.35413e-08
-8.0053e-08
1.0759e-07
-7.04345e-10
-1.06669e-07
-2.16437e-10
-4.27447e-08
-1.46717e-07
2.91601e-07
-1.02139e-07
1.05676e-07
-8.05989e-08
-7.46404e-10
-2.63357e-11
1.03917e-07
-4.0965e-10
7.47198e-08
-7.5277e-08
1.37114e-07
-1.80845e-07
-1.32255e-07
8.0521e-08
1.28323e-07
-2.35367e-09
-3.06291e-08
-8.35574e-08
7.21516e-08
8.62214e-08
8.21035e-09
1.8656e-07
-1.27017e-07
4.8478e-09
1.49927e-07
-8.11062e-08
7.00873e-09
1.24375e-07
-1.65578e-07
1.26949e-07
-7.4597e-08
-3.6049e-08
-1.4029e-08
1.82043e-09
1.05968e-07
-1.17743e-07
6.91027e-08
-1.30837e-07
-5.28009e-09
1.50946e-07
3.62927e-09
-4.66876e-08
1.41501e-07
-9.58237e-08
-2.04418e-09
-2.58263e-08
1.41374e-07
-1.58744e-07
4.31972e-08
1.1835e-07
2.13155e-08
-5.63636e-08
-2.40431e-09
-1.46364e-07
1.4658e-07
-9.29115e-10
-3.0461e-08
2.30219e-08
-9.87588e-08
1.06198e-07
7.62923e-08
-1.43625e-07
-5.11465e-09
-1.37826e-07
1.38263e-07
-1.30401e-10
-7.73007e-08
1.59613e-07
-1.25057e-07
-7.31748e-08
-8.03958e-08
1.56722e-08
-1.01579e-07
-1.17244e-10
2.07718e-07
4.99817e-08
-1.52372e-07
-1.08051e-07
-7.4768e-08
1.33425e-07
2.32995e-07
-6.37289e-11
-9.09203e-08
-1.17259e-10
9.11013e-08
3.28807e-08
1.09319e-07
-6.84621e-10
1.51395e-07
6.31169e-09
9.80963e-08
5.73066e-08
2.69775e-09
7.44766e-08
-1.43488e-07
-5.59135e-09
-7.37856e-08
-8.3098e-08
1.48255e-07
8.62891e-09
-9.16115e-08
-4.45624e-09
-4.13018e-09
-8.76634e-08
-1.18704e-07
1.16058e-07
-5.10711e-11
-1.25987e-07
-3.39325e-09
1.23286e-07
-9.13601e-08
-1.38565e-07
9.9318e-08
1.30607e-07
-1.13629e-07
3.94593e-08
7.74132e-08
-3.24354e-09
7.14613e-08
7.11395e-08
-1.35654e-07
-6.94697e-09
-7.23307e-08
-6.97407e-08
1.35676e-07
6.39582e-09
5.25425e-08
4.86663e-08
-1.11216e-07
1.00076e-08
-6.84357e-08
1.14239e-07
-3.71635e-08
-8.63948e-09
1.07004e-07
-1.07484e-07
-1.82314e-10
-9.58351e-08
7.04983e-10
8.35178e-08
1.07954e-07
-2.88539e-08
-1.62618e-07
-3.17178e-08
9.05818e-08
3.90089e-08
-9.78729e-08
-9.93158e-08
-4.04342e-11
1.01088e-07
-1.73165e-09
-7.51246e-08
-4.32816e-08
9.67398e-08
1.25959e-07
-3.32064e-09
7.14357e-08
-1.3317e-07
6.67995e-08
-5.06506e-09
-6.11704e-08
4.48517e-08
-1.25982e-07
1.15789e-08
1.29986e-07
-1.0665e-07
-3.33464e-08
5.91614e-08
8.45027e-08
-7.58411e-08
8.55893e-10
-1.24439e-07
-1.56042e-10
4.57063e-09
3.77057e-09
1.05241e-07
-1.19152e-07
5.75775e-08
5.44278e-08
7.14705e-09
7.50308e-08
-4.92975e-09
4.01653e-08
6.44344e-08
7.38341e-09
9.0027e-09
1.30106e-07
-1.07855e-08
-6.65369e-09
-8.37608e-08
8.19402e-08
1.37081e-07
-7.57931e-08
-1.60135e-07
1.60729e-07
1.68461e-07
5.91357e-08
-5.67183e-08
-1.70878e-07
1.4589e-08
-1.31921e-07
1.41702e-07
-8.00071e-08
-7.26004e-08
1.45806e-07
6.80173e-09
-4.88059e-08
-1.17284e-07
1.99655e-09
6.92169e-08
-6.81791e-09
1.32438e-07
-6.56574e-10
-5.99189e-11
2.27983e-08
-8.78492e-08
9.36225e-08
2.38981e-10
2.44883e-10
-1.3831e-07
-3.44774e-09
8.18009e-08
-7.8938e-08
1.1618e-08
-8.57032e-08
1.46525e-07
-7.24399e-08
-2.85432e-08
-1.38019e-07
1.18753e-09
1.65375e-07
9.53584e-08
-1.83302e-07
7.16745e-08
1.62693e-08
-1.24949e-07
9.21102e-08
-9.9812e-08
1.02411e-07
-6.72742e-10
-1.01468e-07
-2.7056e-10
-4.63731e-08
-1.30729e-07
4.69433e-08
1.30159e-07
-7.39007e-08
-1.25339e-07
1.51407e-07
4.78336e-08
-2.91444e-09
-1.44957e-07
1.45588e-07
2.28393e-09
-1.27646e-07
1.27484e-07
-1.63535e-09
-1.4695e-07
1.29858e-07
-6.52922e-08
1.40495e-07
7.19608e-08
-6.1271e-09
7.81405e-08
-1.39197e-07
-6.50566e-08
-1.28351e-07
8.96424e-08
-1.04375e-07
-1.37224e-08
1.45242e-07
-8.94885e-08
-3.53496e-08
1.22644e-07
-1.20701e-07
-3.35284e-09
1.41005e-09
-9.96615e-08
-2.38722e-09
4.26279e-09
1.15989e-10
-1.52596e-07
1.49566e-07
-9.20798e-08
-2.87096e-10
7.55397e-10
-9.47795e-08
7.96754e-08
1.57399e-08
-6.3574e-10
-5.67411e-08
-1.35784e-07
1.82786e-07
9.73917e-09
1.17858e-07
-4.66224e-10
5.7364e-08
4.90061e-08
-1.15121e-07
8.75048e-09
-1.10748e-07
-5.43455e-10
1.11012e-07
2.79338e-10
-1.08257e-07
1.55682e-08
-2.59163e-08
6.44282e-08
-1.23e-07
5.19937e-08
6.57794e-09
-4.78609e-09
-9.58272e-08
4.30621e-09
1.57176e-09
-1.36561e-07
1.51877e-09
5.45875e-08
7.61893e-08
-8.48707e-08
1.90543e-08
5.37367e-08
2.11069e-08
1.29388e-07
-1.29925e-07
6.18581e-10
-8.15458e-11
-2.09891e-07
1.97852e-07
8.69878e-08
-7.49493e-08
5.81428e-08
-1.49803e-07
1.15176e-07
-2.35156e-08
7.58295e-08
-6.75195e-09
-6.92097e-10
-1.02699e-10
5.87763e-08
-6.24653e-08
-1.17855e-07
1.68196e-07
-1.39744e-07
1.15702e-07
-1.5203e-08
6.91349e-10
-1.55175e-07
1.54457e-07
1.32959e-07
-1.61956e-07
-1.4642e-09
-8.87796e-08
-8.44311e-08
1.66302e-07
6.90898e-09
9.59161e-08
2.09209e-10
-9.61699e-08
4.45699e-11
-1.50227e-07
8.03758e-08
7.45412e-08
-4.6901e-09
-2.03838e-07
1.2658e-07
-1.41506e-07
2.18764e-07
-1.96602e-07
2.56908e-08
-4.64628e-08
-1.15105e-07
-1.67103e-07
1.02832e-07
3.84452e-08
-1.49561e-08
-1.30698e-07
1.42404e-07
3.25002e-09
-3.39108e-09
-1.14136e-07
-9.82642e-09
1.13169e-07
-1.14753e-07
1.20878e-07
-3.88098e-08
1.68797e-07
1.51919e-07
1.11606e-07
-1.30967e-07
-1.25665e-07
4.03367e-10
1.21401e-07
-1.21855e-07
5.08535e-11
1.05113e-07
-1.13866e-07
3.96669e-09
-8.14801e-08
-6.19326e-10
7.16446e-08
1.07043e-07
-4.62493e-08
6.47103e-08
-1.2525e-07
-4.75268e-09
-3.88133e-10
1.18235e-07
-1.17951e-07
1.03759e-10
-1.2198e-07
-3.87037e-10
1.23024e-07
-6.57085e-10
-1.24572e-07
4.57916e-08
-3.47701e-08
-1.21712e-08
1.02854e-07
8.2207e-08
-1.249e-09
-1.83812e-07
3.16679e-09
-7.1631e-11
-1.75458e-08
8.49568e-08
-1.52583e-07
8.51717e-08
-1.31817e-07
1.33778e-07
6.82161e-08
-6.34178e-09
2.86184e-08
-1.36644e-07
-3.86391e-08
1.46665e-07
4.23773e-08
1.18708e-08
3.49204e-08
-8.91685e-08
7.17503e-08
7.85738e-08
-1.43905e-07
-6.41872e-09
-1.07391e-07
1.05647e-07
1.74976e-09
-4.81653e-12
-7.08942e-08
7.2538e-09
5.79926e-08
-5.57925e-08
1.31076e-07
-1.33276e-07
-1.09296e-07
2.31878e-07
-4.84997e-08
-7.40822e-08
8.97886e-08
-7.49435e-08
-7.86732e-08
6.38281e-08
7.13101e-08
-5.86378e-08
-1.42003e-07
5.62093e-08
8.49267e-09
6.07038e-08
8.42258e-08
7.84186e-08
8.08743e-08
-1.53144e-07
-6.14939e-09
1.40668e-07
8.36368e-09
-6.48723e-09
-1.42544e-07
1.07223e-07
7.32539e-10
-3.66415e-10
1.01051e-07
-1.03033e-07
2.39727e-09
-4.15477e-10
-6.8701e-08
-8.08396e-08
1.42669e-07
6.87168e-09
-1.265e-07
1.50807e-09
4.20613e-10
-1.11062e-07
-4.42879e-11
3.58104e-10
1.18544e-08
1.29765e-07
1.16868e-07
2.0065e-09
-1.01633e-09
1.42772e-10
-1.08225e-07
1.07538e-07
1.01894e-07
1.79531e-08
2.79679e-09
-1.26362e-08
3.80867e-08
-1.26298e-07
1.00848e-07
1.31079e-07
-1.30827e-07
-1.17497e-10
-1.3422e-10
-3.11644e-08
-1.24645e-07
1.815e-07
-1.24639e-07
-2.01202e-08
1.50172e-07
-5.41351e-09
1.61939e-07
-1.37337e-07
-2.36784e-08
-2.16945e-08
1.35162e-07
1.32636e-07
-1.33769e-07
4.53085e-10
6.79612e-10
1.57593e-07
-4.86702e-08
-1.55195e-07
4.62727e-08
1.31135e-07
-1.31255e-07
1.55163e-07
-1.55043e-07
9.49035e-09
-1.31991e-08
-1.03588e-07
1.07296e-07
2.8104e-08
-1.08165e-07
-4.58795e-08
1.2594e-07
9.1261e-08
8.26788e-08
-1.66678e-07
-7.26131e-09
2.14824e-07
-2.27311e-07
-1.33957e-07
-1.03988e-07
1.07794e-07
-1.37972e-08
1.32263e-08
-1.96397e-07
1.70446e-07
-9.0539e-08
1.41628e-07
-2.40609e-07
1.89519e-07
8.34673e-08
-1.67932e-07
-6.07391e-09
2.15037e-08
9.44585e-08
-1.62838e-08
-9.96784e-08
-1.60233e-09
1.21564e-07
-1.51182e-08
-1.00933e-07
-6.22532e-08
1.62085e-07
-1.12984e-07
1.31525e-08
-2.88268e-08
8.31582e-08
-4.68565e-08
-7.47495e-09
3.11511e-10
-1.04638e-07
1.04789e-07
-4.62452e-10
2.86795e-09
1.31175e-07
-1.32885e-07
-1.15777e-09
-2.58117e-08
-1.33512e-07
1.44354e-07
2.13078e-08
-6.52267e-08
1.70738e-07
9.63075e-09
-5.05558e-08
-4.67788e-08
1.33066e-07
-2.34123e-07
-3.60709e-08
-1.59683e-07
1.2613e-07
-7.57433e-08
1.29923e-07
-1.26547e-07
-5.0783e-10
-1.03758e-07
1.53328e-09
-2.24722e-09
1.04472e-07
6.52666e-08
-2.00951e-07
-1.53382e-07
-2.68043e-11
1.32694e-07
-1.32418e-07
-2.48585e-10
-1.3028e-07
-4.58864e-08
1.66883e-07
6.06786e-09
-9.61073e-09
1.16793e-07
-1.04679e-07
-1.20755e-08
1.52701e-07
-1.22381e-07
5.24832e-10
-1.23622e-10
6.78517e-08
-1.6043e-07
8.72551e-08
5.32292e-09
-1.48993e-09
-1.27962e-07
-1.57513e-09
1.33849e-07
6.11733e-09
-1.10303e-07
5.62136e-08
5.22138e-08
1.87537e-09
-1.12295e-07
3.06263e-08
1.52979e-07
-7.65646e-11
1.43007e-07
-7.89598e-10
-1.42141e-07
7.78508e-09
1.26212e-07
-2.68906e-08
-1.07107e-07
1.5175e-07
-1.7295e-07
8.95013e-08
-6.8302e-08
4.78653e-08
1.20729e-07
-5.93074e-08
-6.83434e-09
8.8021e-08
1.05042e-07
-1.82745e-07
-1.36527e-08
-6.93212e-09
1.1524e-07
-1.3914e-07
1.21985e-07
3.59229e-10
-1.2238e-07
3.56955e-11
7.75017e-09
1.05908e-07
-3.96849e-09
8.38766e-08
-2.08362e-07
3.31251e-08
-1.39042e-07
2.04829e-09
-7.83242e-08
-6.67922e-08
1.38179e-07
6.93755e-09
-1.11287e-07
-5.09556e-08
3.42077e-08
1.28035e-07
-1.25214e-07
-6.17627e-10
-6.684e-10
-7.33939e-08
1.5506e-07
-8.77021e-08
6.0364e-09
7.84427e-08
-1.55794e-07
8.12117e-08
-3.86025e-09
-1.17998e-07
-2.39134e-10
1.0758e-07
-1.10579e-07
4.89766e-09
-1.89953e-09
1.58913e-07
-8.9054e-08
8.58379e-09
-1.20574e-07
2.04292e-08
-2.05564e-08
6.23964e-08
-1.03199e-07
-2.33355e-08
1.3172e-07
-1.30827e-07
-2.01458e-10
7.15022e-08
6.41486e-08
-6.3969e-08
-7.16818e-08
8.40471e-08
1.56637e-07
-1.69223e-07
8.29525e-08
7.0554e-08
-1.48131e-07
-5.3754e-09
-1.21407e-07
6.41225e-08
4.98986e-08
7.38644e-09
2.03859e-10
1.32014e-07
4.18534e-10
8.34882e-08
7.78235e-08
-1.55875e-07
-5.43617e-09
1.11619e-07
1.22352e-07
-1.00534e-08
-1.0865e-07
-3.64893e-09
1.00175e-07
7.95013e-11
1.54977e-07
-1.56457e-07
-8.5889e-08
8.73685e-08
5.24069e-08
6.26178e-08
7.32721e-09
-6.25311e-09
-2.55935e-07
1.97332e-08
1.6648e-07
-3.6201e-09
6.31025e-09
1.60532e-07
1.37839e-07
-2.33943e-07
-1.29218e-07
1.05813e-09
-1.63347e-09
1.29794e-07
7.1859e-10
1.04069e-07
-1.04712e-07
-7.52278e-11
-8.34256e-08
1.90161e-07
-1.86743e-07
5.44837e-08
1.29439e-07
-6.80288e-08
-1.15894e-07
4.82344e-08
6.11703e-08
-1.16976e-07
7.57102e-09
1.56507e-07
-1.20371e-08
2.18321e-08
-1.39826e-07
-5.55528e-09
5.29909e-08
-1.54992e-07
-1.92942e-08
-1.00001e-07
-1.16838e-07
1.10199e-07
2.10669e-08
-5.17727e-09
-2.15881e-08
1.01136e-07
3.06512e-08
2.7136e-08
-8.31054e-08
-2.66967e-09
1.3129e-07
3.94491e-09
1.32968e-10
4.06559e-10
-2.16036e-07
-1.5597e-08
-5.26431e-10
9.72345e-08
1.50988e-08
-1.04237e-07
-1.54698e-08
2.87382e-07
-1.26423e-07
-1.45489e-07
-1.77396e-07
1.44905e-07
1.20629e-07
-1.52777e-07
-7.1828e-08
7.7546e-08
-7.94825e-08
7.37645e-08
1.2461e-07
-1.29198e-07
-3.93453e-09
8.52227e-09
-4.191e-09
-6.68663e-08
8.36915e-08
-1.94221e-07
-8.45307e-08
6.82642e-08
-5.58119e-08
-1.24684e-07
2.81644e-07
-4.34409e-08
-1.03125e-07
-1.3864e-08
-8.04897e-08
1.62272e-07
2.26427e-09
-3.4934e-08
-7.49345e-08
9.38379e-08
1.60307e-08
4.19376e-08
-1.88001e-07
8.51709e-08
6.08927e-08
-1.11526e-07
1.1131e-07
-1.8105e-10
3.97276e-10
9.60196e-08
-1.67297e-10
1.46473e-08
1.31376e-07
1.18083e-07
-7.75756e-09
-8.73038e-08
-1.53412e-07
1.86454e-08
7.86458e-10
1.36107e-07
-1.08047e-07
1.59496e-07
-4.92328e-08
-6.01131e-09
3.10023e-09
1.31302e-07
-3.11241e-09
1.10066e-07
4.1062e-08
-1.60146e-07
-3.11434e-08
-1.31313e-07
-1.13883e-07
-8.88722e-08
4.59915e-08
-1.15541e-08
1.13312e-07
-8.87048e-09
-9.88897e-08
-1.13786e-07
-3.36185e-09
9.93421e-08
-1.27862e-07
1.03128e-07
-6.4552e-10
-1.01828e-07
-6.54241e-10
-2.69423e-08
-1.5433e-07
-1.85121e-07
1.84751e-07
1.16906e-07
-4.91919e-08
1.12347e-08
-7.89493e-08
1.18029e-07
-6.00037e-10
-1.17282e-07
-1.4694e-10
9.10749e-10
1.06539e-07
-1.07771e-07
3.21392e-10
3.02206e-08
1.24877e-07
-3.82295e-08
-8.09658e-08
-8.55336e-08
1.07054e-08
8.07969e-09
1.13975e-07
-1.1809e-07
-3.96486e-09
-1.30152e-07
1.40484e-07
-2.25278e-09
-1.3867e-07
-3.81653e-09
-1.5522e-07
1.57271e-07
-5.79413e-08
-8.8886e-08
1.52914e-07
-6.0867e-09
1.11948e-07
-1.49114e-08
7.24462e-10
-1.13666e-10
4.88363e-08
1.22946e-08
-9.4992e-10
-3.03264e-10
7.81005e-08
8.55098e-08
-6.01776e-09
-3.50731e-08
1.03926e-07
8.18444e-08
-2.95381e-07
-1.77119e-07
3.08139e-07
1.62656e-07
1.44177e-07
-6.0316e-08
-9.26566e-08
6.13653e-09
-7.17894e-10
-1.28831e-07
-3.75915e-10
5.63594e-08
6.49753e-08
-1.2028e-07
-1.05422e-09
-1.18744e-07
1.18585e-07
1.59683e-10
-9.02074e-13
1.09008e-07
3.35468e-08
-1.42791e-08
1.45541e-09
2.00995e-07
-4.59843e-09
-5.4918e-08
-8.34475e-08
-3.63711e-09
-8.13073e-08
-2.41102e-08
6.73042e-10
1.11584e-07
-1.11525e-07
8.07479e-08
-1.98571e-07
1.10672e-07
-1.05041e-09
-6.13056e-10
7.2114e-08
6.71951e-08
-1.3546e-07
-3.84965e-09
-1.66708e-07
8.32519e-08
-2.35975e-08
-2.78477e-08
-3.83949e-08
1.3187e-07
-6.56273e-08
-3.04873e-08
7.32087e-08
3.18198e-08
-1.44968e-07
-9.19754e-08
9.72119e-08
1.39731e-07
7.88579e-08
-5.77665e-09
6.69655e-08
1.32932e-07
-5.45948e-08
-1.45302e-07
-3.79039e-09
1.20733e-07
1.52824e-08
-1.32225e-07
1.15086e-07
-9.77108e-08
-2.14442e-08
4.06935e-09
1.46149e-07
-1.97325e-07
1.82351e-07
1.45637e-07
-7.06653e-08
-6.81073e-08
-6.864e-09
4.37544e-08
-1.74534e-07
-1.24937e-07
-1.24541e-07
-4.60659e-12
-1.93372e-07
1.62895e-07
-1.68929e-07
1.99406e-07
8.32448e-08
-1.67356e-07
-2.65628e-08
1.22791e-07
-1.21723e-07
-4.58567e-10
-6.08848e-10
6.18944e-08
-1.23499e-07
-5.26133e-09
-6.99111e-09
7.8082e-08
-1.75872e-07
8.16507e-08
-1.39902e-07
9.87955e-12
2.0768e-10
1.39684e-07
-1.12149e-07
1.42535e-07
-1.67248e-07
-9.09082e-08
-2.74871e-08
-7.26025e-09
6.10434e-08
7.10804e-08
-5.99353e-09
-5.40375e-08
-6.15054e-08
-5.86453e-09
-3.81426e-09
-1.0697e-07
-1.03507e-07
-1.07577e-09
-5.72048e-09
7.12287e-08
-7.09067e-08
7.3267e-10
-1.05462e-09
1.098e-07
-1.07637e-07
-1.36532e-09
-7.97871e-10
-1.23193e-09
1.3066e-07
-1.29475e-07
4.67345e-11
-1.35497e-07
1.46059e-08
1.15235e-07
5.65608e-09
1.30563e-07
-1.23974e-07
-4.58024e-09
-2.00863e-09
-1.10318e-07
-1.20259e-09
1.12185e-07
-6.65054e-10
-1.06633e-07
-6.51226e-08
9.95634e-08
3.49371e-08
-9.79247e-09
-1.24708e-07
7.75233e-08
-8.2396e-08
4.01073e-09
8.61916e-10
4.64242e-08
3.82888e-08
-1.31086e-07
1.12083e-07
-1.09066e-07
-7.43455e-09
4.41754e-09
-5.217e-08
5.26224e-08
1.56443e-07
5.66699e-09
1.32153e-07
-9.87216e-08
1.23602e-08
-2.82493e-08
-1.20575e-08
-1.04661e-07
-3.0571e-08
2.01052e-07
6.0589e-09
-1.75906e-07
1.33711e-07
-3.4408e-08
-1.9956e-08
2.15607e-08
-8.23289e-08
6.18359e-09
-1.28571e-07
1.28392e-07
5.97028e-08
-7.20638e-08
-3.09206e-08
7.90311e-08
2.14871e-09
6.20562e-08
5.67493e-08
-7.64283e-08
-8.51879e-08
1.17503e-07
-1.3052e-08
-7.21637e-08
5.96597e-09
9.67628e-08
1.16222e-08
2.30657e-08
2.54779e-08
-1.08424e-08
5.27147e-08
6.10825e-08
6.93211e-09
-5.05764e-08
1.65539e-07
-1.71704e-07
-1.79614e-07
8.90838e-08
2.2693e-07
-1.52864e-07
1.08892e-07
-3.33054e-08
6.2561e-08
-1.38147e-07
-1.26236e-07
-4.35986e-08
-1.48206e-07
-5.67793e-09
-1.04276e-07
8.19907e-08
-9.03877e-08
1.12673e-07
8.82537e-09
-1.22983e-07
-1.44756e-07
-7.7093e-09
-3.99138e-09
-1.30663e-07
1.18346e-07
1.27403e-07
2.00858e-08
1.05156e-07
2.12216e-09
-1.36084e-07
1.2578e-07
-8.78529e-08
9.81571e-08
-1.03761e-07
1.3679e-08
-2.09799e-08
-3.55141e-08
2.84549e-08
6.45136e-08
-4.65357e-08
-1.14482e-07
-4.47619e-08
1.25277e-08
-7.25602e-08
-8.71082e-08
7.76555e-09
-7.18033e-08
8.24358e-08
8.23196e-08
2.41246e-08
4.34911e-08
-1.49935e-07
3.72461e-08
4.79042e-08
-7.97997e-08
1.20505e-09
-8.18565e-08
-9.22202e-08
7.36886e-09
6.38685e-08
-7.44334e-08
-4.90823e-08
5.96472e-08
-4.99958e-08
-9.13551e-09
1.50806e-07
-1.90279e-07
4.00721e-08
-5.99555e-10
-8.52791e-09
2.80354e-08
8.13082e-08
-1.00816e-07
5.5215e-10
-9.63643e-08
-9.68853e-10
9.6781e-08
-1.0311e-07
1.02507e-07
3.11426e-10
2.91489e-10
1.33485e-07
-7.31107e-08
-1.35209e-07
-6.23086e-08
-3.90654e-08
1.03048e-07
-1.67365e-09
1.57446e-07
1.19136e-08
-1.19462e-07
6.10001e-09
-1.43292e-07
1.68581e-08
-5.21425e-10
-1.20383e-07
-1.16413e-07
1.16745e-07
-3.22779e-10
1.29607e-07
2.96868e-08
-1.46313e-07
-1.14017e-08
-1.47472e-08
2.25111e-07
-8.07465e-10
-5.92713e-08
-7.41605e-10
9.96514e-08
-9.88052e-08
1.64066e-10
-6.9233e-10
1.02154e-08
2.69819e-08
1.25268e-07
-2.84969e-08
1.20163e-07
-9.06467e-09
-3.33269e-09
1.306e-07
-1.25859e-07
-1.40903e-09
-1.05656e-07
1.10351e-07
-5.51578e-09
1.24666e-07
5.61988e-09
-3.24792e-08
-9.78068e-08
1.21512e-07
1.78503e-09
-1.21261e-07
-2.036e-09
-7.24211e-08
-5.508e-08
7.25831e-08
9.12179e-08
1.51455e-09
1.60156e-07
1.98279e-08
-3.68145e-08
-1.49254e-08
3.67977e-09
-7.96747e-08
1.24966e-07