/*--------------------------------*- C++ -*----------------------------------*\
| =========                 |                                                 |
| \\      /  F ield         | OpenFOAM: The Open Source CFD Toolbox           |
|  \\    /   O peration     | Version:  2212                                  |
|   \\  /    A nd           | Website:  www.openfoam.com                      |
|    \\/     M anipulation  |                                                 |
\*---------------------------------------------------------------------------*/
FoamFile
{
    version     2.0;
    format      ascii;
    arch        "LSB;label=32;scalar=64";
    class       volVectorField;
    location    "0.05";
    object      U;
}
// * * * * * * * * * * * * * * * * * * * * * * * * * * * * * * * * * * * * * //

dimensions      [0 1 -1 0 0 0 0];

internalField   nonuniform List<vector> 
31639
(
(0.123675 0.000597889 -0.000607987)
(0.120327 -0.000456199 -2.49435e-06)
(0.122362 -0.00026986 0.000874891)
(0.125965 3.4517e-05 -0.000261824)
(0.122341 -0.000778022 -0.000314152)
(0.121059 -0.000124134 -4.09303e-05)
(0.120497 -2.49988e-05 -0.00024165)
(0.12326 -9.78666e-05 4.80793e-06)
(0.123054 0.00023467 -0.000251451)
(0.123979 -0.000474231 -0.000484256)
(0.124759 0.000462963 -5.12738e-05)
(0.123781 -0.000580186 -0.00080283)
(0.121084 -0.000479844 2.82676e-05)
(0.123888 -1.80622e-05 0.000189241)
(0.119523 -0.000360622 0.000104684)
(0.120909 -0.000433677 0.000808918)
(0.122627 0.000420383 0.000154438)
(0.119876 5.5845e-05 0.000409266)
(0.121108 -2.60247e-05 -0.000388142)
(0.121921 -9.59675e-05 -0.000188891)
(0.115267 -0.000253057 -0.000418405)
(0.124881 -0.000338776 -0.000609556)
(0.124393 0.000710273 -0.000205212)
(0.120834 0.000184797 -0.000313164)
(0.119348 -0.000191887 -0.00014545)
(0.122666 -0.000269102 9.39349e-05)
(0.121678 -6.93866e-06 -0.000185137)
(0.123517 0.00134038 -0.000108931)
(0.120304 0.000406802 0.000689456)
(0.124367 -0.000151537 0.000621009)
(0.124689 -0.000167992 -7.80123e-05)
(0.119874 -3.54561e-05 -0.000211418)
(0.124582 0.000360091 -0.000488231)
(0.120737 -0.000180015 -6.21508e-05)
(0.117015 0.000142112 0.000277038)
(0.124786 0.000427348 0.000165345)
(0.114093 -0.000394886 -0.000105949)
(0.125613 -0.000568726 0.000299297)
(0.124304 -0.000396572 0.000263212)
(0.114018 3.85797e-05 -0.000141089)
(0.117974 -6.96663e-05 -0.000333427)
(0.116568 -0.000508621 4.38737e-05)
(0.12352 7.32283e-05 -2.30871e-05)
(0.125298 -0.000791852 -0.00088452)
(0.123972 -0.000705079 0.000750844)
(0.125169 -0.000869145 -0.000401704)
(0.118334 0.000327081 -0.000289667)
(0.122016 0.000509973 -0.000342503)
(0.122075 -6.97906e-05 0.000221378)
(0.12551 -0.000447534 -0.000228688)
(0.124799 -0.000254415 -0.000548734)
(0.115779 0.000106454 -0.000264462)
(0.124209 0.000659365 0.00024023)
(0.11497 -0.000312472 0.000461508)
(0.122417 -0.000438177 -0.000185248)
(0.122124 0.00018374 5.30076e-05)
(0.116263 -9.34436e-05 -0.000648662)
(0.121784 6.42972e-05 0.000328344)
(0.121195 0.000140588 0.000395909)
(0.116913 0.000285428 -0.000208135)
(0.123564 -0.000224198 -0.000505729)
(0.124153 0.000353797 -0.00020319)
(0.119856 -0.000276769 -0.000319265)
(0.121246 -6.49097e-05 -0.000230435)
(0.122972 0.000426194 0.000314817)
(0.125505 -0.000310102 -0.000519659)
(0.123015 3.87572e-05 -0.00102229)
(0.121524 -0.00031283 0.000132335)
(0.118129 3.03555e-05 -0.000424944)
(0.125492 0.000320556 -0.000196982)
(0.123365 0.000138943 8.91601e-05)
(0.118196 0.000372941 -0.00124993)
(0.123685 -0.000415112 -0.000842141)
(0.121998 -0.000240862 -0.000200969)
(0.123218 0.000658726 6.23208e-05)
(0.115237 0.000370869 -0.000597872)
(0.124757 -0.000649809 0.000292504)
(0.121348 0.000204266 -0.000654721)
(0.120437 -0.000254433 0.000404504)
(0.123589 0.000245079 1.08526e-05)
(0.119897 -3.31291e-05 7.85886e-05)
(0.112529 -0.000325837 2.30732e-05)
(0.124926 -0.000422546 0.000154574)
(0.122111 -0.000227058 -0.000294342)
(0.122376 -0.000107697 -0.000117478)
(0.124746 -0.000488349 -0.000314321)
(0.125598 -8.72445e-05 0.000133605)
(0.124931 -0.000202539 -0.000493511)
(0.11623 0.000884902 -0.00148677)
(0.124047 -0.000221548 -0.000501079)
(0.122363 -0.00039191 0.00024439)
(0.121109 -0.000513344 -0.00015238)
(0.117181 -0.000516131 -0.000477034)
(0.119383 0.000646668 -0.000828307)
(0.119976 -0.000849164 -0.000429459)
(0.120547 0.000896355 0.000457872)
(0.122421 0.000186532 -0.000516846)
(0.121827 -0.000223397 0.000131027)
(0.121203 0.000172948 0.000346574)
(0.116208 -0.0011728 -0.000148093)
(0.123188 0.000300054 -1.93909e-06)
(0.122808 0.000292278 0.00094303)
(0.119841 -0.00033469 -0.000144856)
(0.115529 8.0015e-05 -0.000176891)
(0.116751 -6.10333e-05 -0.000380563)
(0.125207 -0.000647265 -0.00031388)
(0.114978 0.000350779 -0.000475957)
(0.116069 -0.000962125 -0.000897746)
(0.118676 0.000389775 -5.21021e-05)
(0.114329 -0.000436103 0.000677812)
(0.123059 -0.0013943 0.000377646)
(0.11728 -0.000100952 -0.00026673)
(0.121157 0.000127055 -0.000164318)
(0.121022 -0.000727494 -0.000664149)
(0.12143 0.000127624 -0.000923263)
(0.115123 -0.000538881 0.000274604)
(0.121037 0.000676079 9.37893e-05)
(0.120495 -0.000801843 -0.000191945)
(0.122981 0.000120773 0.000158311)
(0.121019 -0.000376444 4.82464e-05)
(0.122986 -0.000355225 -0.000193558)
(0.123544 -0.000471575 0.000309928)
(0.124409 -2.3329e-05 -0.000612286)
(0.123544 0.000360502 -0.00072652)
(0.123375 -0.000271284 -0.000860061)
(0.124209 -0.000429815 0.000145731)
(0.12096 -2.89169e-05 0.000420556)
(0.119885 0.000167142 -0.000277692)
(0.119621 -0.000643965 -0.000372139)
(0.123996 -0.000253241 0.000211012)
(0.123512 0.000214178 -0.000186799)
(0.124236 0.000103809 -0.000538327)
(0.123289 -0.000643774 -1.30672e-05)
(0.122201 -0.000184073 0.000104792)
(0.12459 -0.000138656 -0.000120149)
(0.121839 -0.000108095 5.16509e-05)
(0.117085 -0.000158897 -0.000295568)
(0.116075 -0.000740932 -0.000478854)
(0.124511 0.000383612 0.000607949)
(0.121307 -0.000480739 -0.000506925)
(0.120974 -0.000250097 -0.000416929)
(0.125185 0.000277251 0.00114075)
(0.124132 0.000431703 0.000310108)
(0.115505 -0.000363769 -0.000492033)
(0.11589 -0.000116117 -0.000695249)
(0.123906 -0.00025907 2.62392e-05)
(0.123585 -6.52233e-05 -0.000190502)
(0.116613 -0.00027397 -0.000443968)
(0.117186 -0.00010291 0.000191191)
(0.124397 -0.00048789 0.000148572)
(0.119317 -0.000131879 -0.00123269)
(0.120947 -7.93974e-05 0.000177973)
(0.121759 -0.000501899 -0.000891281)
(0.124185 -0.000122859 8.48886e-05)
(0.117588 0.00062158 -0.00129032)
(0.125973 -7.9919e-07 -2.92782e-06)
(0.123382 -0.000373175 -0.000258871)
(0.11796 -0.00126138 -0.000204164)
(0.116394 -0.000753615 0.00102137)
(0.120676 -0.000394984 -0.000136991)
(0.125187 -0.000183488 -0.000468223)
(0.115219 0.000258699 8.38289e-05)
(0.117104 0.000230332 -0.00109585)
(0.1163 -0.000447883 0.000165229)
(0.115363 -0.00114621 4.81991e-05)
(0.119853 0.000406183 -0.000341071)
(0.116426 0.000345302 0.00017966)
(0.124821 -0.000684217 0.000211097)
(0.124686 -0.000487098 0.000247013)
(0.116486 0.000247082 -0.000835237)
(0.117312 -0.000864285 0.000360567)
(0.120579 0.000719451 -0.000565173)
(0.116846 -5.02538e-05 -2.93204e-05)
(0.121945 -9.7457e-05 0.000517647)
(0.125384 -0.000292049 -0.000224161)
(0.123371 -0.000679755 -0.0004847)
(0.121561 0.000627906 0.000254249)
(0.123995 0.00031556 0.00037764)
(0.122152 -0.00051555 -7.21606e-05)
(0.12031 -0.000472819 -9.30267e-05)
(0.120554 0.000147603 -5.66053e-05)
(0.120881 -0.000588028 0.000753386)
(0.119708 -1.4885e-05 0.000218425)
(0.114358 0.00104286 -0.000631099)
(0.122724 -0.000194267 9.76792e-05)
(0.125053 8.98486e-05 -0.000234592)
(0.120507 0.000204218 0.000726489)
(0.124482 0.000203352 -0.000137923)
(0.117217 -0.000258343 9.54886e-05)
(0.114848 -0.000158027 0.000425314)
(0.125516 -0.000246531 -5.62187e-05)
(0.124189 -0.000231232 -0.000315943)
(0.121919 -0.000331587 0.000501188)
(0.120856 -0.000118283 0.000281601)
(0.121376 -0.000212665 -0.000439365)
(0.122055 -0.000228217 -0.000743857)
(0.121743 0.000660264 0.00042515)
(0.123799 0.000459418 -0.000487459)
(0.116947 -0.000185045 -0.000335425)
(0.120567 0.000112072 -0.000227134)
(0.12514 -4.27643e-05 0.000271501)
(0.123808 -0.000265057 0.000173334)
(0.123086 -0.000216509 0.000240401)
(0.121284 -0.00159702 -0.000788582)
(0.122125 -0.000610074 -0.00046237)
(0.119867 7.41715e-05 -0.000383073)
(0.121261 -0.000284978 -0.000475487)
(0.119671 0.000599459 -0.000656416)
(0.124204 7.65464e-05 -0.000628095)
(0.115238 -0.000146341 -3.75103e-06)
(0.121374 -8.76686e-05 -0.000166278)
(0.12107 0.000420168 1.17568e-05)
(0.122447 0.000105438 -0.000406417)
(0.124623 -0.00013902 -0.000525951)
(0.123997 -0.000582068 -0.000409539)
(0.124873 -0.000185646 -0.000302452)
(0.116962 -0.00110458 -0.000371405)
(0.119664 -0.000717505 0.000487085)
(0.123938 -0.000390481 -0.000258705)
(0.12472 -0.000206544 0.000314057)
(0.123528 3.7288e-05 0.000340902)
(0.121902 -0.000453326 -0.000542444)
(0.113533 -0.00034417 0.000619109)
(0.121117 -0.00048945 0.000498833)
(0.116519 -0.00072851 -0.000304301)
(0.119593 0.000394246 0.000109791)
(0.124046 -0.000482672 0.000520378)
(0.119879 7.60759e-05 0.000509139)
(0.115662 0.000438742 -0.000273698)
(0.122098 0.000175744 0.000205355)
(0.123537 0.000552015 -0.000264809)
(0.125169 -0.000539071 -2.82586e-05)
(0.116126 -0.000353721 -4.07813e-06)
(0.1153 -0.000801289 0.000316759)
(0.122677 -0.000304441 0.000401589)
(0.124445 -4.56094e-05 -0.000627594)
(0.11649 -1.95497e-05 0.000489737)
(0.124425 -0.000675843 0.000297463)
(0.119383 -1.94728e-05 -0.000495161)
(0.117144 -0.000498275 0.000187184)
(0.120623 0.000264746 -0.000416095)
(0.123049 -0.000356337 8.32972e-05)
(0.119805 -0.00104071 -0.000145365)
(0.118953 0.000215892 0.00097652)
(0.120214 0.000396475 0.000431024)
(0.12201 -0.000143385 -0.000172718)
(0.120073 0.000457717 -0.000552426)
(0.11913 0.000708299 -0.00109444)
(0.115314 -0.00046556 0.000565101)
(0.120167 0.000260699 -0.000701701)
(0.120629 0.000102327 -0.000718798)
(0.118292 -7.66749e-05 -1.37164e-05)
(0.12009 -0.00115192 0.000429632)
(0.124491 0.000212066 -0.00017091)
(0.124705 0.000587282 0.000196492)
(0.122074 0.000428701 -6.79052e-05)
(0.117101 0.000189093 1.30527e-05)
(0.124126 0.000301306 -0.000181825)
(0.123774 0.000335542 -0.000525839)
(0.121939 -0.000439138 -0.000295577)
(0.125573 0.000119773 0.000851502)
(0.125071 0.000115052 -0.000419912)
(0.123143 0.000203067 -0.000436582)
(0.124875 -0.000102969 6.3293e-05)
(0.119807 0.00044959 0.000245611)
(0.121794 -0.000311645 -0.000672523)
(0.115535 0.000282023 -0.00165558)
(0.11994 -1.52891e-06 -9.44857e-05)
(0.124062 -0.0010843 0.000364984)
(0.119712 2.11644e-05 0.000392429)
(0.124271 0.000389746 -0.000171408)
(0.121158 0.000482265 -0.000703797)
(0.122477 -0.000228614 0.000135403)
(0.123306 0.00029786 0.000410519)
(0.125199 -7.76904e-05 -0.000720514)
(0.121997 0.000669601 0.000133673)
(0.116382 0.000300593 6.30095e-06)
(0.120984 0.00023591 0.000230369)
(0.117857 0.00167878 -0.000350199)
(0.124591 -0.000367794 -0.000989742)
(0.121145 -0.000617379 -0.000455778)
(0.124304 0.000152482 -0.000480766)
(0.122392 0.000252135 -6.60593e-05)
(0.120238 -0.000181002 -0.000464564)
(0.115321 -8.66044e-05 -1.10811e-05)
(0.117793 4.9754e-05 -0.000576202)
(0.116843 0.000354769 0.000312718)
(0.115179 -0.00035862 0.000115816)
(0.124922 -0.000347933 -0.000457972)
(0.115723 -0.000497507 -0.000632192)
(0.122563 -0.000428153 0.000309713)
(0.121826 0.000534025 -0.000297907)
(0.121122 6.22959e-05 -0.000228567)
(0.117258 -0.00024004 -0.000307519)
(0.124734 -0.000827228 -1.62777e-05)
(0.121323 0.000111325 -0.000784156)
(0.119115 0.000144274 0.000698154)
(0.124482 0.000123053 -0.000448507)
(0.122935 -0.000138711 -7.65047e-05)
(0.117809 0.000522889 0.000516812)
(0.119824 0.000167812 -5.39411e-05)
(0.116881 0.000195484 -4.94813e-05)
(0.121656 0.000285415 -0.00038299)
(0.120218 0.00036218 -0.000190157)
(0.117036 0.00042778 0.000933581)
(0.121717 -5.94524e-05 -0.000228914)
(0.120037 0.00112636 0.000638356)
(0.114428 7.84562e-05 -0.00127778)
(0.114369 0.000329667 0.000242507)
(0.123302 -0.000478906 0.000190688)
(0.124557 0.000135359 -8.07957e-05)
(0.125279 0.000306733 -0.000147239)
(0.115863 0.000358498 0.000277833)
(0.117489 -8.77119e-05 0.000574506)
(0.123729 0.000201069 0.000387745)
(0.11878 -0.000243057 -0.000271565)
(0.118901 0.00062384 -0.000871923)
(0.123676 0.000354173 0.000219102)
(0.124413 -0.000620871 -9.18803e-05)
(0.121029 -0.00084739 0.000208229)
(0.124334 -0.00107566 -0.000249893)
(0.125368 0.000119495 -0.000240649)
(0.116671 -0.000192633 -0.000256922)
(0.125126 -0.00124747 -0.000214165)
(0.11429 0.00021703 -0.000235025)
(0.11556 -4.39714e-05 -3.43726e-05)
(0.124793 -0.000453499 -0.000284522)
(0.12402 -0.00049332 -0.000163796)
(0.124948 5.49359e-05 -0.000779188)
(0.125305 0.000405156 -0.00109158)
(0.124145 -0.00022008 -0.000850552)
(0.117834 0.00130098 -0.000606139)
(0.119549 -0.00109967 0.000769935)
(0.120408 -0.000137734 -0.000310327)
(0.123097 -0.000993484 0.000162533)
(0.124917 0.000989409 0.000956793)
(0.125438 -0.000860094 0.000343545)
(0.12103 0.000191869 -0.000274645)
(0.11882 -0.00109521 0.000469087)
(0.120938 -7.1545e-07 -0.000115857)
(0.124156 -0.000124265 -0.000157029)
(0.123857 -0.000133394 -0.00102181)
(0.120012 9.75788e-05 -0.000234017)
(0.122705 -0.000220676 -3.43241e-05)
(0.120484 0.000635413 -0.000665107)
(0.120793 -0.000431804 -0.000406185)
(0.123109 -0.00042989 0.000404719)
(0.119131 -0.0011543 0.00103537)
(0.116714 -0.000156146 -3.61631e-05)
(0.121931 0.000876453 -0.000490489)
(0.123023 0.000106291 0.000570967)
(0.120407 0.00030326 -0.000184001)
(0.123272 0.000391455 0.000411042)
(0.12423 -0.000475985 0.000309804)
(0.121508 0.000133736 -0.000442551)
(0.117496 0.000133684 -0.000545648)
(0.120756 0.000477533 -0.000427694)
(0.119899 0.000480589 0.000518103)
(0.115609 0.00023095 -0.00048583)
(0.123971 -0.000833779 0.000281988)
(0.115385 0.000592135 0.000470862)
(0.123301 -0.000125597 -0.000483053)
(0.125014 -0.000795135 -0.000317361)
(0.116358 -0.000366561 0.000202494)
(0.12152 0.000361074 4.86412e-05)
(0.120082 0.0004371 0.000409423)
(0.116118 -0.000305931 2.14329e-05)
(0.122887 -0.000181464 -0.000243639)
(0.11756 5.14649e-05 -9.01457e-05)
(0.121298 2.87896e-06 0.000728418)
(0.124606 0.000345495 7.91828e-05)
(0.12308 0.000157776 0.000160342)
(0.115321 0.000342558 3.71277e-05)
(0.123391 0.000335037 4.00867e-05)
(0.117422 0.000134602 -0.000398705)
(0.123352 -5.87565e-05 -2.28258e-06)
(0.123371 0.000258388 0.000182621)
(0.12386 -0.00015811 -0.000597417)
(0.124564 -0.000163934 -0.000541821)
(0.116307 -1.10687e-05 -0.000712989)
(0.123232 -0.000829141 8.51325e-05)
(0.115608 6.88881e-05 -0.000564875)
(0.120238 4.81859e-05 -0.00047888)
(0.116525 6.55393e-05 -0.000447662)
(0.125649 -2.26747e-05 -0.000575616)
(0.124349 6.7705e-05 -0.000556679)
(0.125279 1.57336e-06 3.68028e-06)
(0.12475 -0.000376927 -0.000564613)
(0.122411 -5.27958e-05 -0.000692686)
(0.123714 -6.27451e-05 0.000199763)
(0.120444 0.000281361 -9.4015e-05)
(0.122284 0.000270753 -0.000313627)
(0.12122 0.000109216 -0.000393058)
(0.117493 0.000140966 0.000100246)
(0.123745 1.53195e-05 -0.000462927)
(0.121853 -0.000379805 -8.45412e-05)
(0.121996 -0.000177444 -0.000305103)
(0.124112 0.00015163 0.00015401)
(0.123813 -6.62563e-05 -0.000499448)
(0.12429 3.03887e-05 0.000241617)
(0.121101 -0.00071874 0.000168802)
(0.115752 -0.000163706 0.000731645)
(0.120791 0.000218852 0.000149739)
(0.123299 0.000139767 0.000442386)
(0.122458 -0.00023503 9.07245e-05)
(0.116443 -0.000632009 -0.000462532)
(0.124423 0.000111535 -0.000356429)
(0.124184 -0.00018927 -0.000865078)
(0.119195 0.000334699 -0.000407182)
(0.122987 -0.000297407 -0.000521907)
(0.12353 -0.000366903 -0.0011696)
(0.123429 -0.000391369 -0.000652378)
(0.123452 -0.000390484 -0.000116343)
(0.115998 -0.000114584 -8.20716e-05)
(0.12277 -0.000456973 9.06455e-05)
(0.123218 -0.000544479 0.000261892)
(0.114243 0.000135152 4.26307e-05)
(0.122503 -0.000930502 -1.32271e-05)
(0.12271 -0.000320511 -0.000169079)
(0.119008 0.000112935 0.000328961)
(0.1152 -5.5426e-05 0.000177267)
(0.114977 -0.000377019 0.000660693)
(0.120578 -0.000962714 0.000230495)
(0.114653 0.000601723 -0.000542111)
(0.120861 4.54594e-05 0.000189788)
(0.1219 -4.74794e-05 -5.63926e-05)
(0.119525 0.000574503 0.00027829)
(0.123386 0.000466289 0.000171616)
(0.115969 -0.000263218 0.000159978)
(0.12279 0.0003713 6.58647e-05)
(0.125511 0.000254895 2.47236e-05)
(0.120692 -0.000141175 9.29165e-05)
(0.123219 -0.000134117 0.000637193)
(0.120849 0.000108648 3.87285e-05)
(0.124635 0.000973226 -3.09145e-05)
(0.12218 0.000423401 5.13607e-05)
(0.122603 -0.000244686 -0.000649437)
(0.12561 8.47629e-05 -0.000448617)
(0.121396 7.54802e-05 -0.00043161)
(0.116295 0.000170983 0.000183773)
(0.120883 1.09056e-05 -0.000171237)
(0.125126 0.000239211 -0.00117576)
(0.124148 0.00027911 -0.000758793)
(0.123479 -0.000193672 0.000675439)
(0.124517 5.82988e-05 4.32216e-05)
(0.121063 -0.000712285 0.000604808)
(0.123827 -0.000225543 0.000220821)
(0.122541 0.00015793 0.000230365)
(0.123736 0.000237196 -0.000178425)
(0.124201 -0.000413291 -0.000479989)
(0.11503 -0.000492692 -0.000317342)
(0.120576 -0.000327518 0.000234269)
(0.113794 -0.000204966 0.000224472)
(0.120883 0.000535603 0.000746638)
(0.119647 -0.000128414 -0.000691169)
(0.116207 -0.000337913 0.000712222)
(0.115286 -0.000515587 -0.000332205)
(0.121774 0.000365383 -0.000258913)
(0.122755 -0.000418845 -0.000226526)
(0.124385 -8.56679e-06 -0.000622777)
(0.116702 -0.000197458 0.000655873)
(0.123321 -9.43003e-05 3.06848e-05)
(0.121323 -5.28016e-05 0.000270509)
(0.121073 -0.000196967 -0.00046416)
(0.122731 1.38624e-05 -0.000631069)
(0.114847 -0.00035621 0.00192012)
(0.121064 -9.0444e-05 -0.000505069)
(0.115823 0.000121141 0.000348582)
(0.119378 -0.000474683 -0.0004329)
(0.123552 -0.000176454 7.07536e-06)
(0.125898 0.0013385 0.00036374)
(0.123867 0.000223824 -0.00105649)
(0.122352 0.000547919 -0.000705283)
(0.114618 0.000220003 0.00133538)
(0.123243 -0.000164195 0.000139228)
(0.12241 -0.00013351 -0.000496239)
(0.123768 -0.000210799 -0.000380128)
(0.115324 -2.86208e-05 -8.28687e-07)
(0.117743 -0.000165225 0.00058031)
(0.120032 0.000473029 0.000601445)
(0.11767 0.000412314 -0.000252228)
(0.114414 -0.000652011 -0.000172172)
(0.12376 -7.32163e-05 -0.000381351)
(0.117298 -0.000106283 8.4723e-05)
(0.119951 0.000845091 0.000162415)
(0.116092 -0.000395785 -0.000985352)
(0.123286 0.000351101 7.18398e-05)
(0.116718 0.000116369 -0.000310028)
(0.124668 -0.000178157 0.00060486)
(0.123283 0.000135612 -0.000452914)
(0.124781 -7.62433e-05 0.000529219)
(0.124904 -0.000123766 -0.000471387)
(0.117068 4.56835e-05 0.000229324)
(0.123958 7.82895e-05 0.000230951)
(0.125137 -0.000241326 -8.05632e-05)
(0.122328 -0.000450891 0.000414981)
(0.123244 0.000567482 -0.000206515)
(0.122375 -0.000464972 -0.00025428)
(0.124533 0.000423232 -0.000128143)
(0.123632 4.15159e-05 0.000354369)
(0.119524 5.57801e-05 -0.000422772)
(0.125948 -0.000208037 -6.57684e-05)
(0.125343 -0.000334762 -0.000289777)
(0.12163 -0.000259942 -0.000271486)
(0.120938 -0.000288342 -0.000798185)
(0.124553 -0.000395671 -0.000240864)
(0.121953 0.000360764 4.13726e-05)
(0.114474 0.000683068 -0.000221821)
(0.114695 0.00043642 -6.22894e-05)
(0.121148 2.30061e-05 8.09992e-05)
(0.123912 -1.66612e-05 0.000204272)
(0.125289 -0.000203408 -0.000228554)
(0.119331 -0.000215441 -0.000108746)
(0.124244 0.000542422 0.000246997)
(0.123081 -2.3151e-05 0.000159734)
(0.124468 0.000965759 0.000807995)
(0.121626 1.56639e-06 -0.000138241)
(0.121768 0.000522734 -0.000464143)
(0.122717 -0.00160752 0.000565521)
(0.115939 4.43397e-07 -0.000267494)
(0.120785 0.000176959 3.18981e-05)
(0.122818 1.9019e-05 -0.000320776)
(0.124705 9.79606e-06 1.42044e-05)
(0.117397 -0.000176115 8.14181e-05)
(0.118246 0.000663039 -0.000767607)
(0.119203 -9.7506e-05 -0.00033109)
(0.118903 -0.000343738 -8.04753e-05)
(0.120953 -0.000186389 -0.000545841)
(0.115651 -0.000112596 -0.000378469)
(0.123992 0.000172243 -0.000897325)
(0.12017 1.85247e-05 -0.000269137)
(0.123272 0.000118993 0.00107021)
(0.120919 -0.000275212 -8.81161e-05)
(0.125214 -0.000249161 -0.000253391)
(0.121908 -0.000270714 -0.000913675)
(0.11594 0.000191146 0.000579178)
(0.122532 0.000812866 4.92128e-05)
(0.125448 -0.000288488 -0.00100433)
(0.116721 0.000393675 0.00116098)
(0.12432 -0.000165643 -0.000748937)
(0.126217 -0.000934956 -0.000650341)
(0.121797 -0.000221478 -6.44549e-05)
(0.12022 0.000235979 0.000155746)
(0.123869 0.000227567 -0.00110548)
(0.119327 -3.01678e-05 -3.0168e-06)
(0.121341 -0.000455003 6.9523e-05)
(0.12109 0.000157655 0.000288662)
(0.116682 -9.48017e-05 7.09937e-06)
(0.117109 -0.00016415 -0.00118107)
(0.12033 0.000202369 0.000480355)
(0.119459 0.00062972 0.000154265)
(0.123873 -0.000143394 -0.00030496)
(0.119167 -0.000420542 0.000297629)
(0.120738 0.000466128 0.000425645)
(0.124887 0.000216081 0.000378444)
(0.120229 0.000210022 -7.61724e-06)
(0.115073 0.000204325 0.000364429)
(0.119473 0.00033123 0.00021163)
(0.121385 0.000450565 -0.000310356)
(0.125267 -0.000188159 0.000273077)
(0.115767 0.000729733 0.000392305)
(0.115523 -0.000125864 0.000297883)
(0.125053 0.000325758 0.00092536)
(0.115901 0.000268949 -7.99915e-06)
(0.122377 -4.01434e-05 -0.000105727)
(0.123936 0.000193258 -0.000258922)
(0.117361 -0.000155308 -0.000858032)
(0.121437 8.24723e-05 -0.000383477)
(0.124686 0.00052336 -0.000744557)
(0.121381 -4.54052e-05 0.00062359)
(0.114183 6.50457e-05 0.000216805)
(0.124219 0.000257568 -0.000159297)
(0.121473 -6.5879e-05 -0.000273892)
(0.114719 0.000541063 5.01561e-05)
(0.124631 0.000262847 -0.000227777)
(0.119686 -0.000152863 -0.000297736)
(0.120407 0.000567685 -0.000392751)
(0.123113 -5.04424e-05 -0.00012479)
(0.114997 0.000829025 -0.000457447)
(0.120321 -9.5951e-05 -0.00104886)
(0.119706 -0.000686248 -9.69548e-06)
(0.121573 -2.75694e-05 -0.000496763)
(0.117369 -0.000122063 0.000441701)
(0.119094 -6.79061e-05 -9.45062e-05)
(0.12335 0.000509623 0.000507501)
(0.125573 -0.000895195 -0.000644963)
(0.126667 -0.00033311 -4.56481e-05)
(0.125244 0.000524737 -0.000396721)
(0.124553 -0.000601038 -0.000211383)
(0.123597 8.65676e-05 -0.00129998)
(0.118771 -0.000251805 0.000449593)
(0.125873 0.000160468 -0.00108986)
(0.123711 -6.62468e-05 -5.23791e-06)
(0.122736 0.000540813 0.000123399)
(0.117526 0.000826969 -0.000379139)
(0.121894 -0.000152668 -0.000216741)
(0.123003 0.000481216 0.000603838)
(0.126455 0.000919743 2.97102e-05)
(0.115729 -8.81624e-05 0.000320165)
(0.114489 -0.000442236 0.000411419)
(0.124584 0.000197878 -0.000634447)
(0.11945 -9.81965e-06 -0.000343816)
(0.124665 8.67741e-05 -4.49241e-05)
(0.120091 0.000140053 -0.000496403)
(0.117346 -0.000325422 -0.000833184)
(0.122743 -9.91772e-05 -0.000894817)
(0.124388 0.00037736 -4.80406e-05)
(0.122283 0.000273758 0.000138706)
(0.123901 0.000983578 -0.000332398)
(0.116435 1.09296e-05 -0.00175356)
(0.123999 0.00100299 0.000299801)
(0.123712 -0.000312581 -0.000504174)
(0.115057 0.000375999 -6.59321e-05)
(0.123398 -0.000221594 -0.00054767)
(0.123204 -0.00022511 1.35609e-05)
(0.121308 -0.000132573 0.00147829)
(0.11672 -0.000598549 -0.000929585)
(0.115348 0.000298836 -0.000818989)
(0.120959 0.000307268 -0.0002904)
(0.120876 -6.0592e-06 0.000962237)
(0.121568 -0.00017377 0.000190088)
(0.120805 0.000563859 0.000150369)
(0.120233 0.000502239 0.000748702)
(0.124164 0.000105383 8.18129e-05)
(0.121768 -7.19141e-05 0.000252957)
(0.122019 0.000434756 0.000288069)
(0.117556 -0.000276472 0.000702291)
(0.125172 -7.12429e-05 -0.00101032)
(0.116026 -0.00022228 3.41818e-05)
(0.121301 0.000689623 -1.7003e-05)
(0.12082 0.000313358 -0.000107174)
(0.121171 -0.000788634 -0.000734674)
(0.122795 0.000495483 2.61945e-05)
(0.119403 -9.73337e-05 -0.000460364)
(0.116434 -0.000870063 -0.000534273)
(0.11521 -0.000207404 -0.000567152)
(0.116709 -0.000321481 -0.000291714)
(0.120932 -0.000524594 -0.000371796)
(0.123295 0.000690153 0.000225426)
(0.115909 0.000477633 0.00187726)
(0.123913 -0.000161381 -5.13224e-05)
(0.121432 -1.94943e-05 -0.000802235)
(0.124767 -0.000405872 -0.000397891)
(0.115716 4.19195e-05 -0.00075941)
(0.119255 0.00038323 0.000554803)
(0.123502 0.000257085 -0.000888698)
(0.125031 -0.000926666 -5.18596e-05)
(0.1234 0.000387158 -0.000404531)
(0.124487 -0.000230605 -0.000282116)
(0.121844 0.000149986 0.00017252)
(0.121088 0.000480505 0.000178347)
(0.125305 -2.11469e-06 0.000250318)
(0.125002 0.000428172 -2.13637e-05)
(0.124801 0.000276936 9.22707e-05)
(0.117883 0.000993692 -0.000478964)
(0.124905 -0.000869439 -0.000745888)
(0.115221 -0.000302152 0.000450352)
(0.125029 0.000710421 7.83452e-05)
(0.122215 9.2728e-05 -0.000185048)
(0.120953 0.000183319 -0.00058775)
(0.116634 0.000915029 -1.31067e-05)
(0.121081 0.00115502 -0.000798802)
(0.113915 -0.000750122 -0.000795225)
(0.123999 0.000316708 -0.000625288)
(0.121532 0.000165486 -0.000271827)
(0.124184 -0.000182598 -0.000262713)
(0.120422 0.000393835 -0.000255564)
(0.11996 0.0012153 -0.000356425)
(0.115906 -0.000316599 0.000753516)
(0.125622 0.000274119 -9.67278e-05)
(0.117309 -0.000572704 0.000302013)
(0.114322 -0.000294887 -0.000328869)
(0.117112 -0.000203862 1.72173e-05)
(0.117446 0.000413565 0.000189227)
(0.116575 0.000743025 -0.000113473)
(0.121223 -0.000335651 0.000101657)
(0.116162 0.000122694 -0.000101823)
(0.122991 -0.00118878 0.00053294)
(0.123608 2.24717e-05 -0.000452266)
(0.11425 -9.06774e-05 -5.98677e-05)
(0.123101 0.000284153 -0.000172051)
(0.116362 0.000317807 -0.000763519)
(0.120716 0.000647203 -0.00019868)
(0.121509 0.000320594 -0.000186667)
(0.121222 -0.000305621 -0.000982596)
(0.123737 0.000133312 -8.01412e-05)
(0.125679 0.000289754 -0.000887218)
(0.123837 -6.36002e-05 0.00032028)
(0.122938 4.73035e-05 -7.76191e-05)
(0.122636 -0.000220713 -0.00116926)
(0.123338 0.000343852 0.000166783)
(0.12041 0.000371056 -1.43559e-05)
(0.120931 0.000433699 0.00019574)
(0.11491 0.000557626 -0.000884766)
(0.110983 0.00059753 0.00358222)
(0.124358 6.84427e-05 4.53713e-05)
(0.121187 7.87026e-05 -0.000228498)
(0.123687 -0.000301783 -0.000125897)
(0.123474 -7.54289e-05 0.00025054)
(0.115398 -0.000568607 -5.5826e-05)
(0.124348 -0.000133786 -0.000290699)
(0.12468 0.000596612 0.00010237)
(0.124367 5.13447e-05 0.000148178)
(0.124305 0.000332092 0.000516987)
(0.122665 0.000365239 0.000444595)
(0.122164 -0.000553334 -0.00019251)
(0.124259 -7.69172e-05 0.000128064)
(0.125199 -0.000161104 0.000578687)
(0.122363 0.000323524 0.000329985)
(0.12477 0.000304974 -0.000246666)
(0.124207 -0.0003811 -0.000441464)
(0.117946 -0.000336996 -0.00048317)
(0.124314 -0.000134312 0.00027191)
(0.118538 -0.000194889 0.000538044)
(0.121588 8.60907e-05 -0.000184621)
(0.121509 -0.000903379 9.6166e-05)
(0.120922 -0.000503039 0.000250534)
(0.120557 0.000699205 0.000109963)
(0.123428 0.00041798 -5.18022e-05)
(0.120843 0.000131966 0.000147657)
(0.122064 0.000518621 -0.000595872)
(0.120673 0.00123258 -0.000654352)
(0.115303 0.00133759 -0.000939252)
(0.125579 0.000495693 -0.000340131)
(0.123442 0.000658317 -0.000159781)
(0.120381 2.61057e-05 0.00076509)
(0.115963 -0.000422082 7.86786e-06)
(0.123644 -0.000365687 -6.79539e-05)
(0.115521 -0.000591875 -0.000558426)
(0.124555 -0.000332464 0.000110709)
(0.124085 -8.27432e-05 0.000306824)
(0.119841 0.00123233 -0.00057385)
(0.12345 -0.00033869 0.000179334)
(0.125041 0.000115625 -0.000444642)
(0.122285 -0.000486159 -0.000195935)
(0.115041 -7.68758e-05 0.000254935)
(0.120797 0.000110206 0.000261037)
(0.118312 0.000677964 -0.000410947)
(0.121217 0.00021259 -0.000256918)
(0.11546 -0.000504166 -0.000939022)
(0.123231 -0.000112657 -0.000382068)
(0.123707 -0.000479016 0.000646227)
(0.119044 0.000789035 -0.000771631)
(0.121033 0.000131557 4.90052e-05)
(0.118242 0.000151367 -0.000483467)
(0.123982 3.40105e-05 -0.000438542)
(0.12053 -0.000727545 9.76833e-05)
(0.121453 0.000492706 0.000529997)
(0.115972 -0.000187574 6.84706e-05)
(0.124146 4.59656e-06 2.86987e-05)
(0.122439 -0.000344097 -0.000129588)
(0.124351 -1.45313e-05 -0.000164473)
(0.11862 0.00050252 -0.00035073)
(0.121033 -5.40405e-05 -0.000322872)
(0.122096 0.000115019 -0.000308402)
(0.119885 -0.000195398 0.000242371)
(0.12223 -6.65707e-05 0.000356003)
(0.121718 -0.000283671 0.000602722)
(0.123814 -0.000413332 0.000118744)
(0.121206 -0.000166705 -0.00011927)
(0.116537 -7.72857e-06 -0.000199179)
(0.114517 -0.000166626 -0.000701843)
(0.122703 -0.000727078 0.000163299)
(0.115407 0.000526111 -0.00125312)
(0.119411 -0.000711001 -0.0014478)
(0.12123 0.000261159 -0.000276033)
(0.121364 0.000314008 0.000144789)
(0.125052 0.000439547 -0.000362247)
(0.115265 4.41699e-05 -5.49699e-06)
(0.120574 -0.000119981 -0.000715302)
(0.125498 0.000115136 -0.000455848)
(0.116846 0.00081275 -0.00282947)
(0.117028 0.00135522 7.48526e-05)
(0.120468 0.000170375 -0.00083836)
(0.116869 0.000107571 2.2989e-05)
(0.123018 0.000853415 -0.00093924)
(0.117142 -0.000334723 7.673e-05)
(0.124952 -0.000828599 -0.00037199)
(0.118895 0.000280913 0.000481514)
(0.120141 0.000567371 0.000501573)
(0.125969 0.000470074 0.000895755)
(0.114498 -0.000128448 0.000551271)
(0.119143 9.14688e-05 0.000380137)
(0.119186 2.80725e-05 0.000571817)
(0.124251 -4.30211e-05 -0.000772778)
(0.124389 3.95614e-05 0.000344009)
(0.124451 4.9791e-05 -0.000126427)
(0.116184 0.000755778 0.000327309)
(0.12317 0.000156157 -0.000277477)
(0.124069 8.07438e-05 0.00101332)
(0.11917 -0.000149594 -0.000253679)
(0.124222 0.000393778 -0.000115624)
(0.123645 0.000427651 0.00021523)
(0.123517 0.000387313 1.3859e-06)
(0.124742 5.10389e-05 -0.000647373)
(0.12119 7.32268e-05 -0.000145259)
(0.12571 -2.32453e-05 0.000441391)
(0.125152 0.000724049 0.000857894)
(0.124457 9.60905e-05 -0.000678205)
(0.122183 0.000490176 0.000287023)
(0.120417 -0.000262158 -0.000303965)
(0.121343 0.000432528 0.00010495)
(0.121023 0.00017961 -0.000316671)
(0.11483 -0.000925521 -0.000290564)
(0.120087 -0.000302313 0.000118396)
(0.122339 -0.00030777 0.000452543)
(0.124231 -0.000322377 -0.000291776)
(0.124969 -0.000268605 -0.000770968)
(0.120373 -0.000463646 -1.61031e-05)
(0.125617 0.00119614 -0.00023966)
(0.123313 -6.57144e-05 -6.24085e-05)
(0.119313 -0.000689571 0.000509139)
(0.123952 -0.000152002 -0.000418435)
(0.124457 8.23762e-06 -0.000216609)