/*--------------------------------*- C++ -*----------------------------------*\
| =========                 |                                                 |
| \\      /  F ield         | OpenFOAM: The Open Source CFD Toolbox           |
|  \\    /   O peration     | Version:  2212                                  |
|   \\  /    A nd           | Website:  www.openfoam.com                      |
|    \\/     M anipulation  |                                                 |
\*---------------------------------------------------------------------------*/
FoamFile
{
    version     2.0;
    format      ascii;
    arch        "LSB;label=32;scalar=64";
    class       surfaceVectorField;
    location    "0.05";
    object      Uf;
}
// * * * * * * * * * * * * * * * * * * * * * * * * * * * * * * * * * * * * * //

dimensions      [0 1 -1 0 0 0 0];

internalField   nonuniform List<vector> 
68568
(
(0.122863 0.000198482 -0.000141482)
(0.122094 0.000553138 -0.000211996)
(0.121777 0.000353868 -3.49572e-05)
(0.124416 0.000785186 -0.000383384)
(0.122015 -0.000452389 -0.000235691)
(0.121996 -0.000503809 -0.000487129)
(0.120721 -0.000463166 2.97046e-05)
(0.114393 -0.000240351 -0.000245114)
(0.12345 0.00021303 0.000327671)
(0.123173 -0.000495479 0.000756621)
(0.121653 -0.000241122 0.000134176)
(0.117709 -0.000658934 0.000769811)
(0.125726 -0.000196344 -0.000213954)
(0.124552 -6.9261e-05 -0.000459734)
(0.125524 -0.000136084 -0.000344702)
(0.125896 -0.000228796 -0.000363166)
(0.120239 -0.000212229 -0.000270087)
(0.123256 -0.000504704 -0.0003156)
(0.119591 -0.000230186 -0.000320397)
(0.122866 -0.000501745 -0.000363542)
(0.122682 -0.000192525 -2.27303e-05)
(0.12115 -0.000111051 0.000144323)
(0.122899 -0.000119726 0.000164154)
(0.115818 -0.000123754 -0.000286346)
(0.121803 -5.60936e-05 -0.000152296)
(0.117041 -0.000213289 0.000191054)
(0.118973 7.97346e-05 -0.00044838)
(0.121894 -9.07017e-05 -0.000225769)
(0.121697 0.000248187 0.000491426)
(0.124015 0.000121582 8.55756e-05)
(0.122707 -5.86624e-05 2.3249e-05)
(0.123156 -0.000165084 -0.000372836)
(0.121875 0.000118517 -0.000270131)
(0.121947 0.000318951 -0.000632347)
(0.123947 -0.000255767 -8.6767e-05)
(0.122575 -0.000576657 -0.000352113)
(0.124444 -0.000148798 -0.000572254)
(0.124628 -0.000548084 -0.00041541)
(0.124755 0.000462858 8.13243e-05)
(0.123406 0.000297574 -4.0635e-05)
(0.124604 0.000269797 -6.93217e-05)
(0.120747 -0.000128235 -0.000531095)
(0.124983 -0.000452373 -0.000761285)
(0.12453 -0.000588438 -0.000680865)
(0.122091 -0.000281067 6.59505e-05)
(0.120979 -0.000498067 -1.65651e-05)
(0.114881 -1.3943e-05 -0.00034189)
(0.124453 -0.000182383 -0.000122048)
(0.124305 -0.000163081 0.000287288)
(0.123382 -0.000194866 0.000204216)
(0.121447 -8.91015e-05 0.000195883)
(0.119699 -0.000332326 1.1677e-05)
(0.121481 -0.000284236 -0.000113399)
(0.120713 -0.000254095 -1.27261e-05)
(0.114439 -0.000302754 -3.88412e-05)
(0.122017 -0.000454957 0.000835572)
(0.117197 -0.000400511 0.000562279)
(0.119022 -0.000412613 0.000779316)
(0.122348 -0.00033594 0.00029216)
(0.121322 0.000195844 0.000239146)
(0.122308 0.000367022 0.000255881)
(0.121812 0.000305837 0.00019536)
(0.123458 0.000122286 0.000152953)
(0.117354 0.000441301 0.000451947)
(0.117504 -0.000325074 0.000697985)
(0.121511 -5.63611e-05 0.000255148)
(0.121772 -3.14185e-05 -0.000604393)
(0.119087 -0.000450865 -3.45148e-05)
(0.117806 5.05234e-05 -0.000710403)
(0.122242 -0.000257152 -0.000349149)
(0.121825 9.0175e-06 -0.000172851)
(0.123407 -0.000313763 -6.71535e-05)
(0.122942 -0.000496315 1.33438e-05)
(0.117116 -0.000129295 -9.36322e-05)
(0.116673 -0.000200581 -0.000376629)
(0.118455 6.61015e-05 -0.000322383)
(0.117044 0.000264967 -0.000331882)
(0.106129 -0.00015856 -0.000468858)
(0.12353 -0.000470355 -0.000561841)
(0.125035 -0.000231113 -0.000649498)
(0.124086 -0.000343384 -0.000648282)
(0.124548 -0.000376088 -0.000753876)
(0.123932 0.000372492 -0.000230748)
(0.124028 0.000468176 -0.000118137)
(0.121644 0.000487151 7.55404e-06)
(0.124802 0.000550392 -0.00025768)
(0.118529 0.000310013 -0.000293337)
(0.118948 -0.000116149 -0.000289366)
(0.121722 0.000181154 -0.000437187)
(0.12218 5.9887e-05 -8.57903e-05)
(0.116334 -5.40594e-05 6.32306e-05)
(0.120785 -0.000162193 -0.000103111)
(0.118295 0.000215673 -0.000505649)
(0.120826 -0.000159176 0.000247676)
(0.121434 -5.17583e-05 -8.07463e-05)
(0.121451 -0.000476772 0.000174557)
(0.123606 -0.000333413 0.000775569)
(0.121511 -0.000110108 -0.00031521)
(0.122986 -0.000191468 -0.000187491)
(0.116708 -0.000143067 0.000261703)
(0.124022 0.00108263 0.000392238)
(0.121653 0.0012745 -0.000328928)
(0.123677 0.00128789 0.000206765)
(0.121877 0.000936312 -0.000717815)
(0.122712 0.000147353 0.000479022)
(0.116399 0.000415312 -0.000250677)
(0.118334 0.000482748 0.000176673)
(0.124487 3.21506e-05 0.000372367)
(0.12359 -0.000168093 0.000325972)
(0.124564 -7.85265e-05 0.000361522)
(0.12509 -0.00030073 -0.000188488)
(0.123187 -6.14241e-05 1.96235e-05)
(0.125247 -0.000240765 -0.000142956)
(0.122633 -0.000144732 -0.000171637)
(0.121324 -0.000181339 -0.000210783)
(0.121392 -8.77834e-05 -0.000349774)
(0.117607 0.000370161 -3.8976e-05)
(0.117103 -0.000280063 0.000335817)
(0.124037 0.000304855 -0.000474881)
(0.123294 3.79754e-05 -0.000280897)
(0.124278 1.96437e-05 -0.000433758)
(0.124642 4.64776e-06 -0.000273375)
(0.118676 -0.000126146 -0.000230667)
(0.11746 -0.000251505 0.000126279)
(0.12214 -0.000198432 4.98703e-05)
(0.12233 -1.97252e-06 0.000145479)
(0.118843 0.000393611 0.000297255)
(0.116459 0.000259736 0.000281442)
(0.116414 0.000146569 -6.44656e-05)
(0.10702 0.000120763 0.000267328)
(0.124479 0.00046099 -5.91813e-05)
(0.116205 -4.43211e-05 -9.93542e-05)
(0.116462 -0.000515472 -0.0002475)
(0.113939 -0.00027914 6.47368e-05)
(0.10633 -0.000325866 -6.06937e-05)
(0.125034 -0.000498348 0.000279172)
(0.125049 -0.000649284 0.000153569)
(0.125227 -0.000235084 0.000424456)
(0.124505 -0.000622447 0.000274248)
(0.122771 -0.000317824 0.000328162)
(0.122852 -0.000364164 0.00055633)
(0.124469 -0.000413779 0.000601242)
(0.115024 0.000557807 -0.000503792)
(0.116354 -0.000329808 -7.60178e-05)
(0.107356 5.12022e-05 -0.000137268)
(0.120006 -9.06887e-05 -9.08136e-05)
(0.117288 -0.000103812 -0.00038441)
(0.10745 0.000141885 -0.00049523)
(0.118277 -0.000259955 7.64242e-05)
(0.118298 -0.000548 -0.000156131)
(0.119348 -0.000478066 -0.000143903)
(0.10671 -0.000362748 8.35729e-05)
(0.12421 -0.000234428 0.00017519)
(0.122003 -0.000218126 6.60598e-05)
(0.123634 -0.000341178 -0.000513111)
(0.124702 -0.000877676 -0.000441453)
(0.123322 -0.00079369 -0.000778375)
(0.124892 -0.000574622 -0.000905693)
(0.124025 -0.000593489 0.000625587)
(0.124478 -0.000764034 0.000234125)
(0.123821 -0.000349045 0.000326483)
(0.125216 -0.000668898 -0.000236082)
(0.123722 -0.000744147 -3.34756e-05)
(0.123072 -0.000441435 -0.000350296)
(0.125113 -0.000304019 -0.000512295)
(0.120837 3.16738e-05 -0.000353501)
(0.118918 0.000579387 -0.000515943)
(0.113304 -2.7711e-05 -0.000363041)
(0.122547 0.00037765 -0.000461013)
(0.122887 2.30069e-05 -0.000335142)
(0.12014 0.000239072 -0.000746683)
(0.118696 0.000129001 -0.000239273)
(0.121014 -0.000225366 0.0002369)
(0.120749 -1.15397e-05 4.91903e-05)
(0.123032 5.2896e-07 -0.000270806)
(0.121867 -0.000219872 0.000128628)
(0.12441 -0.000136846 -0.000347214)
(0.123015 -0.000318335 -0.000569444)
(0.123262 2.0624e-05 -0.000475371)
(0.125074 9.97804e-05 -0.000878793)
(0.125531 -0.000142199 -0.000433086)
(0.118907 -0.000309576 -0.000600976)
(0.116444 7.01539e-06 -0.000289711)
(0.117254 -1.2859e-05 -0.000191419)
(0.105751 -8.01983e-06 -0.000367136)
(0.123516 0.000739623 0.000208041)
(0.122752 0.00061075 0.000295363)
(0.124341 0.0006926 0.000243694)
(0.123914 0.000518807 0.000150405)
(0.115694 -0.000488271 0.000144576)
(0.10694 -0.000178156 0.000432776)
(0.119783 -0.00021116 -0.000274363)
(0.119643 -0.000477684 -1.00762e-05)
(0.123053 -0.000269706 -0.000303531)
(0.123099 -0.000382598 -7.84414e-05)
(0.120404 0.000265779 0.000187936)
(0.121065 0.000128422 0.000148012)
(0.12309 -9.74331e-05 -6.93758e-05)
(0.118376 -9.5499e-05 -0.00072579)
(0.11695 -9.13348e-05 -0.000330472)
(0.118602 9.93309e-05 -0.000135317)
(0.106783 0.000352679 -0.000250959)
(0.123391 0.000124229 0.000465659)
(0.122897 -0.000232452 0.000117196)
(0.121712 -1.46608e-05 0.000428761)
(0.117074 1.03902e-05 0.000357451)
(0.123016 -0.000266665 0.000181252)
(0.121608 8.09298e-05 0.000481948)
(0.122998 -6.46877e-05 -4.45365e-06)
(0.115983 8.5796e-05 0.000270589)
(0.11618 3.60855e-05 -0.000159077)
(0.116364 0.000517429 -0.000168086)
(0.107714 0.000199099 -0.00013784)
(0.121959 -0.000516499 -0.000554776)
(0.121628 -4.59578e-05 -0.000386879)
(0.12188 -0.000169661 -0.000224355)
(0.12391 0.000365859 8.82491e-05)
(0.122478 0.000438539 0.000161397)
(0.124686 0.000135914 -0.000159577)
(0.123166 0.000232922 -0.000221057)
(0.121682 -0.000187639 -0.000395997)
(0.118774 -0.000274526 -0.000523841)
(0.118829 -0.000261465 -0.000281008)
(0.107693 -0.000338339 -0.000189512)
(0.122893 -0.000145956 -0.000156381)
(0.122989 -7.87032e-06 5.84625e-05)
(0.115278 -2.37041e-05 -0.00026993)
(0.121379 0.000153214 7.4167e-05)
(0.121707 0.00042357 0.000223455)
(0.123295 0.000482044 0.000282587)
(0.12185 0.000447816 0.000377456)
(0.12502 -0.000167906 -0.000599403)
(0.125336 -0.000231482 -0.000493279)
(0.125221 -0.000366391 -0.000426695)
(0.124674 -0.000264259 -0.000355024)
(0.121028 0.00024422 -0.00107721)
(0.123391 0.000120861 -0.000919956)
(0.124066 -0.000333876 -0.000741814)
(0.121339 -0.000473159 3.85602e-05)
(0.122796 -0.000289721 3.70087e-05)
(0.121289 -0.000137097 0.00024023)
(0.116271 -5.09752e-05 -0.000235496)
(0.118697 -0.00095782 -0.000528617)
(0.119331 0.000297194 -0.000436211)
(0.106837 -6.38858e-05 -0.000481294)
(0.1249 0.000285788 6.56599e-05)
(0.125298 0.000224256 -0.000312198)
(0.124924 2.09637e-05 -9.28086e-05)
(0.125508 6.32621e-05 -0.000464217)
(0.123949 0.000304362 0.000132996)
(0.121744 0.000301218 0.000223583)
(0.123045 0.000113048 0.000260697)
(0.123066 0.000189724 -7.79104e-05)
(0.118861 0.00013481 -0.0011824)
(0.118259 0.000262975 -0.000548594)
(0.119992 0.000123511 -0.000859772)
(0.110091 -0.000619969 -0.000849803)
(0.122056 -0.000282029 -0.000667443)
(0.122147 -0.000314631 -0.00088186)
(0.124297 -0.000313782 -0.00048374)
(0.12393 -0.00027383 -0.000624418)
(0.123455 -0.00027727 -0.000203828)
(0.121702 -0.000399538 -0.000367594)
(0.121711 -8.71812e-06 -8.98916e-05)
(0.116604 4.48713e-05 -0.000606405)
(0.123665 0.000694478 0.000305121)
(0.123136 0.00073145 6.3176e-05)
(0.122024 0.000492326 -0.000104147)
(0.11657 2.64599e-05 -0.000634309)
(0.116061 0.00019197 -0.000396332)
(0.117998 0.000372022 -0.000638183)
(0.106121 0.000421282 -0.000133879)
(0.124048 -0.000581704 -0.000114549)
(0.123677 -0.000597737 0.000153186)
(0.12526 -0.000493368 6.868e-05)
(0.119319 0.00106104 -0.000616136)
(0.122848 1.06312e-06 -0.000438093)
(0.122266 0.000132338 -0.000451856)
(0.121269 -0.000310179 0.000518747)
(0.121755 -3.31823e-05 0.000264619)
(0.122218 7.69126e-06 0.000365353)
(0.115279 -0.000149149 0.000358815)
(0.118705 -0.000229267 -0.000137595)
(0.123942 -4.03147e-05 8.73641e-05)
(0.121676 0.000222931 9.33118e-05)
(0.123892 0.000429472 -8.71019e-05)
(0.116894 0.000311232 -0.000351689)
(0.121012 -0.000172471 -0.000138611)
(0.121281 -7.64072e-05 -1.48428e-05)
(0.113678 -0.000156532 -0.000335548)
(0.114826 -0.00010513 0.000252734)
(0.114458 -0.000390205 9.83098e-05)
(0.106849 -0.00025036 0.000120228)
(0.125196 -7.80546e-05 0.000207858)
(0.123161 -0.000147086 -0.000117075)
(0.125107 -0.000351187 0.000178237)
(0.124221 -0.000567619 0.000221075)
(0.123968 -0.000488192 -0.000319267)
(0.123501 -2.96733e-05 -0.000179697)
(0.123304 -8.46449e-05 -0.000311529)
(0.115797 -0.000155802 1.15909e-05)
(0.120959 -0.000314689 -9.37939e-05)
(0.123119 -0.000336263 -0.000113305)
(0.123612 -0.000156338 -0.000175599)
(0.120939 2.63005e-06 0.00013359)
(0.125013 -0.000228645 -0.000154288)
(0.12291 -0.000172081 -0.0003066)
(0.123121 2.12683e-05 1.9767e-05)
(0.124986 -0.000302042 -6.12605e-05)
(0.125037 -1.89038e-05 0.000198077)
(0.124567 -0.000229583 2.56191e-05)
(0.125358 -0.000199624 -0.000162429)
(0.123231 -0.000167945 -0.000280097)
(0.122946 -0.000285923 -0.000496806)
(0.124914 -0.000117341 -0.000633889)
(0.116424 0.00138845 -0.000969627)
(0.119793 0.000129919 -0.00138428)
(0.118652 0.000558271 -0.000894466)
(0.10451 5.28211e-05 -0.000356949)
(0.123633 -0.000139585 -0.000266008)
(0.123636 -0.000242758 -0.000333355)
(0.125026 -0.000176608 -0.000567522)
(0.122099 -0.000301057 0.000193941)
(0.123855 -0.000234758 4.40635e-05)
(0.115734 -0.0001109 -0.00010854)
(0.119056 -0.000294049 7.28977e-06)
(0.118556 -2.39081e-05 3.49373e-05)
(0.122122 -0.000328668 0.000265698)
(0.121926 -0.00038274 -0.000114278)
(0.117967 -0.000396253 -0.00104242)
(0.118572 -0.00056935 -0.00018667)
(0.10594 -0.000388232 -0.000200454)
(0.119318 0.000553621 -0.0008496)
(0.12126 0.000319745 -0.000988449)
(0.114336 -0.000268087 -0.00049958)
(0.117939 -0.000614734 -9.0295e-05)
(0.12139 -0.00070233 -0.000179617)
(0.1175 -0.000468225 -0.000459513)
(0.121173 -0.000475719 -0.000249544)
(0.122475 0.000416173 0.00018006)
(0.12225 0.000767626 2.60774e-05)
(0.120301 0.00106473 0.00059815)
(0.116573 0.000538953 0.000428664)
(0.12058 0.000267234 -0.000283254)
(0.121516 -7.64738e-05 -0.000289329)
(0.123672 0.000220321 -0.000143215)
(0.123964 -0.000288067 -8.55833e-05)
(0.123517 -0.000244337 -2.22986e-05)
(0.115551 -0.000225072 -2.13466e-06)
(0.121078 8.03664e-05 0.000377492)
(0.120564 0.000380742 0.000317283)
(0.122163 6.79639e-05 0.000305822)
(0.115095 5.37389e-05 -0.000131273)
(0.117593 -0.000998464 0.000136907)
(0.118069 -0.000445124 -4.24672e-05)
(0.116941 -0.00117263 -0.000398249)
(0.106312 -0.000814308 0.000171134)
(0.12293 0.000400479 0.00028091)
(0.123171 3.11381e-05 0.000245409)
(0.121181 0.000355868 -0.0001941)
(0.123368 1.23769e-05 -0.000155398)
(0.122965 0.000141907 0.000255283)
(0.12125 -9.98092e-05 0.000479818)
(0.121044 0.000534405 0.000405682)
(0.119477 -0.00042945 -0.000423873)
(0.114685 -2.41807e-05 -0.000156902)
(0.116341 -3.85447e-05 -0.000223672)
(0.118278 -0.000373089 -0.000327465)
(0.117325 0.000146069 -0.00036563)
(0.106728 -4.46773e-05 8.69606e-05)
(0.118817 -5.2687e-05 -0.000295311)
(0.1062 -2.38764e-05 -0.000325041)
(0.123333 -0.00043941 -3.06455e-05)
(0.125328 -0.000221787 0.000270865)
(0.125424 -0.000310159 -0.000113399)
(0.107975 1.00361e-06 0.000241352)
(0.117199 -0.000709484 -0.000735028)
(0.118437 -0.000546393 -0.000303665)
(0.117925 -0.00095808 -0.000708)
(0.10561 -0.000417516 -0.00101053)
(0.117012 0.000636716 -0.000220631)
(0.120705 0.000395672 -0.000104435)
(0.116306 -0.000484217 0.000725259)
(0.115055 -0.000113329 0.000342895)
(0.117058 0.000127748 0.000715629)
(0.10642 -0.00041042 0.000324246)
(0.123671 -0.00120392 0.000375045)
(0.12115 -0.00123832 0.000654487)
(0.121576 -0.00112447 0.000494474)
(0.123641 -0.00115414 0.000221816)
(0.120155 -0.000379991 -0.000668553)
(0.118948 -0.000325741 -0.000256606)
(0.118044 -0.000165185 -0.00026488)
(0.106024 0.00013728 -0.000298722)
(0.122718 0.000416163 -5.49411e-05)
(0.12163 0.000282297 -0.000112899)
(0.122261 -0.000380939 -7.03228e-05)
(0.117022 0.000190327 -0.00031661)
(0.118932 -0.000501045 -0.000470559)
(0.118863 -0.000509659 -0.000627783)
(0.121879 -0.00056776 -0.000601706)
(0.122839 6.22236e-05 -0.000717156)
(0.12263 0.000143857 -0.000731698)
(0.121469 6.95065e-05 -0.000716603)
(0.114937 0.000407609 -0.000827938)
(0.117956 -9.13883e-05 5.78291e-05)
(0.116105 -0.000446451 8.15727e-05)
(0.117126 -0.00060825 0.000449822)
(0.106208 -0.000453713 -5.59891e-05)
(0.122766 0.000602878 0.000381478)
(0.118622 0.000482835 -0.000277455)
(0.118426 -0.000276887 -4.55314e-05)
(0.122403 -0.000813355 -0.000112585)
(0.118562 -0.000549703 -2.14563e-05)
(0.12217 -0.000724107 0.000233128)
(0.123175 0.000145742 0.000252581)
(0.122674 0.000100792 7.67738e-05)
(0.123097 9.57403e-05 3.39377e-05)
(0.122619 6.30767e-05 0.000193013)
(0.122792 -0.000306376 -7.22677e-05)
(0.116107 -0.000315608 5.85045e-05)
(0.12187 -0.000363154 -0.000321791)
(0.122356 -1.93794e-05 -0.00054423)
(0.123756 6.36062e-05 -0.000310586)
(0.12161 -0.000221528 -0.000147918)
(0.122153 -0.00031447 0.000283094)
(0.123985 -0.000149478 0.000126961)
(0.124741 -0.000327811 8.53853e-05)
(0.122749 -5.48143e-05 -0.000597216)
(0.122648 -8.99438e-05 -0.000494029)
(0.125041 -2.10256e-05 -0.000623217)
(0.121612 0.000254955 -0.000502149)
(0.123505 0.000193745 -0.000360573)
(0.123879 -0.000226288 -0.000712918)
(0.119964 -0.000813224 -0.000238616)
(0.12471 5.88935e-05 -0.000648812)
(0.12236 -0.000507102 0.000279932)
(0.124095 7.63554e-05 0.00044417)
(0.12397 -0.000103098 0.000188157)
(0.124122 -0.000359895 0.000202416)
(0.122066 8.73062e-05 0.000190776)
(0.122894 -0.000172204 0.000320604)
(0.114941 -3.82817e-05 0.000118881)
(0.117066 -0.00010946 -0.000597395)
(0.117128 -0.000347826 -0.000268776)
(0.117789 -0.000736602 -0.000369603)
(0.121186 -0.000661723 -0.000425548)
(0.121749 -0.000521454 -0.000436664)
(0.12231 -0.000391231 0.000232817)
(0.122044 -0.000320186 1.16203e-05)
(0.124532 -0.000243152 -0.000266641)
(0.124496 -0.000225285 7.54763e-05)
(0.123606 5.10511e-05 -0.000190073)
(0.122045 -0.000193396 -0.000392477)
(0.121613 0.000237436 -9.06858e-05)
(0.123585 0.000393772 4.16426e-05)
(0.123261 0.000279617 -0.000438733)
(0.124791 -7.37365e-05 -0.000747992)
(0.123824 4.79383e-05 -0.000277575)
(0.124677 -0.000211787 -0.0006583)
(0.123368 -0.00051898 -6.36288e-05)
(0.122265 -0.0003447 -4.79405e-05)
(0.120964 -0.00101823 0.000189235)
(0.123818 -0.00074836 7.83755e-05)
(0.123306 -0.000161776 7.84883e-05)
(0.1196 -0.00017606 -0.000337407)
(0.124128 -0.000194701 1.99469e-05)
(0.119448 7.5279e-05 -0.000698995)
(0.124301 -4.26711e-05 -9.9354e-07)
(0.125085 -0.000206615 -0.000410553)
(0.123906 -3.62394e-05 -0.000237815)
(0.123347 -4.10337e-05 0.000332845)
(0.115282 -1.14339e-05 -8.61879e-05)
(0.11649 -0.000241323 -0.000425561)
(0.107615 -0.000104626 -0.000260704)
(0.117089 -0.000637096 -0.000931616)
(0.106106 -0.00029349 -0.000244809)
(0.12501 0.000204571 0.00074298)
(0.12284 0.000219839 0.000223388)
(0.121459 -0.000563642 -0.000476857)
(0.115232 -0.000355775 -0.000363363)
(0.122945 -0.000223754 -0.000805755)
(0.12263 -0.000228946 -0.0006126)
(0.121296 -0.000369073 -0.000314134)
(0.114705 -0.00035325 -0.000420596)
(0.124634 0.000310183 0.00072663)
(0.12468 0.000117798 0.000766489)
(0.124813 0.000194059 0.000649342)
(0.12381 0.000357939 0.000716793)
(0.122759 0.000613004 0.000348909)
(0.122918 0.000319305 0.000245978)
(0.124297 0.000394212 0.000298573)
(0.116176 -0.000243231 -0.000414112)
(0.118074 -9.74128e-05 -0.000226301)
(0.105721 -0.000355101 -0.000423976)
(0.119022 0.000250541 -0.000339644)
(0.117683 -0.000113648 -0.000258534)
(0.117013 0.000311157 -0.000329828)
(0.106681 -5.70283e-05 -0.000707)
(0.124366 -0.0001363 0.000103127)
(0.122784 -0.000281495 -0.000400856)
(0.124382 -0.000448006 -9.80786e-05)
(0.121445 1.67328e-05 -0.000180066)
(0.123205 -0.000106943 -0.000273284)
(0.117511 -0.000360212 -0.000506944)
(0.118233 -0.000217174 -0.00062384)
(0.106524 -0.000393629 -0.000385246)
(0.119049 -0.00035733 -0.000117126)
(0.116702 -9.29167e-05 2.35146e-05)
(0.116253 1.24703e-05 0.000275826)
(0.107633 -0.000109412 0.000156462)
(0.124989 -0.000698279 0.000245255)
(0.123055 -0.000436992 0.000518753)
(0.122885 -0.000476757 0.000135803)
(0.124835 -0.000448446 -1.47247e-05)
(0.118626 -0.000123199 -0.00132955)
(0.118365 -1.22477e-05 -0.000891797)
(0.121479 -0.000277386 -0.000871893)
(0.106807 -0.0003175 -0.00118472)
(0.121295 0.000173057 0.000164995)
(0.121721 -0.000423653 0.000211431)
(0.121975 -0.000166335 0.000184098)
(0.115589 -0.000379717 0.000227557)
(0.119058 -0.000735216 -0.000468746)
(0.122534 -0.000412565 -0.00066541)
(0.122341 -0.000154087 -0.000858525)
(0.122955 -9.6432e-05 -7.83941e-05)
(0.124721 -0.000151924 0.0001248)
(0.123746 9.9497e-05 0.000399412)
(0.119824 0.000163553 -0.00120364)
(0.117257 0.00040235 -0.000881791)
(0.119234 0.0008213 -0.000904864)
(0.105154 -0.000406801 -0.000910209)
(0.126026 -7.96368e-05 5.93244e-05)
(0.125705 -0.00026398 -3.0973e-05)
(0.124131 2.713e-05 -7.51749e-05)
(0.125781 2.37059e-05 -2.10587e-05)
(0.123963 -0.000189325 -0.000458593)
(0.121112 -0.000198029 -0.000304652)
(0.120544 -8.34405e-05 -0.000716242)
(0.123646 -0.000304882 -0.000196832)
(0.119829 -0.0010269 -0.000380474)
(0.120193 -0.000947488 -7.32203e-05)
(0.106587 -0.000295684 -0.000548747)
(0.118614 -0.000669486 0.000940308)
(0.117401 -0.000287803 0.000954613)
(0.119273 -0.000540493 0.00070118)
(0.105178 0.000105288 0.000184521)
(0.122076 -0.000332342 3.0524e-05)
(0.116856 -0.000289932 6.39686e-05)
(0.119286 -0.000295952 -0.000712759)
(0.12571 -0.000207971 -0.000209231)
(0.124017 -0.000187763 -0.000339436)
(0.117157 0.00027525 0.00022832)
(0.116227 0.000147238 0.000259146)
(0.118237 -0.000144944 -0.000187823)
(0.10546 -0.00016185 0.000165512)
(0.11963 -0.000171592 -0.000806729)
(0.119435 0.000408207 -0.000538841)
(0.106706 -0.000402884 -0.00091566)
(0.116651 -0.000204121 0.000312276)
(0.119257 -0.000116198 0.000295177)
(0.116986 -0.000558237 0.0001157)
(0.107226 -0.000325133 0.000103363)
(0.116663 -0.00101582 -0.000429511)
(0.119762 -0.000673107 0.000210696)
(0.117788 -0.0010053 -0.000253391)
(0.104925 -0.000524646 -0.000399026)
(0.119511 0.000575838 -0.000603909)
(0.121031 0.000316414 -8.79823e-05)
(0.121434 0.000127853 -0.000424107)
(0.114444 0.000383742 -0.000341158)
(0.117794 0.000300022 0.000201754)
(0.116942 0.000238028 0.000350163)
(0.107208 -1.55122e-05 0.000262403)
(0.124495 -0.000536514 2.96051e-06)
(0.12405 -0.000357726 0.000158981)
(0.124924 -0.000498422 -5.43372e-06)
(0.124519 -0.00045468 0.000191441)
(0.122812 -0.000344584 0.000237995)
(0.123018 -0.000259671 1.80254e-05)
(0.125048 -0.000335231 0.000307928)
(0.125319 -0.000344444 0.000260653)
(0.115552 0.000167284 -0.00113653)
(0.115654 0.000117331 -0.000477357)
(0.117787 0.000223885 -0.000819354)
(0.10809 -0.000250747 -0.000580526)
(0.118388 -0.000442415 0.000557342)
(0.118539 -0.0014159 -0.000169762)
(0.118912 -0.000739902 0.000205404)
(0.11057 -0.000587003 -3.68209e-05)
(0.120298 0.0009827 -0.000100473)
(0.122296 0.000626502 -0.000353715)
(0.122321 0.000583087 -0.000604425)
(0.116259 0.000244446 -0.000627869)
(0.118844 7.80859e-05 0.000150034)
(0.116213 -4.08603e-05 -2.7433e-05)
(0.115552 -0.000199354 -0.000199666)
(0.107114 0.000202873 -6.74926e-05)
(0.123138 -5.49394e-05 0.000480501)
(0.116396 4.79919e-05 -2.65639e-05)
(0.123417 -0.000516266 -0.00036606)
(0.124633 -0.000137291 -0.000364309)
(0.123629 -0.0001444 -0.000241017)
(0.123605 -0.000153679 -0.000309468)
(0.121572 0.000421777 0.000105604)
(0.120341 0.000324312 0.000228574)
(0.116043 0.000437404 0.000325498)
(0.12409 0.000211907 -8.36459e-05)
(0.123072 0.000271919 0.000362874)
(0.123776 0.000185181 0.00021389)
(0.123769 0.000363283 0.000316478)
(0.123534 -0.000152028 -7.4865e-05)
(0.12349 -0.000472844 -0.00015988)
(0.115627 -0.000277506 -0.000145611)
(0.121679 -0.000281021 -0.000166082)
(0.120349 -0.000406224 8.21935e-05)
(0.121636 -0.000432173 0.000184571)
(0.113647 -0.000178447 -0.000242035)
(0.121717 -2.35926e-05 4.21794e-06)
(0.122072 0.000242799 0.000113675)
(0.115189 0.000178799 0.000261643)
(0.118036 -0.000479755 0.000655976)
(0.121889 -0.000506966 0.000392756)
(0.122142 -0.000745078 0.000636419)
(0.119673 -3.01793e-05 0.000250731)
(0.121251 -0.000344438 -0.000109881)
(0.121473 -0.000332505 0.000103662)
(0.115072 -0.00017696 0.000210404)
(0.118265 0.000353289 -0.000170649)
(0.115544 0.000207389 -0.000523821)
(0.105981 0.000863054 -0.000521648)
(0.123411 -0.000263507 -4.30881e-05)
(0.124835 -0.000281309 -0.000104005)
(0.125455 0.000300586 -0.000185359)
(0.121702 3.73724e-05 0.000414996)
(0.122377 -1.29094e-05 0.000594436)
(0.114874 -0.00033184 0.000777778)
(0.123725 0.000262835 5.85331e-05)
(0.124407 -9.81686e-05 7.76116e-05)
(0.124256 0.000217496 -0.000103179)
(0.124493 0.000228057 -8.55174e-05)
(0.118506 -7.84108e-05 -7.94744e-05)
(0.119277 -0.000146674 0.000199376)
(0.11864 -0.000369001 2.69153e-05)
(0.10586 0.000111718 0.000125753)
(0.116322 3.99581e-05 0.000419777)
(0.116141 -0.000195356 0.000427455)
(0.117587 -8.57781e-05 0.000645171)
(0.106166 -0.000249428 0.000378232)
(0.123291 -0.000308027 -0.000233301)
(0.124114 -0.000151629 0.000255425)
(0.12498 -0.000427579 2.25393e-05)
(0.124656 -8.64739e-05 0.000226072)
(0.123178 -0.000377625 -0.000363767)
(0.124383 6.03136e-05 -0.000487143)
(0.122736 0.000181816 -0.000366991)
(0.120427 -0.000249426 0.000711782)
(0.122611 -0.000304521 0.000139874)
(0.122224 -0.000176628 0.000251343)
(0.120966 -0.000238194 0.000776446)
(0.120788 -0.000101591 0.00018405)
(0.122603 -0.000402483 9.12669e-05)
(0.115591 -0.000122372 0.000315524)
(0.123018 -0.000375314 -0.000705943)
(0.123181 -9.20783e-05 -0.000616352)
(0.120918 -0.000169471 -0.000344791)
(0.11515 0.000128881 -0.000618425)
(0.122812 -0.000195946 -0.000826248)
(0.119091 -0.000270579 -0.000774414)
(0.122687 3.3682e-05 -0.000690748)
(0.118855 0.000368047 0.000297104)
(0.122547 0.00051554 0.000444526)
(0.119852 0.000242672 0.000647916)
(0.122967 0.000362599 0.000255722)
(0.124313 0.000278974 -0.000557908)
(0.121405 0.000420191 -0.000551628)
(0.122052 -2.08218e-05 -0.000797314)
(0.119014 -5.06004e-05 -5.4205e-05)
(0.106737 -0.000193875 -0.000351741)
(0.118242 -2.34047e-05 -8.23365e-05)
(0.121569 -0.000264642 -9.90107e-05)
(0.124927 0.000196178 0.000168067)
(0.124699 -0.000146597 0.000113762)
(0.124326 4.43175e-05 0.000372616)
(0.124768 -9.2478e-05 0.000460774)
(0.123533 -0.000510504 0.000178754)
(0.123653 -0.000608272 6.47319e-05)
(0.123356 -0.000444958 0.000113356)
(0.123591 -0.000505662 -6.56305e-05)
(0.123824 -0.000349262 0.000235907)
(0.12345 -0.000558779 0.000205975)
(0.121707 -0.000392493 0.000509849)
(0.119945 -0.00132392 -0.000118315)
(0.122543 -0.00138244 -0.000424627)
(0.121545 -0.00104473 -0.000655716)
(0.11994 -8.43727e-05 -0.000286508)
(0.11961 0.000324768 -0.000487678)
(0.115227 0.000101961 0.000292676)
(0.123299 5.75373e-05 -0.000440746)
(0.11629 -0.000217579 -0.000337306)
(0.119907 0.000567722 -0.000534125)
(0.120115 0.000638601 -0.000753863)
(0.121382 0.000188243 -0.000574902)
(0.114598 -0.000101577 -0.000516891)
(0.124543 0.000217144 -0.000409487)
(0.122928 0.000339034 -0.000448355)
(0.123532 0.000134269 -0.000641569)
(0.106797 7.44359e-05 -0.000182833)
(0.121361 0.000120966 -0.000278099)
(0.115927 -0.000126422 -0.000162831)
(0.119143 0.00016461 -5.26977e-05)
(0.12207 0.000133444 0.000282321)
(0.118761 0.000184207 -0.000151231)
(0.122356 0.000483041 4.41905e-05)
(0.122719 8.75878e-05 -0.000220886)
(0.122158 8.97527e-05 -0.000411668)
(0.121323 9.55558e-05 -5.02014e-05)
(0.117034 0.000338108 -0.000268009)
(0.124755 -0.000121849 -0.000417268)
(0.123088 -0.000209795 -0.000584455)
(0.124296 -0.000304913 -0.00055742)
(0.122904 -0.00049027 -0.000386189)
(0.122566 -0.000658801 -0.000446859)
(0.124639 -0.000518237 -0.000254363)
(0.123713 -0.000535544 -0.000117119)
(0.124238 0.000128558 -0.000413334)
(0.124506 -0.000126932 -0.000288609)
(0.1176 -0.000692585 -0.000427605)
(0.11869 -0.000902122 -0.000454895)
(0.105778 -1.31292e-05 -0.000401535)
(0.121127 -0.00083132 0.000306316)
(0.121809 -0.000295148 8.98207e-05)
(0.124679 -0.00038192 -0.000156688)
(0.122145 -0.000187435 -0.000271179)
(0.124872 -0.000405579 -0.000225929)
(0.124154 -8.25917e-05 0.000259463)
(0.123961 4.96105e-05 -7.2603e-05)
(0.123277 0.000279223 0.000277474)
(0.119682 -0.000305635 -0.000495134)
(0.12366 -0.000354344 -0.000611459)
(0.113963 9.62657e-05 0.000105361)
(0.116158 -0.00034622 0.000663563)
(0.115749 -0.000543893 0.000238941)
(0.104114 -0.000586453 0.000319542)
(0.122957 -0.000320824 -6.1901e-05)
(0.121897 -0.000429843 0.0003565)
(0.116532 -0.000287168 0.000986053)
(0.116363 -0.00113982 -0.000335789)
(0.107489 -0.000661379 -0.000187244)
(0.121333 0.000341799 -0.000125572)
(0.121621 0.000460399 0.000283374)
(0.10333 0.000146257 -0.000224111)
(0.122332 -0.000204819 0.000334284)
(0.124842 -0.000370665 0.000274482)
(0.117177 -0.000453483 0.000373129)
(0.119971 0.000318499 0.000359952)
(0.12079 -0.000442323 0.000115555)
(0.117867 0.000514389 -0.000232525)
(0.118021 0.000223999 -0.00025548)
(0.118492 0.000453697 -0.000599123)
(0.105719 2.29064e-05 -9.84495e-05)
(0.12228 -3.25527e-05 0.000105233)
(0.121607 1.16923e-05 7.26934e-05)
(0.121113 5.38383e-06 0.000174532)
(0.123389 0.000798097 -0.000325734)
(0.12428 0.000860731 -0.000288234)
(0.121341 0.000161745 -0.000226118)
(0.122214 0.000117105 -0.000393475)
(0.124366 -0.000753712 -0.000152693)
(0.123871 -3.7319e-05 0.000299409)
(0.118825 -0.000562061 -6.82889e-06)
(0.118601 -0.00031342 -9.33267e-05)
(0.10501 -0.000353552 0.000155124)
(0.11734 -0.000970867 0.000300545)
(0.11591 -0.000653132 0.000701828)
(0.106997 -0.000626984 0.000237613)
(0.123608 -0.000597266 0.000391451)
(0.121861 -8.52937e-05 0.000606558)
(0.122949 -0.000440697 0.000677083)
(0.121561 -0.000246783 0.000127116)
(0.124186 7.93072e-05 -0.00063669)
(0.124943 -4.45268e-05 -0.000599258)
(0.122745 0.000106362 -0.000410503)
(0.118007 0.000498758 0.000133128)
(0.118914 9.04313e-05 7.60915e-05)
(0.104802 0.000285394 -0.000512774)
(0.12425 -0.000595968 0.000127853)
(0.124165 -0.000609454 0.000393063)
(0.124062 -0.000381044 0.000285607)
(0.120839 -0.000123614 -0.00018869)
(0.118507 3.90877e-05 -0.000491179)
(0.107269 -9.60064e-05 -0.000363132)
(0.116407 -0.000276617 0.000252084)
(0.116403 -0.000555549 8.50667e-05)
(0.107619 -0.000339885 -4.18211e-05)
(0.120892 0.000250552 -0.000483638)
(0.120485 0.000224869 -0.000355304)
(0.122116 0.000325581 -0.000192914)
(0.115553 -0.000233009 -0.000388502)
(0.121694 -0.000388299 -0.000301645)
(0.123529 -0.000565301 9.78062e-05)
(0.121429 -0.000301516 0.000502373)
(0.123025 -0.000415882 9.83496e-05)
(0.119574 -0.0012164 0.000198574)
(0.121276 -0.00091225 -2.49244e-05)
(0.121514 -0.000761874 -0.000124855)
(0.11392 -0.000895938 -0.000245718)
(0.116586 -0.000359054 0.000608119)
(0.120661 1.23042e-05 0.000578328)
(0.119312 0.000131876 0.000194383)