/*--------------------------------*- C++ -*----------------------------------*\
| =========                 |                                                 |
| \\      /  F ield         | OpenFOAM: The Open Source CFD Toolbox           |
|  \\    /   O peration     | Version:  2212                                  |
|   \\  /    A nd           | Website:  www.openfoam.com                      |
|    \\/     M anipulation  |                                                 |
\*---------------------------------------------------------------------------*/
FoamFile
{
    version     2.0;
    format      ascii;
    arch        "LSB;label=32;scalar=64";
    class       volScalarField;
    location    "0.06";
    object      epsilon;
}
// * * * * * * * * * * * * * * * * * * * * * * * * * * * * * * * * * * * * * //

dimensions      [0 2 -3 0 0 0 0];

internalField   nonuniform List<scalar> 
31639
(
0.201276
0.202677
0.203536
0.196686
0.206733
0.207172
0.212138
0.202948
0.203312
0.198402
0.20059
0.198783
0.200917
0.197135
0.20291
0.214378
0.202474
0.209689
0.210481
0.205035
0.227317
0.199835
0.198176
0.209981
0.215039
0.204257
0.204262
0.166019
0.210633
0.199028
0.197634
0.211852
0.196567
0.214257
0.223046
0.198959
0.229409
0.198274
0.198779
0.238765
0.220679
0.225954
0.197603
0.201231
0.201829
0.198208
0.204443
0.206946
0.201079
0.197076
0.198503
0.232599
0.198483
0.232372
0.208018
0.204607
0.228695
0.203697
0.202309
0.225992
0.203103
0.20272
0.217001
0.205194
0.201231
0.196702
0.202495
0.202041
0.221361
0.196901
0.198551
0.205599
0.198414
0.20269
0.198537
0.224552
0.197648
0.208683
0.202439
0.200891
0.215004
0.239156
0.198073
0.20121
0.199072
0.198642
0.197186
0.197428
0.219133
0.197036
0.202013
0.205134
0.224309
0.203243
0.213932
0.20477
0.204811
0.20276
0.202015
0.226547
0.198184
0.199339
0.202189
0.226903
0.225084
0.197834
0.228734
0.233298
0.214325
0.231623
0.198189
0.226542
0.205208
0.209488
0.20162
0.231436
0.208564
0.209672
0.202686
0.203
0.201293
0.198939
0.198573
0.202488
0.205519
0.199072
0.20358
0.214133
0.215253
0.198029
0.196357
0.197603
0.198271
0.210505
0.200203
0.201782
0.224736
0.229281
0.198443
0.202571
0.202916
0.198252
0.198556
0.228889
0.235012
0.198041
0.199919
0.22432
0.223826
0.198192
0.220135
0.206031
0.210611
0.201178
0.224319
0.197175
0.204743
0.223171
0.223166
0.211815
0.198059
0.2254
0.219264
0.229475
0.229221
0.20287
0.225784
0.19835
0.198855
0.225594
0.20445
0.205807
0.224663
0.201083
0.197115
0.199797
0.201834
0.198784
0.201199
0.200895
0.203443
0.208081
0.203551
0.235481
0.205439
0.197743
0.202441
0.198006
0.228334
0.228493
0.201168
0.200961
0.201855
0.203408
0.202643
0.209471
0.210535
0.19797
0.226101
0.208344
0.19941
0.198343
0.19827
0.1984
0.2078
0.203203
0.204235
0.202409
0.199903
0.236318
0.203589
0.209157
0.201839
0.200117
0.204901
0.197383
0.223881
0.212767
0.201937
0.199359
0.198588
0.2073
0.226305
0.208877
0.227129
0.209633
0.200543
0.215827
0.224667
0.202468
0.200976
0.198211
0.221853
0.230896
0.202348
0.200625
0.226116
0.197579
0.219158
0.228287
0.203244
0.20199
0.203994
0.216091
0.217498
0.203382
0.202548
0.203919
0.224607
0.202887
0.203485
0.226321
0.216042
0.198813
0.200279
0.211012
0.223556
0.199035
0.199894
0.211094
0.19652
0.197804
0.205031
0.198321
0.203775
0.209143
0.226116
0.212069
0.196729
0.203613
0.190736
0.212038
0.206505
0.203594
0.197027
0.206574
0.226757
0.208728
0.217019
0.198508
0.208186
0.199086
0.197743
0.209987
0.223303
0.221112
0.223078
0.232671
0.198165
0.219679
0.203309
0.203305
0.21162
0.221459
0.198997
0.211389
0.219607
0.199863
0.205569
0.219561
0.203589
0.219924
0.203067
0.203465
0.225587
0.208955
0.204472
0.235213
0.231498
0.198331
0.197185
0.190904
0.227636
0.224447
0.198921
0.219342
0.214846
0.199093
0.201173
0.204183
0.199383
0.197098
0.22348
0.197316
0.23169
0.232797
0.201564
0.198689
0.198222
0.197252
0.200773
0.22077
0.201972
0.202999
0.199322
0.19956
0.196581
0.203624
0.204874
0.202948
0.198527
0.200606
0.203728
0.205592
0.202691
0.206458
0.201187
0.203321
0.224236
0.205239
0.19729
0.208662
0.200867
0.197322
0.20358
0.226005
0.203691
0.203448
0.227898
0.200016
0.222368
0.204668
0.193131
0.233771
0.203189
0.20393
0.225439
0.203603
0.222604
0.206274
0.199179
0.204242
0.23231
0.202057
0.22196
0.202065
0.198238
0.199786
0.201448
0.222387
0.198922
0.227133
0.203456
0.232104
0.197428
0.198229
0.197705
0.197605
0.212542
0.201344
0.202837
0.202225
0.203641
0.22727
0.205107
0.200426
0.199482
0.199806
0.204569
0.1991
0.207891
0.225293
0.209039
0.201337
0.199843
0.233103
0.198101
0.198367
0.203798
0.199454
0.198602
0.206504
0.197755
0.216103
0.201849
0.199226
0.230433
0.204356
0.202131
0.222586
0.226627
0.226304
0.21304
0.229316
0.204909
0.195291
0.212235
0.201076
0.225775
0.198975
0.197389
0.203235
0.200146
0.208323
0.199463
0.204951
0.20839
0.197154
0.202163
0.225841
0.203193
0.199017
0.197994
0.201757
0.197647
0.204473
0.201287
0.201226
0.198914
0.201412
0.223993
0.20535
0.233993
0.214153
0.203486
0.227686
0.23369
0.210623
0.200331
0.199538
0.22551
0.201499
0.214103
0.202876
0.201743
0.186836
0.203536
0.23328
0.203721
0.198
0.198048
0.1997
0.208453
0.226444
0.20268
0.201836
0.198559
0.230412
0.22666
0.203439
0.22708
0.221313
0.202921
0.230546
0.208539
0.218584
0.203016
0.225701
0.197267
0.199032
0.198526
0.198508
0.218425
0.198001
0.198476
0.203086
0.200726
0.202023
0.197735
0.202617
0.21366
0.199487
0.197739
0.202891
0.211691
0.197182
0.202846
0.232973
0.233914
0.203229
0.200381
0.197281
0.205306
0.201866
0.203128
0.198881
0.203131
0.209194
0.206609
0.222813
0.203375
0.204597
0.198054
0.221585
0.218652
0.219733
0.204913
0.203123
0.23245
0.202545
0.21425
0.201115
0.206617
0.198291
0.207772
0.224196
0.200704
0.19658
0.219187
0.199072
0.192105
0.195122
0.20431
0.166505
0.219896
0.203025
0.203215
0.222855
0.224074
0.202849
0.202146
0.201257
0.219702
0.207417
0.198387
0.203504
0.224996
0.216983
0.202569
0.197667
0.227149
0.234323
0.200213
0.228391
0.201611
0.198142
0.226917
0.202491
0.202192
0.208542
0.230877
0.19787
0.208408
0.221944
0.197738
0.201329
0.204153
0.199284
0.232841
0.212621
0.20478
0.210688
0.220023
0.21129
0.204291
0.197893
0.199783
0.199492
0.197749
0.199466
0.215227
0.198777
0.199619
0.200046
0.21839
0.202743
0.20481
0.197759
0.223108
0.233095
0.196951
0.217339
0.196746
0.205061
0.223035
0.204365
0.198458
0.206713
0.202463
0.22605
0.19881
0.202284
0.233073
0.198465
0.199425
0.173708
0.225167
0.225249
0.211968
0.201807
0.203648
0.205125
0.202252
0.198908
0.203776
0.205043
0.225798
0.196737
0.231056
0.202122
0.209524
0.204164
0.197785
0.201867
0.217671
0.228381
0.2273
0.208666
0.198047
0.216542
0.197175
0.209754
0.198144
0.225105
0.204997
0.200683
0.196045
0.198403
0.19781
0.20161
0.205659
0.197432
0.198283
0.199325
0.218379
0.198751
0.223732
0.199442
0.206958
0.204374
0.22179
0.204605
0.23267
0.197562
0.206978
0.199194
0.203468
0.204959
0.222151
0.188655
0.226959
0.237905
0.224726
0.222351
0.224887
0.205932
0.23146
0.197524
0.203732
0.23457
0.199235
0.224359
0.211035
0.203624
0.209492
0.201889
0.19705
0.195647
0.199872
0.206275
0.200977
0.210887
0.209083
0.228044
0.202725
0.197687
0.203854
0.200328
0.199009
0.226323
0.198873
0.199083
0.199098
0.19871
0.199059
0.201772
0.197918
0.197504
0.204613
0.199561
0.199455
0.222578
0.199094
0.210886
0.203967
0.20376
0.202156
0.213316
0.199289
0.203945
0.203809
0.209175
0.223875
0.197403
0.203914
0.212254
0.227344
0.198868
0.227711
0.196792
0.201596
0.204348
0.203383
0.19734
0.201357
0.228502
0.201618
0.210967
0.206768
0.220514
0.198228
0.199044
0.205595
0.204345
0.203842
0.202854
0.210586
0.20608
0.230829
0.198381
0.202436
0.197159
0.220147
0.202351
0.201497
0.204734
0.213676
0.20053
0.198666
0.205497
0.22862
0.229799
0.203979
0.229297
0.217592
0.204123
0.202533
0.197198
0.229857
0.202957
0.197796
0.220953
0.225291
0.200413
0.221367
0.205277
0.221584
0.200814
0.216382
0.212194
0.19825
0.229385
0.204573
0.204419
0.199246
0.199593
0.19678
0.225177
0.198653
0.200482
0.211676
0.197353
0.199853
0.203363
0.191971
0.20214
0.199509
0.197865
0.199155
0.200109
0.208926
0.202429
0.202339
0.223481
0.204213
0.203318
0.19856
0.201706
0.205815
0.197412
0.199037
0.201273
0.200188
0.198328
0.199596
0.202389
0.225939
0.20801
0.198739
0.235657
0.205157
0.20505
0.209411
0.205335
0.197426
0.199826
0.197869
0.205632
0.200667
0.202582
0.200932
0.202733
0.211109
0.225236
0.199234
0.228474
0.207032
0.20839
0.205469
0.202504
0.196733
0.226372
0.199766
0.222149
0.200895
0.212677
0.204358
0.204763
0.197237
0.225273
0.198815
0.198386
0.203056
0.204896
0.20527
0.23202
0.198526
0.200605
0.201932
0.197678
0.197746
0.201122
0.206606
0.199269
0.220285
0.208321
0.19764
0.225491
0.217998
0.199163
0.197704
0.211671
0.209341
0.2072
0.213802
0.203739
0.217105
0.199125
0.200496
0.235833
0.20385
0.196697
0.20162
0.203322
0.201731
0.198351
0.221466
0.221455
0.196287
0.198507
0.202107
0.219943
0.199174
0.199208
0.219374
0.200532
0.198148
0.198527
0.20272
0.19859
0.205132
0.200414
0.202026
0.210506
0.224591
0.202121
0.201662
0.219558
0.197428
0.229285
0.205549
0.207093
0.225117
0.206223
0.210181
0.20059
0.205485
0.200871
0.227814
0.228822
0.207536
0.225006
0.205021
0.197696
0.204288
0.198509
0.210806
0.202856
0.200733
0.210807
0.207142
0.202292
0.203688
0.20436
0.222647
0.203903
0.20176
0.196529
0.197617
0.229831
0.226175
0.204062
0.197289
0.216606
0.205947
0.204718
0.202719
0.1985
0.207571
0.204417
0.204605
0.224539
0.198662
0.202883
0.223118
0.21464
0.201942
0.210882
0.198582
0.199439
0.205737
0.223173
0.198213
0.225131
0.206974
0.202898
0.21578
0.200978
0.229128
0.203244
0.201052
0.205412
0.233079
0.225782
0.197023
0.199722
0.211222
0.197073
0.203534
0.203109
0.228018
0.221965
0.205028
0.205076
0.204551
0.198571
0.196434
0.200145
0.196702
0.203723
0.204831
0.199211
0.22868
0.201697
0.200292
0.20174
0.204219
0.200552
0.209915
0.197482
0.205566
0.231685
0.198066
0.217246
0.198536
0.210345
0.197022
0.224996
0.199947
0.197893
0.205491
0.202602
0.22945
0.197895
0.199072
0.198183
0.225954
0.196591
0.205646
0.1984
0.201226
0.200028
0.199748
0.202544
0.210872
0.200827
0.224151
0.224899
0.225589
0.216085
0.20268
0.227684
0.197893
0.199412
0.202847
0.206442
0.20349
0.203781
0.200007
0.203499
0.210468
0.198763
0.204776
0.212802
0.197646
0.201896
0.205151
0.200071
0.21311
0.199675
0.199032
0.197104
0.199911
0.199982
0.212352
0.198576
0.205694
0.204058
0.203471
0.203014
0.197079
0.202835
0.199611
0.20927
0.204977
0.201643
0.223141
0.231076
0.200084
0.213182
0.2012
0.211748
0.227929
0.204555
0.199332
0.217731
0.211156
0.202494
0.197606
0.198755
0.20489
0.221195
0.203857
0.203958
0.210227
0.203545
0.203814
0.233043
0.213864
0.213205
0.203463
0.20164
0.204335
0.201099
0.202892
0.203733
0.204458
0.218855
0.213687
0.235042
0.203547
0.203094
0.200089
0.198076
0.197018
0.225872
0.202667
0.209856
0.203926
0.202168
0.198951
0.227671
0.195895
0.224482
0.202172
0.204235
0.205262
0.20077
0.209761
0.203871
0.218903
0.204951
0.20886
0.202088
0.210592
0.22418
0.198044
0.200756
0.203377
0.199553
0.199709
0.223559
0.210629
0.20551
0.220532
0.198558
0.201027
0.197455
0.197112
0.197313
0.225378
0.228289
0.222831
0.198012
0.229281
0.198431
0.202262
0.221967
0.210731
0.200658
0.198927
0.214121
0.21075
0.204179
0.202311
0.199967
0.204423
0.219667
0.204128
0.20166
0.200351
0.201715
0.198025
0.197677
0.197885
0.202672
0.22494
0.229417
0.203766
0.21319
0.201769
0.230946
0.200829
0.205278
0.197001
0.22352
0.203974
0.200706
0.204171
0.211391
0.224772
0.199599
0.217642
0.202707
0.205234
0.196846
0.196214
0.203189
0.230768
0.226821
0.205023
0.20636
0.21017
0.200524
0.228968
0.191145
0.19954
0.21217
0.200368
0.195057
0.200686
0.197375
0.199179
0.202903
0.202314
0.229961
0.210528
0.198167
0.224725
0.201105
0.206104
0.218894
0.202716
0.180759
0.203795
0.19908
0.19915
0.22857
0.205305
0.20376
0.225102
0.21033
0.203868
0.209142
0.200772
0.222394
0.223432
0.204401
0.20918
0.196435
0.198012
0.197371
0.203307
0.203026
0.202025
0.202108
0.197973
0.2193
0.20291
0.20661
0.198695
0.202344
0.2111
0.20684
0.200937
0.226622
0.204705
0.199444
0.205534
0.238735
0.204906
0.228166
0.202159
0.233145
0.200283
0.198638
0.202434
0.202162
0.219487
0.223202
0.199596
0.200723
0.201604
0.203016
0.210695
0.198222
0.20012
0.1989
0.226567
0.21388
0.199743
0.199996
0.205189
0.204459
0.226042
0.199974
0.198633
0.201457
0.202244
0.20187
0.203149
0.198007
0.200397
0.222142
0.203439
0.201166
0.203712
0.204348
0.20185
0.233935
0.217056
0.198529
0.201371
0.201099
0.200211
0.200771
0.197893
0.202904
0.205215
0.199794
0.198846
0.212547
0.207922
0.204303
0.20309
0.199201
0.231353
0.203567
0.225531
0.198865
0.226356
0.223345
0.202383
0.229816
0.211331
0.201948
0.198272
0.198176
0.211943
0.20744
0.196143
0.218232
0.221407
0.210852
0.214971
0.198403
0.201484
0.20337
0.227527
0.201494
0.19877
0.197733
0.223791
0.221084
0.205188
0.202153
0.200828
0.216793
0.22361
0.206397
0.210487
0.197494
0.200375
0.229438
0.201957
0.200501
0.222288
0.232419
0.198782
0.216978
0.218003
0.196956
0.201055
0.197546
0.197422
0.200812
0.209848
0.198923
0.212641
0.197385
0.212459
0.196985
0.199927
0.203383
0.223691
0.197441
0.196176
0.207355
0.204285
0.203885
0.218237
0.175153
0.202028
0.208462
0.196687
0.209459
0.193809
0.225265
0.199891
0.198938
0.228581
0.199344
0.204729
0.234659
0.224624
0.203221
0.202183
0.20027
0.211411
0.222324
0.198445
0.198911
0.199519
0.20209
0.196485
0.225968
0.199686
0.204036
0.224726
0.224177
0.239387
0.219991
0.198694
0.211043
0.203714
0.199648
0.213177
0.211416
0.23123
0.231127
0.198082
0.198145
0.222411
0.200051
0.202536
0.224548
0.205741
0.206604
0.220274
0.207757
0.195811
0.22091
0.231863
0.196896
0.199507
0.216561
0.201214
0.21386
0.217408
0.224214
0.200676
0.2207
0.226623
0.204164
0.19779
0.204926
0.203525
0.199829
0.204367
0.196119
0.178609
0.201208
0.223301
0.197274
0.200043
0.203068
0.211574
0.201845
0.220377
0.200494
0.203822
0.209817
0.226469
0.229011
0.235403
0.210829
0.225453
0.206789
0.220681
0.209
0.198034
0.200297
0.208482
0.202275
0.202436
0.205964
0.198339
0.230231
0.203022
0.197274
0.197165
0.203657
0.196901
0.218089
0.20394
0.204863
0.226335
0.202952
0.19679
0.198942
0.19362
0.199788
0.203807
0.23253
0.226418
0.204207
0.197619
0.20447
0.197886
0.211724
0.208673
0.220323
0.228673
0.228103
0.231809
0.200432
0.202915
0.194371
0.203924
0.209424
0.199039
0.232626
0.199098
0.201482
0.199227
0.20527
0.203981
0.198749
0.198192
0.199819
0.183519
0.205923
0.199723
0.197331
0.199923
0.198898
0.201663
0.197975
0.200448
0.213711
0.200369
0.200833
0.198998
0.200032
0.228104
0.197527
0.199717
0.200584
0.197673
0.22458
0.234341
0.203813
0.200526
0.212624
0.199176
0.197364
0.196445
0.196563
0.21105
0.201695
0.20498
0.2002
0.230342
0.229899
0.206392
0.202558
0.221113
0.198866
0.224196
0.207847
0.204212
0.20265
0.208962
0.196236
0.203121
0.201768
0.201894
0.201391
0.202513
0.211366
0.232597
0.198515
0.238697
0.236452
0.17968
0.224987
0.229601
0.206474
0.204331
0.223391
0.211163
0.23726
0.222101
0.200837
0.201219
0.228372
0.228354
0.198319
0.228138
0.202264
0.197741
0.206876
0.199049
0.220536
0.224581
0.207109
0.199931
0.218539
0.223555
0.206528
0.21375
0.202895
0.203099
0.226994
0.199588
0.228604
0.228695
0.208475
0.199891
0.212752
0.210157
0.208925
0.198032
0.23168
0.220249
0.205262
0.191792
0.200732
0.230895
0.234455
0.208685
0.195712
0.202866
0.205398
0.205475
0.201416
0.201875
0.222315
0.197617
0.212515
0.223871
0.233802
0.197958
0.202776
0.197808
0.201462
0.199076
0.224942
0.208462
0.231353
0.241182
0.204176
0.224299
0.212859
0.203027
0.182257
0.225348
0.198158
0.199608
0.197344
0.201617
0.241883
0.201901
0.226574
0.199035
0.227921
0.197959
0.235152
0.203808
0.206343
0.213675
0.210324
0.233144
0.214353
0.202327
0.198947
0.200747
0.200026
0.199187
0.226106
0.198225
0.171592
0.202562
0.201202
0.199745
0.201317
0.192103
0.199832
0.208459
0.212098
0.21201
0.199214
0.19893
0.212084
0.216051
0.201941
0.206717
0.199828
0.193524
0.202264
0.205586
0.204921
0.197581
0.198723
0.198912
0.206494
0.199828
0.202314
0.189077
0.202084
0.210628
0.200779
0.205066
0.196698
0.220776
0.221473
0.203007
0.193366
0.195602
0.190223
0.198468
0.202693
0.199713
0.220984
0.211624
0.198626
0.19947
0.198403
0.197462
0.2104
0.196313
0.223262
0.197471
0.211584
0.202914
0.208842
0.203259
0.201397
0.198911
0.224691
0.199437
0.196126
0.205359
0.222069
0.198191
0.197449
0.19912
0.202691
0.202681
0.202085
0.224971
0.197041
0.209222
0.203018
0.215631
0.213077
0.220433
0.228643
0.211624
0.198966
0.205025
0.221374
0.206759
0.226186
0.204712
0.204164
0.232996
0.223958
0.214672
0.204017
0.201894
0.210021
0.183615
0.207837
0.183482
0.215901
0.196938
0.198061
0.199632
0.188
0.204577
0.229575
0.221175
0.200718
0.212524
0.208331
0.199161
0.196976
0.201643
0.195135
0.229323
0.191448
0.197926
0.20795
0.19554
0.195144
0.202631
0.195239
0.197415
0.211506
0.222241
0.204941
0.2276
0.232013
0.206828
0.204045
0.203977
0.203072
0.202792
0.202042
0.23492
0.210969
0.195
0.199713
0.228575
0.207639
0.216468
0.203044
0.198084
0.209897
0.201131
0.199432
0.200647
0.228587
0.199105
0.227781
0.196144
0.198408
0.200714
0.196019
0.201929
0.19651
0.225029
0.192602
0.198612
0.214706
0.199922
0.205092
0.210294
0.200011
0.206028
0.199314
0.198218
0.19547
0.20225
0.197494
0.206017
0.19736
0.220372
0.204461
0.226329
0.225782
0.20393
0.203109
0.203506
0.199837
0.192887
0.198301
0.228092
0.20116
0.197889
0.20338
0.196938
0.22415
0.230945
0.204033
0.231214
0.197715
0.201471
0.232812
0.206617
0.200285
0.20468
0.226544
0.217265
0.230512
0.198631
0.230845
0.2001
0.202393
0.22988
0.200535
0.19935
0.198688
0.19709
0.217539
0.19851
0.199718
0.21831
0.201303
0.197853
0.202559
0.221731
0.19336
0.204117
0.197628
0.20986
0.201638
0.208459
0.209037
0.210485
0.209257
0.191559
0.199524
0.198785
0.216106
0.204262
0.201606
0.196358
0.201286
0.232146
0.196653
0.218686
0.201195
0.197684
0.195197
0.210757
0.202126
0.201458
0.203459
0.201738
0.206934
0.225578
0.223482
0.20392
0.198771
0.184481
0.211177
0.197709
0.223152
0.201914
0.226942
0.199678
0.198265
0.199929
0.225826
0.198887
0.224444
0.201862
0.202833
0.215661
0.201882
0.217654
0.212586
0.200897
0.225124
0.212546
0.204306
0.234384
0.203428
0.199336
0.234391
0.21249
0.191443
0.206357
0.20427
0.198158
0.200051
0.196557
0.213677
0.228858
0.232742
0.164057
0.197054
0.188888
0.199133
0.200257
0.222118
0.222172
0.203195
0.202008
0.231648
0.201917
0.200582
0.211756
0.198435
0.205762
0.19517
0.218911
0.207247
0.199777
0.239129
0.196753
0.188818
0.198987
0.197561
0.198407
0.203569
0.228061
0.198826
0.201463
0.200635
0.198545
0.193
0.196221
0.200523
0.202468
0.19666
0.204065
0.200692
0.223823
0.206374
0.196889
0.187241
0.198708
0.203201
0.20401
0.197477
0.223195
0.19865
0.223988
0.200078
0.201005
0.20745
0.200279
0.209947
0.206027
0.197193
0.207147
0.188842
0.183675
0.19997
0.229146
0.203106
0.203061
0.213789
0.19795
0.202567
0.198698
0.197869
0.226279
0.198673
0.199014
0.19732
0.205368
0.203339
0.230743
0.220428
0.192758
0.224591
0.200194
0.200005
0.220015
0.204516
0.195802
0.212544
0.213718
0.215598
0.209439
0.206855
0.193262
0.210353
0.196249
0.188963
0.198973
0.2289
0.200469
0.198733
0.196919
0.22277
0.2141
0.205096
0.167431
0.223058
0.202785
0.205875
0.199119
0.191963
0.199006
0.199932
0.205153
0.199259
0.203262
0.20875
0.210383
0.198063
0.199679
0.203837
0.192069
0.19575
0.219319
0.226526
0.205239
0.17677
0.20239
0.197779
0.20037
0.196612
0.200195
0.190651
0.200486
0.195458
0.217856
0.206629
0.208494
0.195469
0.200468
0.196254
0.200094
0.204273
0.207012
0.200516
0.20199
0.202453
0.197342
0.202693
0.212075
0.211811
0.220783
0.207661
0.200887
0.221483
0.198387
0.206046
0.198133
0.203224
0.198863
0.201349
0.190411
0.189746
0.20265
0.203049
0.19751
0.211313
0.227008
0.201988
0.206676
0.201045
0.203075
0.203167
0.197823
0.203595
0.229773
0.213008
0.225632
0.201457
0.204548
0.222744
0.197945
0.206322
0.209518
0.201157
0.216675
0.22038
0.197178
0.218382
0.223648
0.168404
0.176288
0.199972
0.215978
0.199869
0.199736
0.21309
0.200529
0.195168
0.192283
0.198527
0.228466
0.19819
0.178095
0.194789
0.219035
0.217774
0.197097
0.228597
0.210886
0.20601
0.1989
0.196041
0.196154
0.208127
0.205159
0.185561
0.20413
0.203175
0.198773
0.206728
0.221857
0.190371
0.20355
0.194081
0.165951
0.220992
0.202808
0.227622
0.224703
0.202952
0.197315
0.210278
0.205483
0.19829
0.195108
0.200991
0.192925
0.232013
0.195835
0.226953
0.19947
0.224355
0.20205
0.196042
0.197683
0.223683
0.207942
0.197757
0.198272
0.20267
0.194292
0.205665
0.199446
0.203827
0.22347
0.203276
0.212757
0.190928
0.193835
0.198705
0.205939
0.197066
0.206423
0.210996
0.22462
0.196152
0.196078
0.232781
0.199798
0.203371
0.201501
0.222836
0.202469
0.208183
0.202634
0.184307
0.209425
0.202894
0.236972
0.201574
0.227661
0.22338
0.204754
0.199677
0.23069
0.200454
0.20086
0.172341
0.232274
0.193352
0.197495
0.236086
0.204896
0.237111
0.228947
0.199298
0.198185
0.205583
0.190402
0.199663
0.20285
0.21039
0.191261
0.20454
0.204329
0.207806
0.193845
0.221592
0.187535
0.207676
0.208639
0.199459
0.196253
0.204269
0.198602
0.205803
0.195543
0.199398
0.206818
0.204065
0.199138
0.205327
0.204313
0.19836
0.19963
0.20167
0.181722
0.18766
0.194228
0.205797
0.213566
0.190731
0.192602
0.214364
0.202131
0.185423
0.22413
0.222102
0.194213
0.198935
0.205488
0.199678
0.198016
0.217611
0.200807
0.201913
0.218456
0.209827
0.225649
0.191918
0.202741
0.202764
0.197371
0.225542
0.204547
0.202534
0.198717
0.195389
0.172551
0.203538
0.200203
0.199196
0.188931
0.201817
0.179497
0.195303
0.196473
0.214576
0.233027
0.212076
0.193688
0.199782
0.218102
0.214085
0.199846
0.20045
0.203974
0.210628
0.23635
0.214477
0.214363
0.203462
0.206128
0.204675
0.199112
0.195486
0.180165
0.199752
0.196249
0.203906
0.211155
0.199857
0.187416
0.222403
0.211915
0.202943
0.179675
0.1834
0.20093
0.20416
0.195977
0.229093
0.207139
0.202132
0.188705
0.189203
0.193233
0.196708
0.199427
0.197074
0.202931
0.207674
0.193849
0.196983
0.198675
0.200155
0.19646
0.19554
0.22224
0.212958
0.230206
0.205548
0.183287
0.207922
0.221075
0.200282
0.21335
0.214896
0.206751
0.194808
0.204906
0.190809
0.202817
0.205661
0.194053
0.221821
0.194517
0.218901
0.200617
0.190806
0.204611
0.204089
0.197014
0.190379
0.21778
0.217833
0.208847
0.209198
0.205153
0.175431
0.201038
0.208988
0.195755
0.205647
0.211596
0.212521
0.176446
0.197618
0.203112
0.233435
0.224335
0.210652
0.191753
0.197342
0.219549
0.174786
0.196074
0.227065
0.198917
0.201
0.198226
0.226957
0.198458
0.219066
0.217068
0.223035
0.194698
0.204498
0.205447
0.199599
0.200625
0.202514
0.22306
0.236871
0.199378
0.205283
0.200788
0.192917
0.220959
0.195928
0.209549
0.183019
0.203448
0.211855
0.213336
0.199194
0.195832
0.215718
0.221781
0.186984
0.191999
0.194806
0.20934
0.219447
0.22371
0.197468
0.201476
0.189234
0.193028
0.209301
0.201867
0.195017
0.187899
0.203687
0.195294
0.208494
0.201747
0.190512
0.197846
0.208207
0.185989
0.200732
0.190258
0.183345
0.19479
0.196651
0.20615
0.192254
0.196437
0.178644
0.216517
0.222066
0.198211
0.213938
0.210007
0.202464
0.185235
0.198611
0.184639
0.223079
0.221062
0.19856
0.17216
0.198546
0.225268
0.212565
0.200629
0.221709
0.200841
0.209144
0.233444
0.205174
0.196616
0.198685
0.199716
0.196594
0.197752
0.197765
0.196417
0.198382
0.204784
0.19312
0.209634
0.197045
0.192449
0.200081
0.198963
0.201828
0.183862
0.200052
0.199696
0.203404
0.211462
0.205205
0.229844
0.194094
0.20124
0.200419
0.198239
0.187232
0.204577
0.228962
0.199879
0.208691
0.210858
0.181743
0.225048
0.195915
0.205892
0.198128
0.200054
0.186156
0.223736
0.205896
0.190744
0.218826
0.19102
0.194147
0.181405
0.203672
0.214442
0.212678
0.185505
0.180594
0.182952
0.219043
0.205674
0.182636
0.197244
0.224902
0.202361
0.19261
0.192881
0.185481
0.201243
0.189257
0.206472
0.203399
0.191117
0.190466
0.215008
0.214151
0.200572
0.209649
0.227256
0.176503
0.197906
0.218309
0.207341
0.220824
0.198514
0.197595
0.202136
0.170439
0.199287
0.199673
0.202219
0.197171
0.203127
0.200997
0.190765
0.206839
0.204642
0.194599
0.204609
0.210983
0.211325
0.199678
0.180162
0.214841
0.183316
0.1883
0.193158
0.184169
0.198916
0.200226
0.199583
0.204788
0.20161
0.188439
0.182782
0.163434
0.202987
0.192419
0.207838
0.210856
0.222581
0.193146
0.197193
0.198203
0.188068
0.186776
0.191096
0.19667
0.214146
0.204777
0.202894
0.183613
0.222725
0.21489
0.222812
0.186144
0.196311
0.179985
0.170836
0.203302
0.181122
0.227748
0.201972
0.225183
0.218626
0.185353
0.215206
0.2152
0.18291
0.175633
0.197767
0.226243
0.200019
0.202096
0.206698
0.193064
0.194827
0.182495
0.185632
0.224187
0.211346
0.202501
0.207771
0.196384
0.205985
0.188231
0.208767
0.202225
0.202826
0.189983
0.166145
0.166064
0.18814
0.195108
0.196955
0.204397
0.191847
0.22278
0.200057
0.206407
0.184674
0.226516
0.193008
0.188811
0.203074
0.226332
0.182702
0.198483
0.164265
0.182346
0.169528
0.199357
0.222155
0.214409
0.192993
0.214545
0.193545
0.22325
0.168976
0.198924
0.21329
0.199711
0.180276
0.233734
0.181663
0.196503
0.177226
0.199572
0.199115
0.186888
0.233381
0.189254
0.205149
0.195076
0.198477
0.202606
0.184373
0.214118
0.226888
0.192247
0.227026
0.175352
0.226546
0.216359
0.185349
0.202088
0.199893
0.20568
0.178768
0.218867
0.197536
0.182606
0.193215
0.219109
0.204472
0.195613
0.17456
0.194792
0.202937
0.197343
0.200506
0.194011
0.1963
0.219566
0.196136
0.201207
0.213456
0.171026
0.187402
0.196379
0.206684
0.200853
0.176301
0.193396
0.187471
0.187191
0.170231
0.163952
0.163749
0.200151
0.208404
0.200475
0.197665
0.214501
0.205795
0.200528
0.204259
0.192625
0.192415
0.200632
0.189254
0.200231
0.222337
0.223279
0.187789
0.200373
0.196434
0.187549
0.203395
0.194607
0.2147
0.18419
0.202773
0.187796
0.190084
0.183746
0.218153
0.182573
0.199664
0.185078
0.191631
0.178497
0.177337
0.195054
0.219835
0.178696
0.228292
0.205466
0.215432
0.171059
0.202693
0.188437
0.187218
0.188333
0.203881
0.195045
0.160934
0.191124
0.177644
0.201943
0.209895
0.204021
0.185045
0.199613
0.198225
0.195847
0.180234
0.188702
0.194572
0.190197
0.17057
0.167583
0.199648
0.177504
0.174587
0.184469
0.194867
0.198607
0.189753
0.178146
0.179413
0.205471
0.187772
0.176163
0.164787
0.193974
0.186537
0.207887
0.215381
0.199091
0.20844
0.189121
0.188226
0.181741
0.165139
0.164061
0.198663
0.211591
0.1912
0.200301
0.195736
0.19451
0.189356
0.174529
0.180827
0.221779
0.194316
0.210725
0.172919
0.20056
0.200962
0.219631
0.220344
0.187769
0.177814
0.178786
0.206787
0.192736
0.198944
0.199332
0.179092
0.179718
0.230243
0.180279
0.162556
0.179069
0.190669
0.181716
0.192825
0.179965
0.190813
0.191077
0.165928
0.21405
0.21281
0.193612
0.193765
0.181847
0.190238
0.196338
0.179716
0.222837
0.183237
0.199303
0.211155
0.186753
0.186937
0.200504
0.190003
0.190133
0.198164
0.209844
0.190467
0.197126
0.181846
0.186865
0.175487
0.185118
0.198369
0.191469
0.189667
0.19152
0.20425
0.180058
0.173232
0.175116
0.19972
0.216268
0.169107
0.190159
0.208234
0.204186
0.20475
0.218625
0.173635
0.186206
0.181306
0.1764
0.203758
0.212576
0.209745
0.212386
0.191089
0.196504
0.189166
0.202095
0.183303
0.176898
0.19413
0.1727
0.220177
0.187435
0.191797
0.183127
0.18385
0.21518
0.179143
0.17276
0.180762
0.17657
0.205226
0.194777
0.183759
0.171135
0.183617
0.170936
0.196759
0.205231
0.206207
0.198978
0.185839
0.205068
0.202463
0.221309
0.189845
0.197557
0.179579
0.197488
0.187672
0.18196
0.183491
0.220997
0.181928
0.197953
0.182399
0.195648
0.161301
0.166284
0.179121
0.194098
0.182383
0.17583
0.187361
0.207343
0.198569
0.19134
0.190447
0.20459
0.197216
0.196278
0.173145
0.181081
0.199389
0.177161
0.21151
0.181824
0.169828
0.203939
0.180512
0.193869
0.184251
0.178927
0.177746
0.17334
0.212099
0.210676
0.199553
0.185369
0.181344
0.182534
0.180726
0.193055
0.180488
0.196406
0.180151
0.206658
0.17049
0.20772
0.182835
0.179892
0.201926
0.199553
0.186014
0.189885
0.164848
0.180616
0.182079
0.170591
0.182973
0.195864
0.213867
0.20729
0.204073
0.18718
0.186843
0.179669
0.177476
0.19143
0.194805
0.217411
0.190852
0.190481
0.202283
0.174885
0.181768
0.216744
0.212525
0.225103
0.199037
0.16438
0.174051
0.224059
0.195368
0.179062
0.196779
0.215322
0.221468
0.183357
0.18314
0.19798
0.173403
0.161287
0.204265
0.162879
0.206367
0.180744
0.171122
0.194529
0.178704
0.206291
0.202675
0.168958
0.168696
0.196883
0.173955
0.185078
0.169509
0.177317
0.185628
0.207693
0.174563
0.186791
0.210025
0.187607
0.185397
0.173261
0.196551
0.188383
0.185365
0.174633
0.182906
0.192016
0.195571
0.183924
0.210377
0.183099
0.199359
0.169057
0.185544
0.178876
0.204124
0.186878
0.201703
0.217132
0.185324
0.210905
0.200128
0.188946
0.19601
0.174582
0.180025
0.188978
0.188412
0.199296
0.18374
0.179308
0.1969
0.180522
0.176712
0.169585
0.184681
0.185322
0.204426
0.168527
0.187952
0.200237
0.172992
0.171709
0.205972
0.173137
0.186351
0.185316
0.183883
0.16272
0.166367
0.183982
0.177836
0.194929
0.183693
0.192337
0.169697
0.189097
0.19524
0.184785
0.173733
0.187726
0.212222
0.188483
0.184915
0.205467
0.162203
0.166417
0.191038
0.159586
0.216676
0.19331
0.190451
0.194756
0.185958
0.173507
0.213615
0.198988
0.169789
0.201247
0.193361
0.181904
0.189346
0.179147
0.175309
0.181763
0.197079
0.213332
0.1713
0.201572
0.189107
0.171608
0.22115
0.174299
0.167614
0.172049
0.180985
0.183811
0.18241
0.192514
0.195021
0.197352
0.176751
0.178126
0.172335
0.204295
0.17653
0.160941
0.175685
0.175383
0.170073
0.190277
0.177518
0.196334
0.205084
0.185529
0.203951
0.188182
0.199125
0.194177
0.186082
0.212392
0.201001
0.172257
0.171117
0.189441
0.164342
0.159617
0.168303
0.194895
0.164829
0.1615
0.18411
0.195994
0.195987
0.197705
0.174279
0.165099
0.184828
0.181051
0.171836
0.195356
0.177417
0.199405
0.172016
0.166495
0.171434
0.169907
0.22356
0.18116
0.193867
0.195049
0.192466
0.183565
0.174547
0.191223
0.169814
0.180472
0.199126
0.173359
0.196841
0.163058
0.161499
0.188792
0.178731
0.180431
0.17714
0.192688
0.189283
0.210335
0.222343
0.204245
0.168729
0.161572
0.178049
0.179327
0.162925
0.16192
0.1662
0.180401
0.190465
0.200775
0.191728
0.183408
0.199242
0.160951
0.175793
0.180896
0.196051
0.192319
0.171613
0.180716
0.18091
0.194242
0.203843
0.173688
0.175484
0.19743
0.212185
0.204866
0.180233
0.198783
0.189902
0.192015
0.202972
0.197461