/*--------------------------------*- C++ -*----------------------------------*\
| =========                 |                                                 |
| \\      /  F ield         | OpenFOAM: The Open Source CFD Toolbox           |
|  \\    /   O peration     | Version:  2212                                  |
|   \\  /    A nd           | Website:  www.openfoam.com                      |
|    \\/     M anipulation  |                                                 |
\*---------------------------------------------------------------------------*/
FoamFile
{
    version     2.0;
    format      ascii;
    arch        "LSB;label=32;scalar=64";
    class       volScalarField;
    location    "0.06";
    object      k;
}
// * * * * * * * * * * * * * * * * * * * * * * * * * * * * * * * * * * * * * //

dimensions      [0 2 -2 0 0 0 0];

internalField   nonuniform List<scalar> 
31639
(
0.00803018
0.00793544
0.00800659
0.00826393
0.00798038
0.00788817
0.0078292
0.0080906
0.00798712
0.00817195
0.00814198
0.00816522
0.00798685
0.00819891
0.00781185
0.00772084
0.00808761
0.00786293
0.00764882
0.00803741
0.00729671
0.00819493
0.00820145
0.00764306
0.00763522
0.00796285
0.00799224
0.00656234
0.00782665
0.00824545
0.00817038
0.00777945
0.00820537
0.00761054
0.00747712
0.00822618
0.00706959
0.00835276
0.00821793
0.00707874
0.00740571
0.00750507
0.00813253
0.00818364
0.0081292
0.0081719
0.0078503
0.00784249
0.00807288
0.00823869
0.00816981
0.00708475
0.00821755
0.0072701
0.00778012
0.00803588
0.0073102
0.00800247
0.00789768
0.00731554
0.00794623
0.00818822
0.00770378
0.00799632
0.00799078
0.0082529
0.00790674
0.00795934
0.00761776
0.00823043
0.00815077
0.00768306
0.00809491
0.00799953
0.00813833
0.00752127
0.00811785
0.00783332
0.00779978
0.00805071
0.00769287
0.00701347
0.00821926
0.00802367
0.00801423
0.0081505
0.00821745
0.0081922
0.007552
0.00826021
0.0080173
0.00802636
0.00734322
0.00784716
0.00752614
0.00789486
0.00781571
0.00797553
0.00800112
0.00736265
0.00817167
0.00810364
0.0078397
0.0072663
0.00729962
0.00818522
0.00731018
0.00716735
0.00752367
0.00728391
0.00811064
0.00738924
0.00789353
0.00775339
0.00796423
0.00723987
0.00791835
0.00797592
0.00807363
0.00790316
0.00814596
0.00813029
0.00812711
0.00798869
0.00803001
0.00820082
0.00798007
0.00756629
0.00745916
0.00808714
0.00814159
0.00813102
0.00818771
0.00785124
0.00813149
0.0079518
0.00731653
0.00718576
0.00812021
0.00797181
0.00796738
0.00813732
0.00816699
0.00721644
0.0071258
0.00819131
0.00806528
0.00742469
0.00742965
0.00813499
0.0076663
0.00817057
0.00766807
0.00806939
0.00758495
0.00824855
0.00794005
0.00754573
0.007502
0.00766131
0.00820746
0.0076141
0.00768834
0.00733409
0.00742575
0.00788576
0.00757479
0.00826713
0.00815808
0.00722719
0.00782744
0.00773564
0.00744874
0.00795224
0.00826248
0.00803224
0.0080033
0.00825819
0.00795549
0.00795397
0.00782832
0.0078628
0.00777608
0.00711177
0.00801659
0.0083081
0.00794717
0.00824298
0.00742745
0.0074284
0.00845846
0.00813193
0.00810438
0.00792103
0.00799325
0.00785338
0.00783593
0.00809974
0.00728296
0.00781036
0.00821683
0.00827903
0.00811879
0.00805292
0.00794893
0.00788339
0.0078959
0.007753
0.00821475
0.00711404
0.00793314
0.00786134
0.00805266
0.00816112
0.00823883
0.00820531
0.00745885
0.00770405
0.00820995
0.00806654
0.00803321
0.00794604
0.00728345
0.00793429
0.00733614
0.00782344
0.00814344
0.00776671
0.00744681
0.00807885
0.00803019
0.00828653
0.00754975
0.00744894
0.00806113
0.00807326
0.00727173
0.00823777
0.00769502
0.00729046
0.00784253
0.00806882
0.00793538
0.00778065
0.0077419
0.00810832
0.00783178
0.00778645
0.00745684
0.00789942
0.00780175
0.00751576
0.00779941
0.00826373
0.00811428
0.00780493
0.00751436
0.00808661
0.00812105
0.00810647
0.00823699
0.00818374
0.00794235
0.00819655
0.00783364
0.00788276
0.00718601
0.00763619
0.0081894
0.00779272
0.00782234
0.00777179
0.00798077
0.00838496
0.0082738
0.00811583
0.007368
0.00788341
0.00764551
0.00818753
0.00791974
0.00827428
0.00822881
0.00783684
0.00741261
0.00772023
0.00754258
0.00737793
0.00818184
0.00756679
0.00812651
0.00787822
0.00772097
0.00752258
0.0083356
0.00780427
0.0079055
0.0081859
0.00801963
0.00773301
0.00785868
0.00761286
0.00796871
0.0078698
0.00746178
0.00775646
0.00777237
0.00694963
0.00716577
0.00818451
0.00819448
0.00788244
0.00727547
0.00759101
0.0080981
0.00758643
0.00745878
0.008216
0.00838176
0.0078848
0.00817521
0.00823142
0.00748277
0.00812293
0.00727383
0.00728812
0.00829944
0.00818474
0.00819508
0.00826564
0.00812728
0.00751551
0.00791467
0.00788471
0.00821176
0.00830396
0.00829205
0.00788587
0.00776959
0.00815124
0.00807995
0.00798599
0.00785624
0.00786094
0.00782821
0.00793851
0.0080147
0.00787931
0.00748455
0.00803654
0.00823529
0.00780945
0.00815951
0.00822669
0.00793645
0.00746261
0.00792309
0.00790217
0.00727135
0.00840709
0.00759828
0.00803529
0.00798987
0.0072374
0.00794301
0.0079312
0.00736801
0.00796642
0.00750647
0.00794437
0.00823123
0.00810908
0.00717614
0.00799645
0.00751485
0.00801213
0.00816733
0.00824918
0.00823606
0.00759303
0.00813088
0.0073122
0.00784052
0.00732216
0.00822577
0.00811981
0.00818724
0.00814768
0.0075728
0.00827612
0.00790427
0.0081147
0.00788855
0.00771143
0.007899
0.00806413
0.00807376
0.00809501
0.00796808
0.00807678
0.00786741
0.00752955
0.00793685
0.00802553
0.00806221
0.00720377
0.00817414
0.00817153
0.00788964
0.00801138
0.0080542
0.00801197
0.00823911
0.00714081
0.00802316
0.00818409
0.00720318
0.00792734
0.0080475
0.00753586
0.00735649
0.00733979
0.00778986
0.00738624
0.0079014
0.00767502
0.00777777
0.0082511
0.00741852
0.00812684
0.00820999
0.00793234
0.00815366
0.00780533
0.00821817
0.00791156
0.0080656
0.00825761
0.00790138
0.00741693
0.00795974
0.00817902
0.00815929
0.00809158
0.00819651
0.0078502
0.00799008
0.00816946
0.00827614
0.00818189
0.00748727
0.00790905
0.00708138
0.00800821
0.00786219
0.00744113
0.00741987
0.00777173
0.00810905
0.00813512
0.0073633
0.00811012
0.00775916
0.0078982
0.00812446
0.00660933
0.00787984
0.00730649
0.00780861
0.00817514
0.00823776
0.00813366
0.00791599
0.00722462
0.00808996
0.00796075
0.00803707
0.00731958
0.0075198
0.00790098
0.00738225
0.00750043
0.00794796
0.00729443
0.00782754
0.0071022
0.00809802
0.00743856
0.00824565
0.00816141
0.00812986
0.00818892
0.00777879
0.00810678
0.0081808
0.00794462
0.0081491
0.00795234
0.00812613
0.00827171
0.00775751
0.00817422
0.00819564
0.00790976
0.00765098
0.0082583
0.00795849
0.0071986
0.00729006
0.00793973
0.00830821
0.00820135
0.00795753
0.00840757
0.00832502
0.00807511
0.00798466
0.00784715
0.00778471
0.00750055
0.00793776
0.00808316
0.00823087
0.00771735
0.0076222
0.00755674
0.00783894
0.00787206
0.00710922
0.00806612
0.00775337
0.00805661
0.00793103
0.0081638
0.00792887
0.00752979
0.00808221
0.00819379
0.00763374
0.00814147
0.00810335
0.00768042
0.00791798
0.00657511
0.00758819
0.00790922
0.00795355
0.00754264
0.00748002
0.0079607
0.00731987
0.00805808
0.00770861
0.00785742
0.00819348
0.00791761
0.00727088
0.00781204
0.00796253
0.00820763
0.00743714
0.00704274
0.00816847
0.00732154
0.0079941
0.00828235
0.00749192
0.00790987
0.00820484
0.00799177
0.00743376
0.00815443
0.0079955
0.00736047
0.00811785
0.00798146
0.00788778
0.00803443
0.00720073
0.00764362
0.00810178
0.00778449
0.00796205
0.00796049
0.00826127
0.00812564
0.0080374
0.00817063
0.00821201
0.00810521
0.00761755
0.00813007
0.00820942
0.00828001
0.00763181
0.00796915
0.0079723
0.00838449
0.00756359
0.00716946
0.0082134
0.00749772
0.00832647
0.0078505
0.0074731
0.00797643
0.00817705
0.00810033
0.00802307
0.0071986
0.00805268
0.00792258
0.0072629
0.00820189
0.00815069
0.00666971
0.00743288
0.00765204
0.00776391
0.00802109
0.00799512
0.00794237
0.00793985
0.00818404
0.00793337
0.00791528
0.00747851
0.008268
0.00731909
0.00790422
0.00786152
0.00761455
0.00825888
0.00790973
0.00764068
0.00732443
0.0074287
0.00783717
0.0081678
0.00757906
0.00824678
0.00801107
0.00816367
0.00748225
0.0078279
0.00810401
0.00826032
0.0082331
0.00810753
0.00794784
0.00797026
0.0082406
0.00825253
0.00818468
0.007698
0.00815779
0.00745669
0.0082247
0.00809039
0.0079399
0.0075653
0.00787405
0.00703256
0.00821814
0.00804969
0.00830206
0.0078745
0.00771123
0.00737775
0.00795303
0.00730637
0.00722863
0.00752454
0.007808
0.00743793
0.00792548
0.00737651
0.0081413
0.00804997
0.00720609
0.00825189
0.00755365
0.00757678
0.00782143
0.00770394
0.00809066
0.00822314
0.00825686
0.00814971
0.00791648
0.00799046
0.00783444
0.00781532
0.00733452
0.00600627
0.00823591
0.00786882
0.0080889
0.00816645
0.00738088
0.00819426
0.00819691
0.00811487
0.00812847
0.00808051
0.00801239
0.00827887
0.00829097
0.00799188
0.00816828
0.00815223
0.00756148
0.00817882
0.00769612
0.00803367
0.00774398
0.00786486
0.00766718
0.00829709
0.00790123
0.0079701
0.00792433
0.00761274
0.00827151
0.00800084
0.00780012
0.00755325
0.00810272
0.00726494
0.00816817
0.00809814
0.00771602
0.00820684
0.00831726
0.00820455
0.00733811
0.00799903
0.00793606
0.0080192
0.00751769
0.00816951
0.00817101
0.00780487
0.00795787
0.00778602
0.0081049
0.00774112
0.00786655
0.00728962
0.00811212
0.00802514
0.00808553
0.00778122
0.00791929
0.00804931
0.00796248
0.00776562
0.00813333
0.00812277
0.00788753
0.00726992
0.00724199
0.00790768
0.00707228
0.00736756
0.00800126
0.00801369
0.00815564
0.00723781
0.00787814
0.00821473
0.0076071
0.0072974
0.00796641
0.00750715
0.00809713
0.00764949
0.00816678
0.00765229
0.00774179
0.00827425
0.00724522
0.00779652
0.00786374
0.00815148
0.00823886
0.00819237
0.00755968
0.00804172
0.00821984
0.00776036
0.00824427
0.00817517
0.00802738
0.00798603
0.00796554
0.00826598
0.00832421
0.00827682
0.00807117
0.00772546
0.00807835
0.00793321
0.00727238
0.00783159
0.00816757
0.00818886
0.00827266
0.00793145
0.00820964
0.00819568
0.00778285
0.00817417
0.008144
0.00802759
0.00816332
0.00740813
0.00779856
0.00805198
0.00718657
0.00800534
0.00788703
0.00790928
0.00785951
0.00826446
0.00809035
0.00815575
0.00780566
0.00809541
0.00794002
0.00823576
0.00800441
0.00785322
0.0075221
0.00817873
0.00764899
0.00783649
0.0079109
0.00786807
0.00801389
0.00823402
0.00745897
0.00819999
0.007524
0.00805128
0.00782071
0.00784258
0.00789704
0.00819729
0.00738405
0.00805342
0.00819046
0.00824958
0.00804768
0.00790485
0.00711329
0.00811912
0.00816612
0.00801119
0.00809487
0.00817162
0.00802724
0.00818337
0.00789577
0.00754758
0.00786417
0.00823421
0.00727378
0.00756886
0.00835915
0.00814092
0.00770187
0.00786523
0.00796769
0.00766286
0.00790407
0.00761245
0.00816577
0.00823074
0.00717083
0.00800729
0.00820241
0.00818451
0.00835272
0.00787591
0.00817029
0.00758052
0.00755933
0.00819443
0.00814262
0.00795046
0.00760515
0.00813942
0.00815423
0.00772937
0.00827015
0.00818796
0.00820299
0.0080697
0.00811953
0.0080437
0.00801035
0.00786119
0.00770451
0.0073897
0.00797441
0.0079627
0.00753726
0.00819601
0.00736499
0.00784156
0.00788993
0.00749423
0.00788034
0.00774688
0.00797902
0.00792724
0.00815054
0.00749768
0.00748927
0.00783979
0.00737774
0.00773871
0.00815155
0.00789341
0.0081822
0.0080451
0.00785385
0.00826495
0.00776418
0.00803386
0.00786501
0.00787192
0.0080089
0.00755101
0.00796464
0.00813293
0.00820907
0.00826862
0.00756095
0.00737333
0.00797102
0.00816454
0.00758185
0.00780609
0.00814499
0.00788573
0.00839519
0.00786291
0.00783872
0.00814851
0.00744871
0.00816171
0.00831598
0.00753619
0.00768831
0.00792907
0.00778243
0.00824907
0.00829229
0.00813503
0.00759095
0.00815418
0.0074107
0.00785198
0.00820961
0.00784188
0.00838903
0.00725015
0.00798042
0.00803432
0.00801638
0.00732364
0.00737163
0.00812149
0.00828652
0.00778555
0.00823677
0.00807184
0.00792796
0.00744681
0.00771741
0.00806882
0.00789583
0.00793617
0.00828803
0.00822693
0.00832482
0.00824688
0.00804467
0.00803486
0.00809288
0.00760678
0.00819124
0.00807833
0.00802141
0.00804084
0.00827276
0.00792133
0.00822898
0.00785403
0.00715273
0.00830629
0.00773206
0.00814343
0.00771648
0.00818882
0.00760526
0.00806686
0.00830258
0.00786813
0.00794391
0.00729808
0.00812654
0.00815627
0.00799858
0.00738318
0.00833343
0.00787969
0.00799481
0.00820255
0.00823345
0.00813871
0.00790703
0.00798745
0.00833444
0.00760249
0.00765001
0.00753178
0.00761371
0.00802175
0.00738546
0.00824615
0.00821969
0.00835159
0.00783529
0.00776841
0.00796056
0.00813415
0.00796368
0.00800019
0.00821221
0.00825716
0.00798261
0.00819169
0.00802936
0.00782273
0.00801818
0.00772955
0.00823591
0.00821746
0.00827339
0.00832813
0.00816729
0.00770056
0.00831609
0.00801901
0.00796517
0.0078415
0.00806715
0.00821584
0.00792604
0.00814713
0.00780918
0.00794996
0.008042
0.00762468
0.00736278
0.00779494
0.00786741
0.00826288
0.00771728
0.00735938
0.00800647
0.00817925
0.00772477
0.00773299
0.0079664
0.008258
0.00814211
0.00784425
0.00778043
0.00796409
0.0082021
0.00777384
0.00789638
0.00793074
0.00735504
0.00780531
0.00785086
0.00810728
0.0081622
0.00790894
0.0081916
0.00810591
0.00791402
0.00793873
0.00743799
0.00761713
0.00737876
0.00821322
0.00805534
0.00833738
0.00847519
0.00802012
0.00736057
0.00821585
0.00777661
0.00803434
0.00804661
0.00816258
0.00738988
0.00818476
0.00749776
0.0079869
0.00793991
0.00791053
0.00836552
0.0078543
0.00811996
0.00759134
0.00786029
0.0079014
0.00822472
0.00765619
0.00775269
0.00810505
0.00814274
0.00810753
0.00811747
0.00822974
0.00755639
0.00796878
0.00781229
0.00773105
0.00809272
0.00830352
0.00825851
0.00816128
0.00830045
0.00753395
0.00751753
0.00755643
0.00817976
0.00738147
0.008168
0.00804835
0.00746769
0.00778679
0.00812303
0.00818851
0.0077055
0.00777133
0.00778033
0.0080327
0.00828671
0.00788597
0.00749399
0.00801583
0.00834864
0.00814786
0.00835949
0.00824567
0.00840597
0.00826232
0.00822236
0.0076317
0.00736183
0.00797324
0.00768628
0.00828664
0.00752723
0.00805495
0.00787436
0.00828707
0.00768325
0.00815339
0.00813187
0.00804481
0.00791098
0.00750491
0.00819269
0.00780437
0.00832641
0.00792998
0.00826839
0.00824392
0.00799076
0.00738242
0.00747808
0.00789858
0.00812008
0.00765563
0.00840511
0.00756261
0.00807472
0.00810194
0.00775929
0.00807702
0.00807509
0.00825057
0.00825205
0.00821863
0.00800764
0.0080196
0.00736026
0.00770928
0.00829455
0.00762992
0.00810714
0.0079128
0.00757548
0.0078972
0.0076712
0.0079086
0.00806547
0.00815172
0.00759621
0.00790595
0.00798687
0.00753933
0.00770938
0.00793573
0.00800537
0.00810608
0.0074822
0.00744845
0.00793354
0.0078347
0.00830518
0.00834279
0.00825479
0.00778232
0.00783212
0.00802297
0.00773235
0.00806972
0.00741753
0.00797063
0.00789548
0.00829704
0.00815979
0.00796057
0.00804427
0.00826928
0.00749405
0.0080451
0.0083012
0.00780384
0.00705825
0.00791838
0.00759683
0.00798004
0.00731221
0.0082144
0.00836637
0.00827798
0.00798961
0.0074205
0.00746654
0.00818314
0.00825112
0.00823307
0.00801478
0.0079656
0.00810019
0.00825438
0.00815081
0.00728989
0.00791635
0.00812128
0.00806702
0.00769457
0.00806813
0.00728923
0.00827032
0.00819283
0.00792929
0.00802668
0.00809195
0.00792036
0.00830772
0.00811445
0.00756651
0.00787664
0.00818273
0.00785709
0.00792784
0.00807
0.00733193
0.00751253
0.00824253
0.00832867
0.00824534
0.00833325
0.00804001
0.00819433
0.00800504
0.00805033
0.00807081
0.00821642
0.00774969
0.00791616
0.00777008
0.00794287
0.00817588
0.00722511
0.00800196
0.00733583
0.00820422
0.00736202
0.0072769
0.00788594
0.00727443
0.00806347
0.00801761
0.00818364
0.00822529
0.00775662
0.00764521
0.00827757
0.00780786
0.00751411
0.00797925
0.00764936
0.00825969
0.00809094
0.00800403
0.00754977
0.00815847
0.00812032
0.00823989
0.00736748
0.00777168
0.00805655
0.00806828
0.00838862
0.00749708
0.00745243
0.0081932
0.00808038
0.00826999
0.00795826
0.00722128
0.00806235
0.00816889
0.00738642
0.00730701
0.00822772
0.00755044
0.00756552
0.00820065
0.00831769
0.00814766
0.0083624
0.00791929
0.00782933
0.00824913
0.00763583
0.00823424
0.00774968
0.00791306
0.00819175
0.007898
0.00739166
0.00816254
0.00816079
0.00777695
0.00793249
0.00795679
0.00772233
0.00717167
0.00797079
0.00802941
0.00814876
0.00778527
0.00795013
0.00741975
0.00813811
0.00830903
0.00729332
0.0080794
0.00805807
0.00713735
0.00740414
0.00801281
0.00792824
0.00819068
0.00784566
0.00755486
0.00814394
0.00825007
0.00818751
0.00807622
0.00825112
0.00745855
0.00826265
0.00796373
0.00754079
0.00743504
0.00702574
0.00750594
0.00803235
0.00787627
0.00808531
0.00791746
0.00758662
0.00769965
0.00731818
0.0072727
0.00829481
0.00826874
0.00760654
0.00825362
0.00825968
0.00755579
0.00794473
0.00799597
0.00771643
0.00778051
0.0082286
0.00770388
0.007255
0.0082375
0.00824743
0.00779429
0.00828956
0.00778188
0.00761008
0.0075498
0.00779918
0.00731195
0.00755424
0.00806666
0.00803513
0.00786122
0.0082109
0.00827202
0.00791064
0.00809149
0.00557692
0.00781793
0.00745588
0.00784498
0.00817136
0.007913
0.00769028
0.00787436
0.00756614
0.00807224
0.00791504
0.00769624
0.00747793
0.00718879
0.00721034
0.00783656
0.00749771
0.00789308
0.00748741
0.00781646
0.0082051
0.00795538
0.00781263
0.00798134
0.00811235
0.00794701
0.00812315
0.00732901
0.00798405
0.00821672
0.00825669
0.00783271
0.00835848
0.00765986
0.00809618
0.007908
0.00738294
0.00821609
0.00823484
0.00805324
0.00797276
0.00813572
0.00802391
0.00717948
0.0072535
0.00785626
0.00829824
0.00794891
0.00820708
0.00775286
0.00784547
0.00757567
0.00743281
0.00745054
0.00739992
0.00807752
0.00804431
0.00814119
0.00779326
0.00777256
0.00837033
0.00754773
0.00790186
0.008315
0.00817633
0.00769262
0.00785612
0.00812556
0.00818318
0.00820365
0.00688969
0.00806154
0.00817413
0.00794401
0.00789683
0.0082479
0.00811046
0.00824501
0.00805115
0.00767132
0.00802044
0.00821313
0.00804845
0.00783838
0.00749093
0.00821592
0.00822222
0.00815716
0.00818156
0.00726157
0.00705647
0.0078536
0.00811453
0.00782655
0.008046
0.00812321
0.00814866
0.00815888
0.00778199
0.008142
0.00795948
0.00817612
0.00757447
0.00755901
0.00785856
0.00830163
0.00755157
0.00815826
0.0074843
0.00786567
0.00796267
0.00834756
0.00792577
0.00820486
0.00830732
0.00814863
0.00798806
0.00813749
0.00794105
0.00776602
0.00722616
0.00833673
0.0069739
0.00744955
0.00687426
0.00722745
0.00732523
0.0078568
0.00804736
0.0074979
0.0077326
0.0071081
0.00753505
0.00764475
0.0082758
0.00735697
0.00739685
0.00812315
0.0073634
0.00775256
0.00797503
0.00814491
0.00779199
0.00741448
0.00720504
0.00767097
0.00834924
0.0076298
0.00732076
0.00808372
0.00773939
0.00800581
0.00793607
0.00755395
0.00816493
0.00720805
0.00738294
0.00779871
0.00817926
0.00778263
0.00786339
0.00787581
0.00791281
0.00717873
0.00759235
0.00784258
0.00808675
0.00813856
0.00742904
0.00708821
0.00781415
0.00829151
0.00789962
0.00798088
0.00756872
0.00785729
0.00793862
0.00742004
0.00824069
0.00771841
0.00738317
0.00711314
0.00808934
0.00793961
0.00822978
0.00795473
0.00818674
0.00745874
0.00781981
0.00722763
0.00711902
0.00817412
0.0075476
0.00793605
0.00797559
0.00760823
0.00738556
0.00824762
0.00816662
0.00828091
0.00802683
0.00693585
0.00789626
0.00717558
0.00821982
0.00752265
0.00820496
0.00710704
0.00809867
0.00810277
0.0077
0.00773215
0.00721943
0.00767403
0.00792138
0.00808585
0.00806037
0.00828436
0.00811514
0.00753915
0.00826302
0.00713
0.00801234
0.008074
0.00821244
0.00816222
0.00771758
0.0082838
0.00787774
0.00774057
0.00770697
0.00796614
0.00812697
0.00766552
0.00741919
0.00824336
0.00808923
0.00782445
0.00818437
0.008042
0.00806411
0.00808027
0.00813066
0.00812954
0.00786168
0.00787542
0.00818771
0.00812082
0.00712648
0.00792837
0.00755092
0.00828309
0.00808185
0.00821827
0.00739146
0.00738006
0.00796451
0.0079777
0.00797417
0.00805039
0.00815972
0.00788838
0.00807934
0.00750198
0.00803836
0.0078278
0.00824813
0.00815993
0.00822685
0.00802681
0.00823848
0.00769717
0.00820183
0.00760919
0.00785191
0.00777457
0.00799903
0.00785122
0.00809314
0.00731326
0.00820834
0.0080455
0.00782093
0.00742142
0.00820414
0.00800315
0.00814934
0.00787484
0.00794102
0.00817476
0.00739331
0.00820616
0.00791942
0.00797135
0.00760215
0.00768365
0.00775847
0.00736363
0.0077786
0.00835546
0.0080138
0.00706507
0.00796687
0.00734977
0.00802584
0.0080742
0.00724356
0.00727962
0.00770886
0.00797498
0.00816505
0.00775393
0.00779766
0.00790771
0.00712085
0.00779807
0.00821566
0.00816354
0.008207
0.0078823
0.00810829
0.00750447
0.00753506
0.00833495
0.00794297
0.00806559
0.00808527
0.00826903
0.0079674
0.00794638
0.00724669
0.00796974
0.00819053
0.00768747
0.00816095
0.00809641
0.00802673
0.00751885
0.00800894
0.00781635
0.007015
0.00803711
0.00764531
0.00743187
0.00802829
0.00795355
0.00813533
0.00814217
0.0080241
0.00834539
0.0070276
0.0077382
0.00814526
0.00824291
0.00718967
0.00807906
0.00750203
0.00763176
0.00826127
0.00758635
0.00804113
0.00832246
0.00809916
0.0071891
0.00809209
0.00751001
0.00817092
0.00807478
0.00806568
0.00820886
0.00801819
0.00815586
0.00740323
0.00801491
0.00815031
0.0074517
0.00804458
0.00796585
0.00776636
0.00815823
0.00775388
0.0081971
0.00825498
0.00825048
0.007886
0.00810904
0.00800499
0.0080492
0.0077028
0.00763732
0.00737164
0.00726146
0.00804733
0.00813999
0.00794222
0.00829039
0.00759375
0.0082684
0.00724981
0.00833024
0.00828971
0.00813722
0.00826578
0.00767981
0.00721618
0.00788077
0.00745141
0.00822011
0.00791372
0.00727954
0.00781767
0.0083634
0.00803548
0.00737796
0.0076345
0.00722812
0.00835162
0.00739857
0.00816594
0.0075992
0.00757788
0.00822302
0.00822392
0.00821634
0.00806515
0.00722241
0.00793331
0.00823264
0.00749752
0.00830087
0.00783939
0.00834917
0.00702963
0.008005
0.0076031
0.00792739
0.00768633
0.0078253
0.00776496
0.00762006
0.00785403
0.00788012
0.00788547
0.0077912
0.00830508
0.00744134
0.00792121
0.00788537
0.00804834
0.0082599
0.00755342
0.00814143
0.00744098
0.00787468
0.00819016
0.00809582
0.00786101
0.00804797
0.0080647
0.00759869
0.00791892
0.00784028
0.00734289
0.00733838
0.008103
0.00813147
0.00750862
0.00782804
0.00812239
0.00746492
0.0080183
0.00757955
0.00808665
0.00826986
0.00789419
0.00742263
0.00813729
0.00725333
0.00803394
0.00829745
0.00699013
0.00840784
0.00745695
0.00779303
0.00765834
0.0074304
0.00783956
0.00772903
0.00725967
0.00822919
0.00820017
0.00695654
0.0077654
0.0079038
0.00794547
0.00808056
0.00829795
0.00815518
0.007677
0.00761123
0.00724244
0.00716783
0.00657641
0.00825595
0.00795469
0.00804871
0.00811925
0.00740603
0.00730261
0.00787471
0.00817521
0.00725933
0.00813159
0.00791684
0.00790561
0.00805224
0.00771653
0.00801504
0.00780838
0.00790517
0.00823774
0.00694615
0.00794588
0.0079128
0.00818467
0.00798008
0.00816837
0.00795658
0.00746857
0.00829138
0.00847026
0.00793935
0.00782378
0.00743966
0.00775812
0.00804576
0.00821068
0.00782092
0.00784892
0.00775235
0.00718023
0.00770514
0.00823966
0.00775486
0.00842944
0.00793034
0.00772054
0.00821376
0.00738718
0.00807294
0.00737916
0.00824042
0.00805088
0.00775254
0.00838805
0.0077323
0.00791922
0.0082036
0.0078195
0.00802883
0.00775282
0.00809431
0.00740238
0.00793618
0.00790654
0.00747856
0.0081456
0.00775802
0.00767244
0.00822909
0.0074869
0.00825134
0.00783717
0.00816194
0.00756385
0.00799899
0.00744388
0.00740529
0.00816756
0.007485
0.00784092
0.00812499
0.00718332
0.00782495
0.00808438
0.0077518
0.00733391
0.00766907
0.00787424
0.00776451
0.00797029
0.00787235
0.00808608
0.00768274
0.00815996
0.0071034
0.00725155
0.00825407
0.00770864
0.00718076
0.00732326
0.00791845
0.00648194
0.00735901
0.00792191
0.00791671
0.00836917
0.00751379
0.00818894
0.00817562
0.00820341
0.00820534
0.00829289
0.00781009
0.00773932
0.00815963
0.00775347
0.0077346
0.00803589
0.00776577
0.00710338
0.00737374
0.00780853
0.00678824
0.00806907
0.00810852
0.00776212
0.00813942
0.00819101
0.00791545
0.00843917
0.00759642
0.00726687
0.00779835
0.00783005
0.00804809
0.0077366
0.00796214
0.00822345
0.00778493
0.00766044
0.00792249
0.0083266
0.00812644
0.00837294
0.00812217
0.00785143
0.00793626
0.00762593
0.00763879
0.00831333
0.00768516
0.00830332
0.00776599
0.00815549
0.00696622
0.00803962
0.00792132
0.00794685
0.00760433
0.00808268
0.00789401
0.00815848
0.0070286
0.00766269
0.00792159
0.00772511
0.00795185
0.00792001
0.00796435
0.00818802
0.00793384
0.00721174
0.00762038
0.0073847
0.00794627
0.00791224
0.0074285
0.00837408
0.00800453
0.00795301
0.00816883
0.0075765
0.00742276
0.00828354
0.00739574
0.00726892
0.00708965
0.00717179
0.00706361
0.00772406
0.00828617
0.00821793
0.007852
0.0079397
0.00806346
0.00768591
0.00806816
0.00726375
0.0082061
0.00548127
0.00805074
0.00735033
0.00719875
0.00810389
0.00738192
0.00802497
0.00807227
0.00815279
0.0074767
0.00802475
0.0078689
0.00794022
0.00737596
0.00817174
0.00800996
0.00819043
0.00804114
0.00743328
0.00789565
0.00793576
0.00770476
0.00706874
0.00760788
0.00757766
0.00728694
0.00737141
0.00793878
0.00765808
0.00733988
0.00766092
0.00809988
0.00819541
0.00825624
0.00573129
0.00727578
0.00815108
0.00732449
0.00803325
0.00719136
0.00828435
0.00804243
0.0081203
0.00742134
0.00789491
0.0082296
0.00821875
0.0079988
0.00814298
0.0079417
0.00789288
0.00790318
0.00735147
0.00793703
0.00768489
0.00766803
0.00767449
0.00715668
0.00789476
0.00820055
0.00746195
0.00763212
0.00735848
0.0081019
0.00805199
0.00718913
0.00779069
0.00793464
0.00801008
0.00736967
0.00792723
0.00797826
0.00843109
0.00665697
0.00795763
0.00784561
0.00730029
0.00825327
0.00759879
0.007498
0.00801568
0.00829849
0.00732853
0.00819232
0.00802742
0.00731603
0.00726433
0.00812776
0.00825165
0.00735346
0.00799807
0.00723553
0.00765265
0.00824938
0.00757527
0.00802013
0.00791645
0.00833978
0.00777746
0.00774756
0.00758917
0.00780251
0.00797059
0.00769728
0.00812586
0.0074189
0.00738827
0.0079875
0.00780301
0.00814301
0.0077069
0.00814985
0.00802758
0.00802336
0.00817745
0.00804965
0.00776981
0.00745682
0.00809285
0.007849
0.00772103
0.00799186
0.00830033
0.00811899
0.00771753
0.00735025
0.00795706
0.00751088
0.00715897
0.00763621
0.00779685
0.00710432
0.00804048
0.00749418
0.00682987
0.00731987
0.00795166
0.00692955
0.00780079
0.00809611
0.00791942
0.00721049
0.00793871
0.00841424
0.00739473
0.00711905
0.00750068
0.00805776
0.00790901
0.00780484
0.0081224
0.00735404
0.00815582
0.00795847
0.00827366
0.00818117
0.00559881
0.00797026
0.00800202
0.00803
0.0076316
0.00785846
0.00687183
0.00782149
0.00825261
0.00770414
0.00725239
0.00781025
0.00807789
0.00804521
0.00712601
0.00797043
0.00816249
0.00827032
0.00789503
0.0079671
0.00721435
0.00723178
0.0072129
0.00793567
0.00783598
0.00802965
0.00833857
0.00810866
0.00697493
0.00820414
0.00814313
0.0081676
0.00774743
0.00821467
0.00747735
0.00752825
0.0077478
0.00786297
0.0075661
0.00719294
0.00801649
0.00761559
0.00811512
0.00757959
0.00680974
0.00773354
0.00802401
0.00784253
0.0073765
0.00754925
0.00808882
0.00816522
0.00760177
0.00781664
0.00805737
0.00825367
0.00805511
0.00830597
0.00804368
0.00805143
0.00712871
0.00792871
0.00745794
0.00813964
0.00786083
0.0076656
0.00727381
0.0082723
0.00713119
0.00768699
0.00721892
0.00766187
0.0069265
0.00782437
0.00789157
0.00789532
0.00768403
0.00761684
0.0081398
0.00735663
0.00805118
0.00764438
0.00783221
0.00696712
0.00807828
0.00780765
0.00747549
0.00760987
0.00786488
0.00780136
0.00785652
0.00641295
0.00796364
0.00776299
0.0078035
0.00751357
0.00768445
0.00766768
0.00651508
0.00806506
0.00788303
0.00461232
0.00751229
0.00814
0.00804873
0.0080759
0.00754708
0.00672919
0.0081638
0.00746026
0.00814641
0.00831114
0.00783327
0.00754783
0.00821214
0.007204
0.00694062
0.00700975
0.00791365
0.00786796
0.00756245
0.00829818
0.00808963
0.00796307
0.00751991
0.00709928
0.00832785
0.0079892
0.00836644
0.00809048
0.00726735
0.00767703
0.00780563
0.00738751
0.00787811
0.00773762
0.00792554
0.00843341
0.00779895
0.00790468
0.00741937
0.00768285
0.00761791
0.00790534
0.0077736
0.00720169
0.0074433
0.00790008
0.00807662
0.00734609
0.00796384
0.00758984
0.00811873
0.00735553
0.00740042
0.0065469
0.00819117
0.00817091
0.0080231
0.00801405
0.00769879
0.00732691
0.00724934
0.00671447
0.00780773
0.0072421
0.00775421
0.00766761
0.00806184
0.00770201
0.00807804
0.00742885
0.00474751
0.00739913
0.00811257
0.00525548
0.00791871
0.00835168
0.00774528
0.00831356
0.00731843
0.00747318
0.00745954
0.00825613
0.006259
0.00817736
0.00742783
0.00677922
0.00814868
0.00749663
0.00819981
0.00495601
0.0070915
0.00789557
0.00807605
0.00826457
0.00804267
0.00820624
0.00805873
0.00806666
0.00818555
0.00805656
0.00790065
0.00759687
0.00651933
0.00807216
0.00758518
0.00765051
0.00816224
0.00813583
0.00783508
0.00715019
0.00827325
0.00809128
0.00778893
0.00729633
0.00725239
0.00801771
0.00811195
0.00821556
0.00811758
0.00781437
0.00799944
0.00729991
0.00805975
0.00784619
0.00807476
0.00761928
0.00728533
0.00677877
0.00778093
0.00839118
0.00806735
0.00768854
0.00750032
0.00777356
0.00731896
0.00720637
0.00801953
0.00761551
0.00594815
0.00638545
0.00682456
0.00725451
0.00784988
0.00766225
0.00773891
0.00771284
0.00700531
0.00776251
0.00815435
0.00694927
0.00840778
0.00710957
0.00811553
0.00745324
0.00815243
0.00793798
0.00800729
0.00805249
0.0075888
0.00732697
0.00751374
0.00758356
0.00804136
0.00785932
0.00749478
0.00744775
0.00787483
0.00715319
0.00786476
0.00751242
0.00807783
0.00755676
0.00778374
0.00596958
0.00819281
0.00826825
0.00790178
0.00810475
0.00781439
0.00779606
0.00790289
0.00799646
0.00802408
0.00816282
0.00803429
0.00713518
0.00707934
0.00840213
0.00732205
0.00710983
0.0070675
0.00780999
0.00815338
0.00778052
0.00832665
0.00836171
0.00812773
0.00811868
0.00772709
0.00729655
0.0076977
0.00666424
0.00799196
0.0077832
0.00767893
0.00772316
0.00753117
0.00772041
0.00822556
0.00700733
0.00751479
0.00774532
0.00706142
0.00809691
0.00673444
0.00694151
0.00716009
0.00787385
0.00745206
0.00718897
0.00747943
0.00725774
0.00778022
0.00660743
0.00657502
0.00772681
0.00727289
0.00695922
0.00780293
0.00725863
0.00760667
0.00769699
0.0074836
0.00717823
0.00776826
0.00737894
0.00748103
0.00714539
0.00762314
0.00752331
0.00674746
0.00809815
0.00771829
0.00775652
0.00744373
0.00740192
0.00714605
0.00783288
0.00778892
0.00816657
0.00790547
0.00792837
0.00764725
0.00793981
0.0081019
0.0079416
0.00620017
0.00647349
0.00701788
0.00804009
0.00711035
0.00797501
0.00633929
0.00753933
0.00790018
0.0074327
0.00763785
0.00762192
0.00760634
0.00765264
0.00825438
0.00742897
0.00757719
0.00821084
0.00691312