/*--------------------------------*- C++ -*----------------------------------*\
| =========                 |                                                 |
| \\      /  F ield         | OpenFOAM: The Open Source CFD Toolbox           |
|  \\    /   O peration     | Version:  2212                                  |
|   \\  /    A nd           | Website:  www.openfoam.com                      |
|    \\/     M anipulation  |                                                 |
\*---------------------------------------------------------------------------*/
FoamFile
{
    version     2.0;
    format      ascii;
    arch        "LSB;label=32;scalar=64";
    class       volScalarField;
    location    "0.06";
    object      nut;
}
// * * * * * * * * * * * * * * * * * * * * * * * * * * * * * * * * * * * * * //

dimensions      [0 2 -1 0 0 0 0];

internalField   nonuniform List<scalar> 
31639
(
2.88337e-05
2.79627e-05
2.83463e-05
3.12494e-05
2.77255e-05
2.70312e-05
2.60051e-05
2.90281e-05
2.82397e-05
3.02934e-05
2.97436e-05
3.01856e-05
2.85743e-05
3.06896e-05
2.70674e-05
2.5026e-05
2.90745e-05
2.6536e-05
2.50161e-05
2.83561e-05
2.10797e-05
3.02455e-05
3.05472e-05
2.50379e-05
2.43988e-05
2.79385e-05
2.81445e-05
2.33454e-05
2.61738e-05
3.07437e-05
3.03995e-05
2.57103e-05
3.08269e-05
2.43299e-05
2.25588e-05
3.06108e-05
1.96075e-05
3.16691e-05
3.05772e-05
1.88879e-05
2.23673e-05
2.24352e-05
3.01232e-05
2.9953e-05
2.94682e-05
3.03227e-05
2.71296e-05
2.67482e-05
2.91697e-05
3.09974e-05
3.02622e-05
1.94215e-05
3.06199e-05
2.0471e-05
2.61887e-05
2.84046e-05
2.10302e-05
2.82948e-05
2.77477e-05
2.13128e-05
2.79801e-05
2.97664e-05
2.46143e-05
2.80452e-05
2.85578e-05
3.11635e-05
2.77858e-05
2.822e-05
2.35936e-05
3.09628e-05
3.0114e-05
2.58399e-05
2.9723e-05
2.84145e-05
3.00242e-05
2.2673e-05
3.00077e-05
2.64635e-05
2.70466e-05
2.9037e-05
2.47726e-05
1.85109e-05
3.06961e-05
2.87965e-05
2.90372e-05
3.00982e-05
3.08206e-05
3.05938e-05
2.34239e-05
3.11658e-05
2.86365e-05
2.82646e-05
2.16356e-05
2.7268e-05
2.38293e-05
2.73946e-05
2.68426e-05
2.82344e-05
2.85208e-05
2.15354e-05
3.03246e-05
2.9649e-05
2.73579e-05
2.09425e-05
2.13058e-05
3.04791e-05
2.10265e-05
1.98175e-05
2.377e-05
2.06153e-05
2.98725e-05
2.16917e-05
2.73269e-05
2.58265e-05
2.83136e-05
2.03832e-05
2.70566e-05
2.73063e-05
2.89438e-05
2.76916e-05
2.96687e-05
2.99044e-05
2.99361e-05
2.83658e-05
2.82373e-05
3.0405e-05
2.81528e-05
2.40616e-05
2.32633e-05
2.97237e-05
3.03819e-05
3.01119e-05
3.04304e-05
2.63547e-05
2.97243e-05
2.82027e-05
2.14378e-05
2.02684e-05
2.99048e-05
2.82344e-05
2.81551e-05
3.006e-05
3.02331e-05
2.04769e-05
1.94455e-05
3.04925e-05
2.92837e-05
2.21172e-05
2.21957e-05
3.00518e-05
2.40284e-05
2.91618e-05
2.51266e-05
2.91302e-05
2.30825e-05
3.1056e-05
2.77129e-05
2.29619e-05
2.26971e-05
2.49398e-05
3.06101e-05
2.31486e-05
2.42628e-05
2.1096e-05
2.16505e-05
2.75875e-05
2.28713e-05
3.10114e-05
3.01219e-05
2.0838e-05
2.69709e-05
2.61682e-05
2.22267e-05
2.8304e-05
3.11704e-05
2.90622e-05
2.85618e-05
3.08767e-05
2.83107e-05
2.83427e-05
2.71105e-05
2.67402e-05
2.67356e-05
1.93305e-05
2.81539e-05
3.14156e-05
2.80782e-05
3.08839e-05
2.17446e-05
2.1735e-05
3.20086e-05
2.96155e-05
2.92849e-05
2.77611e-05
2.83765e-05
2.64991e-05
2.62482e-05
2.98254e-05
2.11133e-05
2.63514e-05
3.04723e-05
3.11018e-05
2.99205e-05
2.94176e-05
2.73662e-05
2.75257e-05
2.74736e-05
2.67272e-05
3.03817e-05
1.92743e-05
2.78214e-05
2.65928e-05
2.89145e-05
2.99542e-05
2.98146e-05
3.0699e-05
2.2365e-05
2.51059e-05
3.00405e-05
2.93752e-05
2.92461e-05
2.74122e-05
2.10971e-05
2.71249e-05
2.13258e-05
2.62772e-05
2.97612e-05
2.51542e-05
2.22149e-05
2.90125e-05
2.88768e-05
3.11789e-05
2.31229e-05
2.1628e-05
2.89025e-05
2.92386e-05
2.10468e-05
3.09116e-05
2.43167e-05
2.09542e-05
2.72356e-05
2.90089e-05
2.77819e-05
2.52138e-05
2.48017e-05
2.90932e-05
2.72543e-05
2.67586e-05
2.22807e-05
2.76807e-05
2.69211e-05
2.24627e-05
2.53412e-05
3.09136e-05
2.95875e-05
2.5982e-05
2.27321e-05
2.95697e-05
2.96938e-05
2.80175e-05
3.10723e-05
3.04727e-05
2.76899e-05
3.04885e-05
2.71031e-05
2.67396e-05
2.05536e-05
2.47468e-05
3.06816e-05
2.6842e-05
2.88724e-05
2.56372e-05
2.77588e-05
3.10799e-05
3.127e-05
2.86968e-05
2.15467e-05
2.67973e-05
2.42414e-05
3.03928e-05
2.71153e-05
3.09501e-05
3.08187e-05
2.63228e-05
2.21457e-05
2.426e-05
2.29523e-05
2.10556e-05
3.04031e-05
2.34572e-05
2.92344e-05
2.74758e-05
2.5353e-05
2.29976e-05
3.14246e-05
2.59313e-05
2.56127e-05
3.01747e-05
2.81574e-05
2.45123e-05
2.73015e-05
2.37173e-05
2.81436e-05
2.73956e-05
2.22133e-05
2.5913e-05
2.65898e-05
1.84801e-05
1.99627e-05
3.03974e-05
3.06487e-05
2.9292e-05
2.09278e-05
2.31062e-05
2.96707e-05
2.36154e-05
2.33051e-05
3.05145e-05
3.14299e-05
2.74034e-05
3.01684e-05
3.09393e-05
2.25491e-05
3.00958e-05
2.05523e-05
2.05351e-05
3.07557e-05
3.03443e-05
3.04927e-05
3.11727e-05
2.96093e-05
2.3026e-05
2.79137e-05
2.75626e-05
3.0448e-05
3.10985e-05
3.14794e-05
2.74861e-05
2.65187e-05
2.94649e-05
2.95965e-05
2.86125e-05
2.7266e-05
2.70511e-05
2.72103e-05
2.74719e-05
2.87354e-05
2.74812e-05
2.24838e-05
2.83217e-05
3.09383e-05
2.6305e-05
2.98306e-05
3.08686e-05
2.78458e-05
2.21772e-05
2.7737e-05
2.76237e-05
2.08801e-05
3.18031e-05
2.33669e-05
2.8392e-05
2.97488e-05
2.01658e-05
2.79455e-05
2.77613e-05
2.16727e-05
2.80533e-05
2.27815e-05
2.7537e-05
3.06147e-05
2.89761e-05
1.99507e-05
2.84815e-05
2.28986e-05
2.85921e-05
3.02843e-05
3.06548e-05
3.03053e-05
2.33325e-05
2.99112e-05
2.11865e-05
2.71933e-05
2.07892e-05
3.08451e-05
2.99342e-05
3.05141e-05
3.02351e-05
2.42834e-05
3.06167e-05
2.77216e-05
2.93057e-05
2.75025e-05
2.35489e-05
2.73784e-05
2.92013e-05
2.94097e-05
2.95168e-05
2.79326e-05
2.94881e-05
2.6796e-05
2.26482e-05
2.71214e-05
2.87916e-05
2.92727e-05
2.00361e-05
3.03557e-05
3.02956e-05
2.74889e-05
2.89611e-05
2.93971e-05
2.79764e-05
3.08941e-05
2.12362e-05
2.87016e-05
3.02578e-05
2.0265e-05
2.76765e-05
2.88358e-05
2.29621e-05
2.14918e-05
2.14249e-05
2.56355e-05
2.14119e-05
2.74213e-05
2.71468e-05
2.56528e-05
3.04723e-05
2.19382e-05
2.98736e-05
3.0733e-05
2.78642e-05
2.98951e-05
2.63201e-05
3.0474e-05
2.74863e-05
2.80956e-05
3.11275e-05
2.77938e-05
2.19224e-05
2.80628e-05
3.0252e-05
3.02619e-05
2.92066e-05
3.05922e-05
2.71249e-05
2.8545e-05
2.985e-05
3.09909e-05
2.99133e-05
2.25245e-05
2.74156e-05
1.92875e-05
2.69519e-05
2.73397e-05
2.18869e-05
2.12029e-05
2.5809e-05
2.95417e-05
2.985e-05
2.16383e-05
2.93782e-05
2.53075e-05
2.76738e-05
2.94464e-05
2.10424e-05
2.74559e-05
2.05959e-05
2.69373e-05
3.03787e-05
3.08383e-05
2.98151e-05
2.70549e-05
2.07449e-05
2.90619e-05
2.82587e-05
2.92784e-05
2.09272e-05
2.24533e-05
2.76165e-05
2.15994e-05
2.28774e-05
2.80173e-05
2.07715e-05
2.64427e-05
2.07687e-05
2.90717e-05
2.20641e-05
3.10197e-05
3.01196e-05
2.99634e-05
3.04032e-05
2.49324e-05
2.98725e-05
3.03478e-05
2.7971e-05
2.97755e-05
2.81729e-05
3.00557e-05
3.03919e-05
2.53492e-05
3.01453e-05
3.05714e-05
2.77528e-05
2.48872e-05
3.11284e-05
2.8102e-05
2.00185e-05
2.04479e-05
2.7917e-05
3.10028e-05
3.06852e-05
2.77586e-05
3.15152e-05
3.07073e-05
2.95085e-05
2.82475e-05
2.64921e-05
2.63984e-05
2.27241e-05
2.78831e-05
2.87413e-05
3.07858e-05
2.41902e-05
2.39138e-05
2.33893e-05
2.69891e-05
2.74575e-05
1.95684e-05
2.89101e-05
2.52524e-05
2.90472e-05
2.73991e-05
3.02499e-05
2.72319e-05
2.27604e-05
2.92919e-05
3.07379e-05
2.39277e-05
2.99667e-05
3.07633e-05
2.72086e-05
2.76174e-05
2.33679e-05
2.35669e-05
2.77306e-05
2.80161e-05
2.29756e-05
2.24728e-05
2.81171e-05
2.38552e-05
2.90371e-05
2.43422e-05
2.67891e-05
3.04555e-05
2.77241e-05
2.11467e-05
2.53131e-05
2.8169e-05
3.06721e-05
2.19151e-05
1.90506e-05
2.99938e-05
2.11236e-05
2.85277e-05
3.11583e-05
2.22619e-05
2.78085e-05
2.99653e-05
2.75635e-05
2.15416e-05
3.02447e-05
2.76071e-05
2.1969e-05
2.9994e-05
2.84775e-05
2.74281e-05
2.91529e-05
2.00417e-05
2.47306e-05
2.8848e-05
2.58859e-05
2.59313e-05
2.69926e-05
3.00668e-05
3.00281e-05
2.91016e-05
3.01181e-05
3.06921e-05
2.96417e-05
2.42648e-05
2.9927e-05
3.03854e-05
3.08442e-05
2.4003e-05
2.81917e-05
2.79292e-05
3.19933e-05
2.30772e-05
1.98464e-05
3.08269e-05
2.32789e-05
3.17146e-05
2.70492e-05
2.25357e-05
2.8019e-05
3.03226e-05
2.8568e-05
2.86139e-05
2.06316e-05
2.93552e-05
2.79263e-05
2.0369e-05
3.05061e-05
2.99814e-05
2.30482e-05
2.20827e-05
2.33956e-05
2.55937e-05
2.86927e-05
2.82496e-05
2.76773e-05
2.80527e-05
3.03058e-05
2.77975e-05
2.74999e-05
2.22922e-05
3.12722e-05
2.0866e-05
2.78193e-05
2.65473e-05
2.55595e-05
3.10378e-05
2.78933e-05
2.41382e-05
2.11412e-05
2.18508e-05
2.64917e-05
3.03169e-05
2.38743e-05
3.10428e-05
2.75369e-05
3.02714e-05
2.23831e-05
2.6902e-05
2.94532e-05
3.13242e-05
3.07482e-05
2.99068e-05
2.81988e-05
2.77997e-05
3.09558e-05
3.09123e-05
3.02472e-05
2.44224e-05
3.01354e-05
2.23669e-05
3.05257e-05
2.84642e-05
2.77618e-05
2.32249e-05
2.72724e-05
1.91306e-05
3.07671e-05
2.81758e-05
3.11414e-05
2.7428e-05
2.6111e-05
2.20517e-05
3.01744e-05
2.1169e-05
1.97675e-05
2.26751e-05
2.46765e-05
2.21403e-05
2.74517e-05
2.11577e-05
3.02002e-05
2.86267e-05
1.99237e-05
3.07599e-05
2.28882e-05
2.44826e-05
2.70387e-05
2.54977e-05
2.91808e-05
3.08845e-05
3.13617e-05
2.99071e-05
2.73439e-05
2.85917e-05
2.61944e-05
2.62916e-05
2.12308e-05
1.60156e-05
3.08807e-05
2.73365e-05
2.93955e-05
3.01603e-05
2.16636e-05
3.03869e-05
3.03745e-05
2.97673e-05
2.99255e-05
2.95215e-05
2.86355e-05
3.11673e-05
3.13239e-05
2.80937e-05
3.00904e-05
2.99882e-05
2.31192e-05
3.02389e-05
2.52778e-05
2.84781e-05
2.64881e-05
2.75384e-05
2.48022e-05
3.10893e-05
2.75498e-05
2.80509e-05
2.70183e-05
2.3298e-05
3.11931e-05
2.82531e-05
2.57982e-05
2.25854e-05
2.97125e-05
2.08604e-05
3.0513e-05
2.92773e-05
2.62215e-05
2.98043e-05
3.15491e-05
3.00875e-05
2.12091e-05
2.85619e-05
2.68681e-05
2.79912e-05
2.30662e-05
3.03019e-05
3.01888e-05
2.66662e-05
2.78915e-05
2.67658e-05
2.91444e-05
2.56106e-05
2.70256e-05
2.07187e-05
2.98545e-05
2.86325e-05
2.98431e-05
2.47529e-05
2.7894e-05
2.89395e-05
2.78708e-05
2.54003e-05
2.96893e-05
2.989e-05
2.7247e-05
2.0806e-05
2.05405e-05
2.75902e-05
1.96319e-05
2.24516e-05
2.82271e-05
2.85373e-05
3.03569e-05
2.05116e-05
2.75223e-05
3.07051e-05
2.35711e-05
2.12733e-05
2.84998e-05
2.29128e-05
2.87451e-05
2.37667e-05
2.98916e-05
2.43559e-05
2.5421e-05
3.10804e-05
2.05959e-05
2.67421e-05
2.72257e-05
3.00142e-05
3.06077e-05
3.06959e-05
2.28416e-05
2.92985e-05
3.03315e-05
2.56056e-05
3.09958e-05
3.00971e-05
2.8518e-05
2.98999e-05
2.82501e-05
3.08226e-05
3.15181e-05
3.09584e-05
2.92987e-05
2.57097e-05
2.90145e-05
2.79937e-05
2.12988e-05
2.70309e-05
2.95293e-05
3.03946e-05
3.05361e-05
2.75087e-05
3.07268e-05
3.03723e-05
2.70854e-05
3.00395e-05
3.00978e-05
2.90576e-05
2.96339e-05
2.1861e-05
2.63141e-05
2.93606e-05
1.97245e-05
2.81136e-05
2.7303e-05
2.68854e-05
2.70752e-05
3.11362e-05
2.94798e-05
3.02546e-05
2.66668e-05
2.93931e-05
2.80081e-05
3.0381e-05
2.84431e-05
2.62925e-05
2.2609e-05
3.02169e-05
2.3047e-05
2.66962e-05
2.70282e-05
2.71165e-05
2.85427e-05
3.10162e-05
2.21196e-05
3.02933e-05
2.29348e-05
2.90404e-05
2.5883e-05
2.70876e-05
2.74106e-05
3.06616e-05
2.17833e-05
2.93599e-05
3.04332e-05
3.01642e-05
2.84479e-05
2.73971e-05
1.96272e-05
2.98843e-05
2.9918e-05
2.86043e-05
2.98335e-05
3.03914e-05
2.88348e-05
2.91719e-05
2.81573e-05
2.32741e-05
2.67186e-05
3.08753e-05
2.1117e-05
2.3651e-05
3.1576e-05
3.01699e-05
2.52217e-05
2.65957e-05
2.75751e-05
2.47179e-05
2.75976e-05
2.40226e-05
3.01377e-05
3.04098e-05
1.96235e-05
2.83076e-05
3.07842e-05
2.99015e-05
3.08825e-05
2.7674e-05
3.02889e-05
2.33525e-05
2.32232e-05
3.07886e-05
3.00604e-05
2.81479e-05
2.36672e-05
2.99362e-05
3.00402e-05
2.45101e-05
3.06962e-05
3.04512e-05
3.05047e-05
2.89108e-05
2.98778e-05
2.83871e-05
2.88149e-05
2.75303e-05
2.53786e-05
2.18828e-05
2.83157e-05
2.82969e-05
2.32874e-05
3.06224e-05
2.12917e-05
2.69235e-05
2.70536e-05
2.24538e-05
2.71016e-05
2.56982e-05
2.8565e-05
2.75237e-05
2.97645e-05
2.22084e-05
2.20609e-05
2.66538e-05
2.17719e-05
2.62894e-05
3.02499e-05
2.74491e-05
3.0353e-05
2.76327e-05
2.73666e-05
3.0627e-05
2.57364e-05
2.80429e-05
2.7521e-05
2.73803e-05
2.82483e-05
2.30481e-05
2.79995e-05
2.95054e-05
3.08606e-05
3.11375e-05
2.23865e-05
2.16335e-05
2.80225e-05
3.04092e-05
2.38848e-05
2.6629e-05
2.91653e-05
2.76079e-05
3.19553e-05
2.68067e-05
2.7053e-05
2.92067e-05
2.22389e-05
3.01779e-05
3.06779e-05
2.29093e-05
2.47852e-05
2.80195e-05
2.58484e-05
3.08399e-05
3.10299e-05
2.895e-05
2.32377e-05
3.01905e-05
2.19547e-05
2.68093e-05
2.98958e-05
2.56491e-05
3.15149e-05
2.06471e-05
2.82018e-05
2.88957e-05
2.81561e-05
2.07106e-05
2.16611e-05
3.01299e-05
3.0943e-05
2.58274e-05
3.09833e-05
2.88105e-05
2.78507e-05
2.18883e-05
2.4149e-05
2.85791e-05
2.73605e-05
2.77117e-05
3.11337e-05
3.101e-05
3.11635e-05
3.11181e-05
2.85904e-05
2.83663e-05
2.95894e-05
2.27728e-05
2.99393e-05
2.93239e-05
2.87046e-05
2.84937e-05
3.07127e-05
2.69026e-05
3.08607e-05
2.7007e-05
1.98741e-05
3.13507e-05
2.47675e-05
3.0062e-05
2.5477e-05
3.06316e-05
2.31364e-05
2.92911e-05
3.135e-05
2.7114e-05
2.80329e-05
2.08916e-05
3.00343e-05
3.00758e-05
2.90537e-05
2.17125e-05
3.17927e-05
2.71732e-05
2.89946e-05
3.00924e-05
3.05011e-05
2.98449e-05
2.77811e-05
2.72296e-05
3.11295e-05
2.32067e-05
2.34196e-05
2.26318e-05
2.41441e-05
2.85739e-05
2.15608e-05
3.09253e-05
3.04931e-05
3.09466e-05
2.67642e-05
2.6691e-05
2.79876e-05
2.97729e-05
2.80484e-05
2.73689e-05
3.0537e-05
2.99658e-05
2.69499e-05
3.05564e-05
2.87393e-05
2.68464e-05
2.89207e-05
2.52317e-05
3.05733e-05
3.05347e-05
3.12546e-05
3.12248e-05
3.00199e-05
2.51322e-05
3.1344e-05
2.8136e-05
2.7982e-05
2.7198e-05
2.88507e-05
3.08251e-05
2.78748e-05
2.99273e-05
2.62268e-05
2.77503e-05
2.8866e-05
2.3448e-05
2.1114e-05
2.73311e-05
2.6131e-05
3.05406e-05
2.53134e-05
2.13858e-05
2.82043e-05
3.02059e-05
2.46658e-05
2.54879e-05
2.82068e-05
3.10593e-05
3.00191e-05
2.70286e-05
2.46306e-05
2.8002e-05
2.96859e-05
2.58717e-05
2.75701e-05
2.77738e-05
2.08918e-05
2.56381e-05
2.60184e-05
2.90742e-05
2.97359e-05
2.75509e-05
3.0031e-05
2.91461e-05
2.76679e-05
2.77422e-05
2.27508e-05
2.44369e-05
2.0848e-05
2.98267e-05
2.8755e-05
3.12665e-05
3.26369e-05
2.93831e-05
2.15875e-05
2.99753e-05
2.59359e-05
2.84886e-05
2.88241e-05
3.01405e-05
2.15878e-05
3.07774e-05
2.25385e-05
2.83973e-05
2.77807e-05
2.74375e-05
3.13711e-05
2.64686e-05
2.91068e-05
2.36934e-05
2.71312e-05
2.69027e-05
3.01262e-05
2.50511e-05
2.41296e-05
2.98532e-05
2.97246e-05
2.90882e-05
2.97184e-05
3.05222e-05
2.29868e-05
2.71336e-05
2.6728e-05
2.4392e-05
2.96856e-05
3.08683e-05
3.10869e-05
3.04121e-05
3.14261e-05
2.26661e-05
2.22796e-05
2.30622e-05
3.04111e-05
2.13874e-05
3.02596e-05
2.88232e-05
2.26114e-05
2.5896e-05
2.95953e-05
3.03361e-05
2.49566e-05
2.57909e-05
2.66826e-05
2.87043e-05
3.09065e-05
2.73794e-05
2.30093e-05
2.83294e-05
3.11067e-05
2.98221e-05
3.11792e-05
3.09012e-05
3.21707e-05
3.1048e-05
3.00222e-05
2.33034e-05
2.12613e-05
2.8079e-05
2.49407e-05
3.06299e-05
2.20801e-05
2.90765e-05
2.71851e-05
3.13744e-05
2.37692e-05
2.93322e-05
2.96526e-05
2.85286e-05
2.66451e-05
2.25523e-05
3.02648e-05
2.5187e-05
3.07814e-05
2.75764e-05
3.12577e-05
3.11731e-05
2.82826e-05
2.12551e-05
2.21892e-05
2.73866e-05
2.87566e-05
2.50977e-05
3.17077e-05
2.24807e-05
3.06997e-05
2.96067e-05
2.55389e-05
2.93032e-05
3.00868e-05
3.05276e-05
3.10509e-05
3.0521e-05
2.84421e-05
2.86102e-05
2.12019e-05
2.54074e-05
3.12462e-05
2.33148e-05
2.94141e-05
2.73412e-05
2.35955e-05
2.76886e-05
2.93e-05
2.76216e-05
2.94086e-05
3.00303e-05
2.27205e-05
2.74e-05
2.81759e-05
2.27263e-05
2.5432e-05
2.78014e-05
2.75781e-05
2.94551e-05
2.26558e-05
2.23475e-05
2.77136e-05
2.641e-05
3.16025e-05
3.16354e-05
3.10722e-05
2.68107e-05
2.71925e-05
2.86752e-05
2.66245e-05
2.96043e-05
2.25799e-05
2.81789e-05
2.71548e-05
3.11818e-05
2.96149e-05
2.70173e-05
2.81567e-05
3.0628e-05
2.23035e-05
2.84563e-05
3.10959e-05
2.6667e-05
1.87811e-05
2.75398e-05
2.27645e-05
2.83505e-05
2.06402e-05
3.03215e-05
3.17141e-05
3.04655e-05
2.8418e-05
2.25788e-05
2.24793e-05
3.01948e-05
3.0526e-05
3.02599e-05
2.8477e-05
2.71035e-05
2.97907e-05
3.06422e-05
3.00615e-05
2.111e-05
2.63707e-05
2.9718e-05
2.92852e-05
2.59691e-05
2.86538e-05
2.11552e-05
3.07833e-05
3.04129e-05
2.80885e-05
2.86707e-05
2.91929e-05
2.77919e-05
3.13708e-05
2.95712e-05
2.31955e-05
2.74468e-05
2.99561e-05
2.72741e-05
2.7681e-05
2.90377e-05
2.06816e-05
2.34014e-05
3.07991e-05
3.10026e-05
3.04263e-05
3.12165e-05
2.8977e-05
3.05378e-05
2.84235e-05
2.84225e-05
2.93423e-05
3.05557e-05
2.54306e-05
2.7125e-05
2.65961e-05
2.79582e-05
3.02009e-05
2.03075e-05
2.83093e-05
2.14751e-05
3.04621e-05
2.15499e-05
2.13383e-05
2.76551e-05
2.07233e-05
2.769e-05
2.86479e-05
3.04001e-05
3.07252e-05
2.55487e-05
2.53587e-05
3.14394e-05
2.51413e-05
2.29512e-05
2.71763e-05
2.4497e-05
3.09473e-05
2.92415e-05
2.83513e-05
2.25463e-05
2.97301e-05
2.98564e-05
3.09034e-05
2.18293e-05
2.45876e-05
2.84701e-05
2.89817e-05
3.15355e-05
2.33336e-05
2.23536e-05
2.92716e-05
2.79177e-05
3.11672e-05
2.84469e-05
2.04553e-05
2.89673e-05
2.99539e-05
2.20899e-05
2.06752e-05
3.06496e-05
2.36468e-05
2.36297e-05
3.07305e-05
3.09694e-05
3.0244e-05
3.18793e-05
2.81077e-05
2.62897e-05
3.07874e-05
2.46779e-05
3.09154e-05
2.5441e-05
2.86087e-05
3.02082e-05
2.76034e-05
2.19826e-05
3.03707e-05
3.05536e-05
2.62511e-05
2.77221e-05
2.79468e-05
2.45929e-05
2.64281e-05
2.83031e-05
2.78344e-05
3.03844e-05
2.60429e-05
2.93506e-05
2.19952e-05
2.98192e-05
3.12339e-05
2.09437e-05
2.94712e-05
2.85446e-05
1.95379e-05
2.19652e-05
2.84344e-05
2.79803e-05
3.01485e-05
2.62043e-05
2.31051e-05
3.00795e-05
3.07964e-05
3.02387e-05
2.90478e-05
3.11844e-05
2.21567e-05
3.07704e-05
2.79749e-05
2.27731e-05
2.21931e-05
1.85578e-05
2.30488e-05
2.92243e-05
2.64553e-05
2.88813e-05
2.82585e-05
2.42996e-05
2.52376e-05
2.08451e-05
2.0596e-05
3.12615e-05
3.10555e-05
2.34132e-05
3.06471e-05
3.03155e-05
2.2882e-05
2.76109e-05
2.78514e-05
2.43284e-05
2.62243e-05
3.11213e-05
2.41794e-05
2.04308e-05
3.10167e-05
3.06847e-05
2.52473e-05
3.0736e-05
2.54848e-05
2.39743e-05
2.28797e-05
2.728e-05
2.18025e-05
2.26632e-05
2.86847e-05
2.93781e-05
2.7141e-05
2.98131e-05
3.08182e-05
2.75584e-05
3.00456e-05
1.56721e-05
2.73388e-05
2.24053e-05
2.80774e-05
3.00406e-05
2.77513e-05
2.51573e-05
2.76475e-05
2.3379e-05
2.92502e-05
2.76629e-05
2.54073e-05
2.22227e-05
2.03094e-05
1.98765e-05
2.62159e-05
2.24411e-05
2.71149e-05
2.28634e-05
2.63098e-05
3.05964e-05
2.84375e-05
2.63492e-05
2.83434e-05
2.92583e-05
2.75967e-05
2.99422e-05
2.09976e-05
2.82584e-05
3.08013e-05
3.1119e-05
2.71124e-05
3.19337e-05
2.42132e-05
2.89268e-05
2.74734e-05
2.16745e-05
2.9935e-05
3.10134e-05
2.93398e-05
2.95468e-05
2.98171e-05
2.84312e-05
1.99503e-05
2.09135e-05
2.72022e-05
3.13607e-05
2.78117e-05
3.06341e-05
2.55503e-05
2.65469e-05
2.34436e-05
2.17437e-05
2.19022e-05
2.12602e-05
2.92975e-05
2.87015e-05
3.06893e-05
2.68048e-05
2.59624e-05
3.16803e-05
2.20403e-05
2.8225e-05
3.08837e-05
3.02004e-05
2.59457e-05
2.72314e-05
2.98981e-05
3.04088e-05
3.03123e-05
2.32788e-05
2.84036e-05
3.01091e-05
2.87824e-05
2.80728e-05
3.07822e-05
2.93567e-05
3.0904e-05
2.91043e-05
2.47832e-05
2.8894e-05
3.02291e-05
2.92967e-05
2.76436e-05
2.21402e-05
3.07559e-05
3.04653e-05
2.98554e-05
3.04766e-05
2.11316e-05
1.91236e-05
2.72362e-05
2.95528e-05
2.59281e-05
2.92527e-05
3.00906e-05
3.04211e-05
3.04791e-05
2.58249e-05
2.95808e-05
2.78164e-05
3.0052e-05
2.24168e-05
2.23684e-05
2.69299e-05
3.06211e-05
2.32114e-05
3.01216e-05
2.24862e-05
2.67899e-05
2.79434e-05
3.09468e-05
2.70557e-05
3.0875e-05
3.05781e-05
2.96183e-05
2.84447e-05
2.95927e-05
2.8025e-05
2.56806e-05
2.02048e-05
3.15094e-05
1.83377e-05
2.11232e-05
2.36698e-05
2.08956e-05
2.10335e-05
2.69072e-05
2.85244e-05
2.26493e-05
2.54844e-05
1.91658e-05
2.30072e-05
2.61894e-05
3.06333e-05
2.13303e-05
2.15639e-05
2.99453e-05
2.13896e-05
2.67433e-05
2.89474e-05
2.88606e-05
2.74523e-05
2.2435e-05
2.08038e-05
2.55708e-05
3.13802e-05
2.39739e-05
2.15759e-05
2.84765e-05
2.52203e-05
2.84304e-05
2.79091e-05
2.26244e-05
3.00617e-05
2.04547e-05
2.14509e-05
2.62564e-05
3.01216e-05
2.56225e-05
2.648e-05
2.67203e-05
2.84556e-05
2.00194e-05
2.35549e-05
2.69682e-05
3.06874e-05
2.96976e-05
2.15126e-05
1.92867e-05
2.63339e-05
3.1615e-05
2.76851e-05
2.79093e-05
2.50916e-05
2.75864e-05
2.80963e-05
2.22888e-05
3.09276e-05
2.52295e-05
2.19145e-05
1.94767e-05
2.97506e-05
2.79786e-05
3.08159e-05
2.82683e-05
3.03003e-05
2.22588e-05
2.64003e-05
2.03216e-05
1.8912e-05
2.94524e-05
2.28577e-05
2.66293e-05
2.81978e-05
2.85842e-05
2.17849e-05
3.0895e-05
3.00711e-05
3.12734e-05
2.8761e-05
1.78993e-05
2.77937e-05
2.04526e-05
3.05519e-05
2.2346e-05
3.0607e-05
1.93318e-05
2.89632e-05
2.86365e-05
2.4973e-05
2.55832e-05
2.01198e-05
2.47264e-05
2.7912e-05
2.95771e-05
2.91276e-05
3.08797e-05
2.97559e-05
2.26243e-05
3.1e-05
2.66639e-05
2.85236e-05
2.916e-05
3.03886e-05
2.97838e-05
2.79042e-05
3.09056e-05
2.67933e-05
2.54245e-05
2.52146e-05
2.86694e-05
2.98813e-05
2.49355e-05
2.29297e-05
3.02849e-05
2.84893e-05
2.75736e-05
3.11514e-05
2.87774e-05
2.84682e-05
2.86753e-05
3.01127e-05
2.99314e-05
2.79648e-05
2.70322e-05
3.01934e-05
2.9337e-05
2.41743e-05
2.79949e-05
2.43628e-05
3.07546e-05
2.86661e-05
3.09032e-05
2.22716e-05
2.21331e-05
2.81222e-05
2.96223e-05
2.92577e-05
3.0663e-05
3.01927e-05
2.76299e-05
2.94163e-05
2.29209e-05
2.74798e-05
2.77642e-05
3.06955e-05
3.02041e-05
3.08479e-05
2.75602e-05
3.11164e-05
2.3883e-05
3.06591e-05
2.46285e-05
2.73452e-05
2.60482e-05
2.83313e-05
2.75463e-05
2.96359e-05
2.14229e-05
3.04051e-05
2.9704e-05
2.68069e-05
2.23217e-05
3.05649e-05
2.9195e-05
3.00173e-05
2.75354e-05
2.80015e-05
2.97618e-05
2.18672e-05
3.07585e-05
2.69788e-05
2.8169e-05
2.41215e-05
2.49368e-05
2.45764e-05
2.13436e-05
2.57324e-05
3.15795e-05
2.81912e-05
2.02931e-05
2.76282e-05
2.14944e-05
2.83192e-05
2.87384e-05
2.02674e-05
2.12958e-05
2.49142e-05
2.80566e-05
2.97192e-05
2.57647e-05
2.98033e-05
2.70783e-05
2.48721e-05
2.5349e-05
3.0846e-05
3.02831e-05
3.03655e-05
2.97434e-05
2.8923e-05
2.20779e-05
2.31037e-05
3.11504e-05
2.67178e-05
2.81035e-05
2.95411e-05
3.1242e-05
2.8333e-05
2.91236e-05
2.06098e-05
2.98593e-05
3.05045e-05
2.55771e-05
3.06541e-05
3.02323e-05
2.86164e-05
2.60603e-05
2.92423e-05
2.59973e-05
1.99285e-05
2.8367e-05
2.31132e-05
2.14253e-05
2.80466e-05
2.79023e-05
2.9202e-05
2.93814e-05
2.85749e-05
3.10237e-05
1.89207e-05
2.55449e-05
3.06209e-05
3.06194e-05
2.03532e-05
2.82914e-05
2.33995e-05
2.58167e-05
3.10089e-05
2.46775e-05
2.89332e-05
3.12573e-05
2.94232e-05
2.03488e-05
2.95994e-05
2.22847e-05
3.06344e-05
2.95763e-05
2.91707e-05
3.09393e-05
2.86547e-05
3.04648e-05
2.19204e-05
3.00177e-05
3.01013e-05
2.3276e-05
2.91331e-05
2.78457e-05
2.58137e-05
2.99489e-05
2.62636e-05
3.03406e-05
3.09408e-05
3.13416e-05
2.76737e-05
2.99659e-05
2.79938e-05
2.95453e-05
2.42317e-05
2.56752e-05
2.16088e-05
2.10185e-05
2.85802e-05
2.93603e-05
2.78965e-05
3.0954e-05
2.69061e-05
3.10285e-05
2.0739e-05
3.10467e-05
3.12535e-05
2.93012e-05
3.12235e-05
2.36812e-05
2.02931e-05
2.73954e-05
2.16125e-05
3.0758e-05
2.79764e-05
2.04855e-05
2.66214e-05
3.14311e-05
2.83917e-05
2.16253e-05
2.41443e-05
2.03986e-05
3.16037e-05
2.13411e-05
2.99922e-05
2.56792e-05
2.24821e-05
3.0347e-05
3.05341e-05
3.05793e-05
2.97031e-05
2.15809e-05
2.85344e-05
3.05424e-05
2.31742e-05
3.08063e-05
2.79553e-05
3.09727e-05
2.00577e-05
2.98263e-05
2.54885e-05
2.8619e-05
2.53368e-05
2.7332e-05
2.60315e-05
2.49998e-05
2.63758e-05
2.67072e-05
2.92142e-05
2.73814e-05
3.12281e-05
2.3061e-05
2.76464e-05
2.77577e-05
2.96897e-05
3.05055e-05
2.21192e-05
3.03349e-05
2.27867e-05
2.7739e-05
3.0539e-05
3.02197e-05
2.63887e-05
2.88399e-05
2.90559e-05
2.55413e-05
2.79761e-05
2.67346e-05
2.15119e-05
2.1687e-05
2.89783e-05
2.99383e-05
2.75049e-05
2.61157e-05
3.0032e-05
2.24746e-05
2.86577e-05
2.27831e-05
2.94747e-05
3.10451e-05
2.80532e-05
2.19576e-05
2.99637e-05
2.10965e-05
2.8777e-05
3.05488e-05
2.03911e-05
3.15147e-05
2.29932e-05
2.57111e-05
2.62747e-05
2.20722e-05
2.6024e-05
2.63155e-05
2.02371e-05
2.99603e-05
3.036e-05
1.85818e-05
2.55406e-05
2.9368e-05
2.75336e-05
2.87687e-05
3.12732e-05
2.99205e-05
2.69859e-05
2.44003e-05
2.06274e-05
1.98675e-05
2.37261e-05
3.11309e-05
3.01498e-05
2.92787e-05
2.96269e-05
2.22244e-05
2.16028e-05
2.74662e-05
2.97763e-05
2.04742e-05
2.94728e-05
2.81226e-05
2.6563e-05
2.94075e-05
2.60448e-05
2.96238e-05
2.50667e-05
2.7138e-05
3.05712e-05
1.81593e-05
2.88805e-05
2.98441e-05
3.02983e-05
2.90105e-05
3.02661e-05
2.79888e-05
2.20124e-05
3.11188e-05
3.2051e-05
2.82752e-05
2.7747e-05
2.58102e-05
2.76064e-05
2.90544e-05
2.9967e-05
2.79925e-05
2.71703e-05
2.69513e-05
2.07308e-05
2.58909e-05
3.10341e-05
2.89061e-05
3.21828e-05
2.78548e-05
2.62959e-05
3.07476e-05
2.20047e-05
2.95269e-05
2.18792e-05
3.05452e-05
2.90217e-05
2.60745e-05
3.16177e-05
2.56301e-05
2.73958e-05
3.07156e-05
2.65658e-05
3.0722e-05
2.94518e-05
2.94876e-05
2.15215e-05
2.79089e-05
2.7707e-05
2.35447e-05
3.0167e-05
2.67409e-05
2.66634e-05
3.08012e-05
2.22947e-05
3.08426e-05
2.77765e-05
3.03849e-05
2.50724e-05
2.832e-05
2.16129e-05
2.23903e-05
3.11469e-05
2.24509e-05
2.76392e-05
2.97061e-05
2.11077e-05
2.69451e-05
3.00414e-05
2.54449e-05
2.26502e-05
2.45518e-05
2.66442e-05
2.62304e-05
2.95832e-05
2.65157e-05
2.99854e-05
2.81124e-05
3.01179e-05
1.98394e-05
2.36079e-05
3.08538e-05
2.71588e-05
2.08317e-05
2.25442e-05
2.75147e-05
2.25848e-05
2.18506e-05
2.78526e-05
2.73985e-05
3.16588e-05
2.64694e-05
3.03272e-05
3.00885e-05
2.95225e-05
3.041e-05
3.04507e-05
2.62983e-05
2.56235e-05
3.02539e-05
2.70958e-05
2.64141e-05
3.02589e-05
2.77275e-05
2.0706e-05
2.16023e-05
2.67375e-05
2.3461e-05
2.89534e-05
2.99189e-05
2.70626e-05
3.03264e-05
3.01623e-05
2.95771e-05
3.19711e-05
2.6571e-05
2.18156e-05
2.64885e-05
2.64655e-05
2.9823e-05
2.68719e-05
2.90726e-05
3.04171e-05
2.67019e-05
2.55126e-05
2.81719e-05
3.08922e-05
2.93575e-05
3.19727e-05
2.92919e-05
2.61607e-05
2.67625e-05
2.37062e-05
2.52893e-05
3.09627e-05
2.39998e-05
3.12776e-05
2.63434e-05
3.02124e-05
2.14913e-05
2.92522e-05
2.80471e-05
2.98497e-05
2.74279e-05
2.90139e-05
2.76208e-05
3.033e-05
2.10404e-05
2.3279e-05
2.79602e-05
2.59873e-05
2.83064e-05
2.77995e-05
2.80989e-05
3.05017e-05
2.78255e-05
2.03715e-05
2.45358e-05
2.17524e-05
2.8209e-05
2.75452e-05
2.22966e-05
3.18839e-05
2.79492e-05
2.71697e-05
2.98557e-05
2.38435e-05
2.2501e-05
3.13195e-05
2.25418e-05
2.12626e-05
2.68621e-05
2.62588e-05
2.24557e-05
2.48613e-05
3.09175e-05
3.04307e-05
2.60399e-05
2.82926e-05
2.9983e-05
2.76497e-05
2.95102e-05
2.07847e-05
3.05799e-05
1.51829e-05
2.99467e-05
2.21994e-05
2.14166e-05
2.9988e-05
2.14541e-05
2.74841e-05
2.84672e-05
3.0076e-05
2.56634e-05
2.95467e-05
2.67757e-05
2.76577e-05
2.63872e-05
2.94418e-05
2.84206e-05
3.03738e-05
2.815e-05
2.24145e-05
2.94726e-05
2.78451e-05
2.75282e-05
2.70987e-05
2.35718e-05
2.54817e-05
2.09951e-05
2.17638e-05
2.79485e-05
2.67499e-05
2.30583e-05
2.57056e-05
2.97782e-05
3.0982e-05
3.05233e-05
1.53235e-05
2.05348e-05
3.0534e-05
2.12746e-05
2.9117e-05
2.07457e-05
3.05703e-05
2.96939e-05
3.00204e-05
2.21602e-05
2.69771e-05
3.08225e-05
3.06615e-05
2.84121e-05
3.07153e-05
2.76e-05
2.81117e-05
2.75794e-05
2.17656e-05
2.78915e-05
2.49824e-05
2.77166e-05
2.7347e-05
2.31984e-05
2.72384e-05
3.07125e-05
2.42767e-05
2.48462e-05
2.16955e-05
3.01179e-05
2.97592e-05
1.99824e-05
2.73402e-05
2.78618e-05
2.86576e-05
2.19358e-05
2.79336e-05
2.75178e-05
3.15718e-05
2.16399e-05
2.72134e-05
2.7304e-05
2.02407e-05
3.0413e-05
2.28267e-05
2.26512e-05
2.82417e-05
3.10394e-05
2.09531e-05
3.0133e-05
2.88736e-05
2.79514e-05
2.04472e-05
3.07494e-05
3.1029e-05
2.06137e-05
2.80982e-05
1.98716e-05
2.30213e-05
3.07314e-05
2.60597e-05
2.8159e-05
2.96233e-05
3.13512e-05
2.68375e-05
2.56772e-05
2.71022e-05
2.67876e-05
2.7983e-05
2.56601e-05
3.06568e-05
2.23546e-05
2.61967e-05
2.76489e-05
2.62647e-05
2.99198e-05
2.72387e-05
2.92644e-05
2.92031e-05
2.81516e-05
3.07777e-05
2.92466e-05
2.62709e-05
2.45235e-05
2.96e-05
2.70038e-05
2.62602e-05
2.89791e-05
3.10604e-05
2.94175e-05
2.9498e-05
2.59105e-05
2.93383e-05
2.4671e-05
2.15979e-05
2.75155e-05
2.84066e-05
2.11902e-05
2.87855e-05
2.726e-05
1.87313e-05
2.17118e-05
2.93008e-05
2.1724e-05
2.66522e-05
2.95438e-05
2.85055e-05
2.15026e-05
2.82465e-05
3.15578e-05
2.25281e-05
2.17383e-05
2.24393e-05
3.04477e-05
2.77681e-05
2.70383e-05
3.00835e-05
2.15808e-05
2.92674e-05
2.81452e-05
3.10029e-05
3.08299e-05
1.63499e-05
2.80894e-05
2.87853e-05
2.91335e-05
2.77441e-05
2.75397e-05
2.36772e-05
2.81911e-05
3.11977e-05
2.48949e-05
2.03141e-05
2.5887e-05
3.03205e-05
2.91582e-05
2.09544e-05
2.67067e-05
3.0005e-05
3.07101e-05
2.75027e-05
2.71223e-05
1.9819e-05
2.19459e-05
2.18431e-05
2.78564e-05
2.68097e-05
2.83513e-05
3.14288e-05
3.0271e-05
2.43025e-05
3.03262e-05
3.041e-05
2.94443e-05
2.55833e-05
3.0388e-05
2.68492e-05
2.29346e-05
2.54939e-05
2.74183e-05
2.86746e-05
2.53896e-05
2.8785e-05
2.5567e-05
3.02431e-05
2.25694e-05
2.01485e-05
2.66296e-05
3.07073e-05
2.92568e-05
2.53433e-05
2.60752e-05
2.95276e-05
3.04474e-05
2.56286e-05
2.6479e-05
3.01416e-05
3.11249e-05
2.93929e-05
3.10211e-05
2.96399e-05
2.98369e-05
2.05799e-05
2.65677e-05
2.17452e-05
2.90095e-05
3.03423e-05
2.54352e-05
2.1539e-05
3.07505e-05
2.14523e-05
2.47473e-05
2.2685e-05
2.7121e-05
2.10725e-05
2.88764e-05
2.76354e-05
2.72792e-05
2.73842e-05
2.35391e-05
3.06559e-05
2.22512e-05
2.908e-05
2.75636e-05
2.69826e-05
2.14057e-05
2.98115e-05
2.8818e-05
2.30942e-05
2.39262e-05
2.66562e-05
2.61834e-05
2.70786e-05
2.10985e-05
2.83915e-05
2.59525e-05
2.79968e-05
2.47066e-05
2.51166e-05
2.48982e-05
2.16506e-05
2.96232e-05
2.75355e-05
8.20191e-06
2.26407e-05
2.83091e-05
3.04056e-05
2.97444e-05
2.3349e-05
2.33164e-05
3.05919e-05
2.20597e-05
3.00264e-05
3.09292e-05
2.78592e-05
2.25914e-05
3.05835e-05
2.13213e-05
1.9973e-05
1.98278e-05
2.89491e-05
2.72444e-05
2.50535e-05
3.10491e-05
2.93572e-05
2.81805e-05
2.28163e-05
1.91496e-05
3.13062e-05
2.79831e-05
3.13751e-05
3.05366e-05
2.15121e-05
2.70728e-05
2.61681e-05
2.68375e-05
2.74557e-05
2.54343e-05
2.64994e-05
3.21347e-05
2.79531e-05
2.6069e-05
2.23384e-05
2.84108e-05
2.72029e-05
2.88722e-05
2.59798e-05
2.12707e-05
2.22889e-05
2.84452e-05
2.91393e-05
2.56658e-05
2.95711e-05
2.47705e-05