/*--------------------------------*- C++ -*----------------------------------*\
| =========                 |                                                 |
| \\      /  F ield         | OpenFOAM: The Open Source CFD Toolbox           |
|  \\    /   O peration     | Version:  2212                                  |
|   \\  /    A nd           | Website:  www.openfoam.com                      |
|    \\/     M anipulation  |                                                 |
\*---------------------------------------------------------------------------*/
FoamFile
{
    version     2.0;
    format      ascii;
    arch        "LSB;label=32;scalar=64";
    class       volScalarField;
    location    "0.06";
    object      p;
}
// * * * * * * * * * * * * * * * * * * * * * * * * * * * * * * * * * * * * * //

dimensions      [0 2 -2 0 0 0 0];

internalField   nonuniform List<scalar> 
31639
(
0.0109688
0.0076223
0.0125418
0.0055716
0.00771276
0.0107332
0.0120513
0.0114654
0.00814151
0.00695041
0.0119256
0.00776175
0.00806963
0.0104984
0.00913789
0.0128292
0.0148789
0.0152019
0.0024886
0.0116757
0.00851006
0.00656607
0.0089298
0.00551812
0.00958606
0.0113413
0.0110321
0.0348759
0.0115376
0.0115105
0.00617051
0.0164285
0.00820864
0.00443476
0.0200223
0.0114467
0.0065791
0.0119733
0.0119536
0.00977475
0.00780313
0.0111944
0.0087441
0.0121355
0.0125129
0.00520969
0.00784497
0.00617985
0.0134503
0.00563167
0.00519321
0.00415283
0.0204215
0.0124234
0.00406346
0.0151789
0.00666317
0.0111174
0.0076323
0.00532063
0.00583359
0.0111863
0.00929461
0.0114474
0.0201955
0.00329098
0.0020155
0.00639627
0.00794556
0.00495387
0.00703163
0.0149987
0.00687417
0.00296826
0.020494
0.0162659
0.00705827
0.00653213
0.00756625
0.00719721
0.0109349
0.0105066
0.0103456
0.00574411
0.0102298
0.00946505
0.00874432
0.00618471
0.00203619
0.00822082
0.00468059
0.0149308
0.0054522
0.00727317
0.00348634
0.0110456
0.00592983
0.00419553
0.00797605
0.0105811
0.0187396
0.0188556
0.00962892
0.00731626
0.00405551
0.00505482
0.0107796
0.00534087
0.00621848
0.00968102
0.0120093
0.0104387
0.0111833
0.0065796
0.00291954
0.0116717
0.0201786
0.0123927
0.0182391
0.00586822
0.0165809
0.00506851
0.00263625
0.00559632
0.0106882
0.0105186
0.00754125
0.00568905
0.00694113
0.0084071
0.0198527
0.000873113
0.0127005
0.00297915
0.00357837
0.00636269
0.006657
0.00727126
0.00522868
0.00583004
0.00577187
0.0085999
0.00938188
0.00537096
0.0078195
0.0102195
0.019018
0.00666174
0.00987061
0.0203671
0.00596324
0.0136943
0.004262
0.00384423
0.00498833
0.00379462
0.0028058
0.00699226
0.0133213
0.00632682
0.00347238
0.0150487
0.00677327
0.0111626
0.015928
0.0159982
0.0124789
0.0139346
0.00438566
0.00306041
0.014474
0.0104906
0.0142098
0.00815892
0.0101473
0.00680162
0.00919484
0.0165315
0.0063852
0.00964163
0.00797058
0.013167
0.0112337
0.0116798
0.0117246
0.0114799
0.0136963
0.00965405
0.0105026
0.0130359
0.013267
0.00690367
0.0134955
0.00408995
0.00467966
0.00485196
0.00467556
0.00743142
0.00477512
0.0118453
0.00992177
0.0150559
0.0132051
0.0140733
0.00680509
0.00564079
0.00235521
0.00398682
0.0168111
0.00457057
0.00457994
0.00974755
0.0189246
0.0101395
0.0122088
0.0102347
0.0102322
0.0102082
0.0143404
0.00765192
0.00791623
0.00976983
0.0103348
0.0143376
0.0124754
0.00710047
0.012849
0.0126036
0.00891766
0.0163314
0.00429798
0.011854
0.015055
0.0130415
0.0133507
0.00224702
0.00206393
0.0136105
0.011234
0.00405388
0.00574037
0.0122636
0.0142377
0.0134309
0.00592859
0.0153783
0.00452571
0.01587
0.0130006
0.00228122
0.000656568
0.00520219
0.0133222
0.0152763
0.00741842
0.00792655
0.0111377
0.00340012
0.01099
0.0126837
0.00531072
0.00426184
0.00743627
0.0105008
0.00749092
0.0101837
0.00167189
0.0192909
0.0121492
0.0108298
0.0247433
0.00508126
0.0110464
0.0136885
0.00657314
0.0128798
0.00469731
0.0143781
0.00639684
0.00522062
0.0161029
0.0165302
0.0164181
0.0218271
0.0117848
0.0118567
0.0143864
0.0137148
0.0025971
0.0133164
0.0148056
0.00118443
0.00425691
0.00425227
0.0124871
0.00367694
0.0149581
0.00198843
0.00584292
0.00678461
0.00629899
0.0143685
0.0045425
0.00406281
0.00909191
0.00365777
0.010395
0.00239741
0.00876518
0.0144004
0.00607526
0.0241102
0.0192719
0.00855152
0.00784278
0.0110583
0.00211952
0.0166346
0.0129143
0.0127167
0.0121992
0.00508913
0.0186128
0.00374129
0.0100381
0.0135735
0.0122054
0.0137328
0.00442548
0.00511448
0.00530332
0.00556021
0.0146835
0.00416967
0.0150945
0.0200539
0.020533
0.00636108
0.0139063
0.0157654
0.00355018
0.00173443
0.0153218
0.00319636
0.00457829
0.0142237
0.00383614
0.0125725
0.0124245
0.0186776
0.00704554
0.014349
0.00698821
0.0132575
0.00403717
0.00527255
0.00452905
0.00913867
0.0092669
0.0138504
0.0151125
0.00926249
0.0240187
0.00257341
0.00642034
0.00577806
0.00309503
0.00921154
0.00985898
0.0137414
0.00893906
0.0167945
0.0104904
0.00494227
0.00332678
0.00553511
0.0193284
0.0161741
0.0134601
0.0169582
0.0127792
0.00416109
0.00626664
0.00413783
0.00383177
0.00363709
0.0044759
0.00771419
0.000332685
0.01542
0.00225036
0.0170684
0.00453362
0.0142865
0.00393285
0.0146546
0.0155654
0.0116974
0.00558684
0.0226368
0.0152186
0.0119938
0.0114226
0.00378812
0.013495
0.00204271
0.00592828
0.00599026
0.00622828
0.0117202
0.00512155
0.00604313
0.0134465
0.0248839
0.0122848
0.0134989
0.00989559
0.0105558
0.0094503
0.00785236
0.00757942
0.018633
0.00902243
0.000790632
0.0134194
0.0245066
0.00867588
0.0181953
0.0104935
0.0125775
0.00547789
0.0045483
0.0143357
0.0051687
0.0114008
0.011419
0.0139114
0.00338758
0.00417732
0.0149039
0.00630278
0.00220463
0.00266603
0.0102667
0.0035535
0.00639602
0.00674683
0.0156607
0.0153132
0.0165693
0.0155654
0.0135584
0.00659296
0.0139237
0.00625813
0.0147928
0.016606
0.00513688
0.0135912
0.00569395
0.0111745
0.0159536
0.0105669
0.00286287
0.0131075
0.036691
0.00282277
0.00847968
0.00577531
0.012747
0.0016543
0.00437659
0.00524316
0.00436388
0.013872
0.00111543
0.00876676
0.0179063
0.00791169
0.00916655
0.00529144
0.0195845
0.00340268
0.00722202
0.0186504
0.0239799
0.0086821
0.012455
0.0101193
0.00676275
0.00521805
0.00395917
0.0164456
0.0018621
0.0107736
0.0103745
0.00983033
0.00295234
0.00447507
0.0157499
0.0177682
0.00221325
0.00258805
0.00291562
0.00170144
0.0209405
0.00599111
0.00247799
0.0167187
0.0186791
0.0166528
0.00348684
0.0150819
0.0139572
0.0159051
0.00178842
0.0186573
0.0186896
-0.000363436
0.0162039
0.0156591
0.0163055
0.0103511
0.0173621
0.000716945
0.00282058
0.0158912
0.00232002
0.00283335
0.00481622
0.0117452
0.00794851
0.0146233
0.00097052
0.00515736
0.00835502
0.0174937
0.00112423
0.0139335
0.00213297
0.0242796
0.0245228
0.00576383
0.0351576
0.00594129
0.00590414
0.00961728
0.00992537
0.00688396
0.00940026
0.0252214
0.00689224
0.0136085
0.000545924
0.00616518
0.00957318
0.00537721
0.0155701
0.00120577
0.00371267
0.00937899
0.00333696
0.00846
0.00862241
0.00466223
0.0196804
0.00341595
0.00237382
0.00032439
0.0109306
0.0179369
0.00268387
0.000529123
0.00331099
0.00364589
0.00286648
0.0166216
-6.66401e-05
0.00108903
0.000736884
0.0150141
0.00185621
0.0156779
0.016005
0.0166888
0.00487519
3.33293e-05
0.000164668
0.0025374
0.000711064
0.0102558
0.000880314
0.0102548
0.0162302
0.0013653
0.00594905
0.00798712
0.0195913
0.0180685
0.014171
0.00673879
0.00324906
0.0187781
0.0161668
0.00151261
0.00166273
0.00695625
0.0118265
0.00484005
0.000991087
6.74221e-05
0.000806335
0.0155805
0.0130845
0.00597237
0.0361095
0.0128199
0.0100344
0.00689868
0.0108366
0.0138856
0.0137505
0.0096161
0.00613172
0.00767202
0.00794074
0.0130194
0.0030133
0.00934718
0.00109349
0.0101795
0.0237989
0.0164604
0.0153057
0.0113843
0.00894651
0.0215977
0.0100751
0.0120811
0.00535782
0.0192041
0.018091
0.0026215
0.00996461
0.0112734
0.00018432
0.0220122
0.00606942
0.00102241
0.00295392
0.00167534
0.0195674
0.0178615
0.0182501
0.0027547
8.85303e-05
0.0154427
0.0103749
0.0162915
0.0167555
0.0168639
0.00109445
-3.29227e-05
0.0159073
0.0139218
0.0144045
0.0168284
0.000933624
0.00599677
0.0247262
0.00348461
0.0019949
0.0172935
0.00981282
0.00410274
0.0157602
0.0155123
0.01268
0.00728021
0.00487402
0.0114845
0.00664052
0.000303804
0.000622134
0.00127313
0.00487577
0.0018314
0.019566
0.0069327
0.000521566
0.000612176
0.0150005
0.00527743
0.000633646
0.0363981
0.00491494
0.00584741
0.00789438
0.00890692
0.00753215
0.00965405
0.0090953
0.00612202
0.00703733
0.0101372
0.00648411
0.00604604
0.00685183
0.00904506
0.0172563
0.00977977
0.00924346
0.0151432
0.019584
0.0167072
0.0046121
0.00910274
0.00260241
0.0102741
0.0204356
0.000768063
0.00188053
0.00172977
0.00522811
0.00606897
0.0150426
0.0144457
0.00426806
0.0017401
0.0117423
0.0195042
0.000460316
0.0160192
0.00638462
0.0148386
0.0135683
0.0143776
0.0184373
0.0171163
0.022181
0.0157364
0.0131418
0.0163051
0.0147562
0.0152608
0.0054915
0.0192327
0.00538722
0.00140898
0.00358305
0.0149582
5.05664e-05
0.0123299
0.00291796
0.00405443
0.0124119
0.00742049
0.0185615
0.00343744
0.0129773
0.00419504
0.0213438
0.0061527
0.000485889
0.000877694
0.0174132
0.0116484
0.000789099
0.0018999
0.00107482
0.0036723
0.000503595
0.000236018
0.0146678
0.0142219
0.000132847
0.0142505
0.0125896
0.0152499
0.00833673
0.00822966
0.00665429
0.0106994
0.0112393
0.00519477
0.000835585
0.00982613
0.013439
0.00994843
0.0183665
0.0165127
0.00984786
0.0160973
0.00607188
0.0247569
0.00289567
0.0161495
0.00967033
5.4715e-05
0.011004
0.00281685
0.00591276
0.00242099
0.00240736
0.0123437
0.0175446
0.00428163
0.0154801
0.000748731
0.000707622
0.000794745
0.020397
0.0205823
0.0195568
0.021051
0.0173171
0.0160002
0.00536853
0.00341322
0.00592691
0.00156624
0.0114431
0.00512706
0.0134853
0.00744787
0.00596309
0.00184233
-0.000123578
0.00435777
0.00232204
0.0182624
0.00791795
0.00427069
0.00410876
0.00759922
0.000712967
0.0128512
0.00414937
0.0160563
0.00306867
0.00206864
0.0105304
0.0104821
0.0163918
0.0194489
0.0169985
0.0129382
0.00725573
0.00788315
0.0154382
9.01977e-05
0.000862013
0.0151726
0.0155172
-0.000130582
0.000311562
0.00215965
0.0152878
0.00399098
0.00929161
0.0196599
0.0192631
0.00982728
0.0230202
0.00740999
0.00639799
0.00660182
0.00425136
0.00263532
0.0161582
0.00272594
0.00982973
0.0119164
0.0181754
0.00572365
0.0066332
0.00628389
0.0146513
0.0148464
0.0148393
0.0210852
0.00195568
0.0171279
0.0168467
0.0172135
0.00932883
0.000328196
0.0202903
0.020875
0.0192197
0.0113367
0.0120209
0.0130697
0.0122066
0.0146026
0.0112025
0.00046286
0.0153163
0.00711542
0.00486267
0.0155789
0.00117385
0.000684227
0.00271732
0.00256825
0.0186248
0.00749306
0.00272289
0.00381012
0.00678353
0.0138058
0.00645871
0.00593021
0.0124458
0.00868978
0.000246251
0.0160412
0.0101523
0.0168782
0.00846396
0.00175766
0.0130417
0.0129824
0.000644382
0.00748803
0.00695665
0.000484094
0.000606736
0.0158955
0.018241
0.00734691
0.00954055
0.00108542
0.0168874
0.0210524
0.0176616
0.012193
0.00568021
0.0166432
0.0125455
0.00657999
0.009206
0.00509515
0.00519271
0.00819344
0.0156473
0.00281008
0.0102515
0.00644465
0.00581898
0.000178811
0.0175161
0.00684515
0.0180611
0.00496614
0.0147991
0.0170379
0.00849556
0.00850356
0.0178145
0.0144108
0.0162266
0.0062722
0.00726
0.0143069
0.0136423
0.0108331
0.011507
0.0166883
0.0170867
0.0225076
0.0132093
0.0149128
0.000926576
0.000590004
0.0153024
0.0139668
0.00717923
0.016611
0.00236827
0.0116559
0.0130124
0.0163618
0.00200858
0.0167684
0.0152337
0.0181287
0.0172661
0.018031
0.00848888
0.0155193
0.00687755
0.011963
0.011571
0.0109986
0.0187812
0.0173928
0.0168508
0.0142398
0.00770635
0.0100411
0.0110838
0.0170838
0.0109629
2.50058e-05
0.0177818
0.0195977
0.00924284
0.00777968
0.00326607
0.00228782
0.00649536
0.0172547
0.00539134
0.00576571
0.0213049
0.00864459
0.00319175
0.0044142
0.000358689
0.00825756
0.00933864
0.00849821
0.0159583
0.000545311
0.0184372
0.00165265
0.0179068
0.0173109
0.0211576
0.00813335
0.00839284
0.00712289
0.0134002
0.0119183
0.0138844
0.0215176
0.015661
0.0164449
0.0109929
0.0133519
0.0078953
0.0140398
0.0121778
0.00267324
0.00243322
0.00979453
0.000759208
0.00696998
0.0186098
0.0196096
0.0035421
0.0179943
0.0116725
0.0188616
0.0103947
0.010636
0.00141376
0.000780584
0.0137305
0.0124227
0.00597476
0.00786795
0.00743732
0.0115344
0.00796615
0.0155928
0.0166923
0.0214301
0.0164779
0.0177658
0.0107585
0.00756625
0.00884107
0.000780895
0.00152159
0.00289662
0.00778373
0.00703015
0.0123514
0.00727042
0.0130011
0.0147572
0.0163507
0.00752193
0.00466796
0.0218134
0.0114259
0.0195606
0.019361
0.00858242
0.0197541
0.00198803
0.0166764
0.00498137
0.00935363
0.00371098
0.00726465
0.00816203
0.0187026
0.0190527
0.000603433
0.0171226
0.020487
0.0233884
0.00759103
0.0144352
0.0165231
0.0167761
0.00675968
0.00728946
0.0156091
0.0235788
0.0155285
0.00285826
0.0137032
0.0230659
0.0133673
0.0130859
0.0127497
0.00635634
0.0193423
0.0167196
0.019511
0.00167871
0.0140457
0.00110702
0.011524
0.0163507
0.003499
0.0164483
0.0051252
0.0156601
0.0212922
0.00919636
0.000440712
0.010438
0.0111371
0.000641022
0.00689967
0.0069708
0.0109722
0.00805387
0.0221735
0.0179588
0.00706071
0.00696001
0.0173653
0.00977312
0.0165847
0.0215741
0.0168217
0.000551119
0.000548882
0.0177825
0.0154613
0.0108079
0.012073
0.013826
0.0114588
0.0119136
0.019483
0.0170688
0.0204942
0.0154021
0.0134801
0.0018846
0.0197143
0.00260216
0.00745305
0.0184197
0.0197246
0.0159361
0.00833115
0.00745255
0.000394697
0.0172581
0.0106517
0.0183091
0.0100461
0.019389
0.0204869
0.0129405
0.0138296
0.00824333
0.00400925
0.0223924
0.0106604
0.0136847
0.0106512
0.00982296
0.0142745
0.0226482
0.0131138
0.0122513
0.0242906
0.00210698
0.0191517
0.0118143
0.0235466
0.0122083
0.00981337
0.0190091
0.0194871
0.0034778
0.00724984
0.00403219
0.00499006
0.0168437
0.00891136
0.00968664
0.00038054
0.00773482
0.0281375
0.00795275
0.00831526
0.0114863
0.0118497
0.0111984
0.0177073
0.0182351
0.0131486
0.0070433
0.0179917
0.010096
0.0186372
0.0166528
0.0168221
0.0185405
0.0189316
0.0173714
0.00662961
0.000500158
0.0199781
0.0060182
0.0209538
0.0233524
0.0219146
0.00795856
0.0199868
0.0134157
0.00210285
0.00172386
0.00290779
0.0178181
0.0184707
0.0183538
0.0170159
0.0204719
0.00837659
0.00688395
0.0187111
0.0207027
0.00985075
0.0184084
0.0197769
0.0131088
0.00758147
0.0225009
0.0201004
0.0172818
0.0140039
0.0179013
0.0146853
0.0192654
0.00158975
0.0147305
0.0173207
0.0197608
0.0140646
0.0188219
0.00940823
0.0236722
0.0147473
0.00193587
0.0179283
0.00428515
0.000108914
0.00405019
0.0141136
0.0120137
0.0139671
0.0179773
0.0195123
0.00734128
0.0154086
0.00878019
0.0119583
0.0113446
0.0111506
0.00686936
0.0182958
0.0122851
0.0127902
0.0181764
0.0127468
0.00632711
0.00607452
0.0127963
0.0134596
0.0122362
0.0170533
0.0174725
0.00099573
0.0120779
0.0181953
0.0173086
0.0125181
0.0128101
0.0105368
0.0131052
0.0228642
0.00113512
0.0062648
0.0190768
0.00293036
0.00840644
0.00910134
0.00866859
0.0212307
0.0224725
0.002809
0.0230303
0.0205173
0.0147136
0.0146582
0.020797
0.0152052
0.0192369
0.0180578
0.0035691
0.00801129
0.0218733
0.000390033
0.000648763
0.0209575
0.0195214
0.0034464
0.0207701
0.0152611
0.0132983
0.00867365
0.0196926
0.0191669
0.00695597
0.0182078
0.0168594
0.0148502
0.013279
0.000784602
0.00137866
0.00101879
0.0153143
0.0175639
0.0113151
0.0199301
0.0226987
0.0109398
0.00970937
0.00678177
0.00406001
0.0242255
9.18039e-05
0.00277495
0.00869164
0.00103897
0.000221859
0.000406406
0.00930137
0.00680164
0.000814797
0.0300286
0.0190435
0.0143355
0.0222631
0.012432
0.0239315
0.00390312
0.00769056
0.00803704
0.0231458
0.0231409
0.0125104
0.00653901
0.0130813
0.011812
0.0154375
0.0143502
0.0149227
0.0175263
0.0012923
0.0187036
0.0188126
0.0189953
0.018472
0.0155012
0.015264
0.0117626
0.0108371
0.0198447
0.0172364
0.00553153
0.0043209
0.0116653
0.0167475
0.0221756
0.00538248
0.00626668
0.0064726
0.0166571
0.0210356
0.0221997
0.0220246
0.00172576
0.00101698
0.0207014
0.000658386
0.0204065
0.0212263
0.00427362
0.00595199
0.00267668
0.0198002
0.00752623
0.0173924
0.0136409
0.0136958
0.021418
0.0218279
0.00979906
0.0239461
0.023721
0.0161547
0.014823
3.19029e-05
0.00057035
0.0164743
0.0149001
0.017962
0.0234464
0.0358629
0.0238619
0.0188087
0.0238827
0.018952
0.00232012
0.0173999
0.0200769
0.00269849
0.0189628
0.00460042
0.000480564
0.0185843
0.000628679
0.00859727
0.00934379
0.00925323
0.00851082
0.000394249
0.00181845
0.00583506
0.022683
0.0212026
0.0153223
0.00908476
0.0115165
0.00726579
0.00910708
0.00676006
0.00884523
0.00868133
0.00780739
0.0162156
0.0139182
0.0186126
0.0137698
0.0186601
0.00126884
0.0182467
0.000916201
0.0241264
0.0188292
0.0123391
0.0155
0.0074979
0.00985855
0.00343751
0.00249974
0.00604226
0.00405341
0.011119
0.0182859
0.00853474
0.0143008
0.0130535
0.00510057
0.0128274
0.0226249
0.00132141
0.00290843
0.00120612
0.0149022
0.0212721
0.0172023
0.00556269
0.00433634
0.0210732
0.00267095
0.0210358
0.0198589
0.0364127
0.0211115
0.0208685
0.0238296
0.0224029
0.0214165
0.0167466
0.00428919
0.0173194
0.00410637
0.0177336
0.0183942
-2.48534e-05
0.0224711
0.0104915
0.00209483
0.0175841
0.0203511
0.0172748
0.019881
0.017328
0.0087816
0.0107369
0.0167214
0.0188576
0.0206422
0.0221554
0.000657134
0.00290806
0.0141173
0.018736
0.0175699
0.0155787
0.0164882
0.00121036
0.0155804
0.00839321
0.00876049
0.0085803
0.00749045
0.00988062
0.0119655
0.000493184
0.0190764
0.0199096
0.0167993
0.00111275
0.0197859
0.0120159
0.0126388
0.0142482
0.0149124
0.017392
0.0135694
0.0305797
0.00346604
0.0124066
0.0193143
0.0148795
0.0148649
0.00287558
0.0134906
0.0212473
0.0235928
0.017442
0.00799222
0.0205726
0.00730519
0.0137439
0.0219
0.0230771
0.0137011
0.0233416
0.0231369
0.0229794
0.0213917
0.0145055
0.0222797
0.0211233
0.0185183
0.00825942
0.0166345
0.00655293
0.00179303
0.0170216
0.00539867
0.0217516
0.0221686
0.0215484
0.0200528
0.012702
0.0202083
0.0229593
0.00709061
0.00500505
0.00986648
0.024462
0.0166372
0.0160504
0.00409464
0.00355947
0.0192594
0.00122172
0.0116753
0.0239621
0.0205923
0.0174763
0.0181065
0.0108572
0.00960764
0.00250072
0.0186559
0.00026817
0.00680109
0.0209112
0.000872444
0.0025872
0.00406205
0.00528441
0.00310262
0.0146843
0.0166102
0.0192907
0.0126361
0.00776765
0.0278795
0.00773409
0.00891569
0.00954251
0.0201343
0.0181313
0.02285
0.0205483
0.00640639
0.0114529
0.0110947
0.011097
0.0129429
0.0157626
0.0157967
0.0183913
0.0174522
0.0164193
0.0120413
0.00892436
0.00904458
0.00218086
0.0172948
0.0205968
0.00736637
0.00303556
0.0308349
0.0116313
0.0210277
0.0142162
0.0213986
0.0256226
0.0166058
0.00743389
0.00630637
0.0136436
0.0225135
0.0215922
0.00561417
0.0241157
0.000187134
-0.000237318
0.0208755
0.0232274
0.0115844
0.00959205
0.0194705
0.00494302
0.0217195
0.0235098
0.00946958
0.0192202
0.0199523
0.029634
0.00537161
0.0225655
0.0131668
0.0137548
0.0189195
0.022609
0.00248307
0.0176307
0.0241406
0.0234891
0.0251302
0.00536322
0.0196948
0.0192222
0.00277309
0.0156027
0.0226406
0.0160968
0.00223593
0.00699572
0.0147965
0.00485082
0.016344
0.00688122
0.000576503
0.000756431
0.00992338
0.00284986
0.0214199
0.012529
0.00546235
0.00955062
0.0222164
0.0222651
0.0197077
0.0206639
0.0219127
0.0126346
0.00226442
0.00471465
0.010931
0.0187029
0.0187674
0.0192869
0.0194949
0.0132713
0.0130423
0.0117969
0.0162249
0.0143734
0.0144913
0.015633
0.0236205
0.0170223
0.0187943
0.0160052
0.0177498
0.0175403
0.00884166
0.0172228
0.013451
0.00830709
0.0120884
0.0272777
0.0136308
0.0304061
0.018063
0.0052038
0.00806331
0.0158825
0.0258552
0.0145494
0.0137245
0.00615079
0.0181143
0.000542686
0.00152597
0.000294118
0.0223727
0.0220275
0.0226358
0.0116531
0.0244518
0.00434984
0.023182
0.0235104
0.0226368
0.00232129
0.0258083
0.0228287
0.00171848
0.024183
0.0137658
0.0144589
0.0135245
0.0188604
0.0204646
0.0168283
0.0176715
0.0187297
0.0115722
0.0111444
0.00287201
0.0234947
0.0185119
0.0211297
0.0162083
0.0205762
0.0229707
0.00853074
0.0221876
0.00226055
0.0165415
0.00785895
0.000877721
0.000138953
0.00995595
0.0207127
0.00780281
0.0189077
0.0192571
0.0064948
0.0202772
0.0075314
0.02428
0.019269
0.0239743
0.0180413
0.00978361
0.0190263
0.0199354
0.022092
0.00508335
0.0196252
0.0196236
0.0205596
0.0220505
0.0157573
0.0208479
0.0167994
0.00224856
0.0200107
0.00500457
0.0149015
0.0157465
0.0107976
0.0172651
0.0260855
0.0131558
0.0121395
0.0128397
0.0088941
0.0167426
0.0062047
0.0111113
0.0204918
0.00969271
0.0193708
0.0057954
0.0207074
0.017267
0.00537476
0.0146341
0.0214085
0.00566905
0.0169748
0.0111637
0.00150225
8.56275e-05
0.00150738
0.0216548
0.0142255
0.0162212
0.012363
0.0120975
0.0217035
0.0235221
0.0228065
0.0172665
0.0224532
0.018384
0.0237485
0.0125051
0.0241884
0.0239955
0.0240375
0.0233024
0.0226152
0.00273374
0.0190162
0.0226988
0.0172631
0.015637
0.0252465
0.0227574
0.0114339
0.0236047
0.00236748
0.0214279
0.022466
0.0156551
0.0149787
0.0202571
0.0212348
0.0202166
0.000999894
0.0236226
0.0178686
0.00673822
0.000331714
0.0233739
0.00717416
0.00299385
0.00195008
0.000253986
0.0167808
0.00531153
0.028098
0.00854844
0.0201776
0.0107768
0.00819015
0.0117881
0.0197273
0.00843177
0.0234226
0.0194912
0.0114337
0.0218665
0.01958
0.016784
0.0262015
0.017726
0.0225281
0.0144599
0.0242898
0.0143988
0.0143259
0.00304054
0.0183117
0.017235
0.0182642
0.0210576
0.0154087
0.0243521
0.0182388
0.017735
0.00245781
0.00541991
0.0244414
0.0128564
0.00475975
0.0129307
0.0322314
0.00781999
0.0252539
0.00585984
0.0011552
0.00973991
0.0101051
0.0089478
0.0167196
0.00511694
0.0155954
0.0195878
0.0139142
0.00462102
0.00499848
0.0229182
0.00140438
0.017066
0.0158663
0.0105037
0.0213798
0.0255121
0.0110772
0.021347
0.0200042
0.017657
0.000347391
0.0172568
0.0192893
0.0228348
0.0232882
0.0262689
0.0244362
0.00302281
0.00199373
0.0246868
0.00291328
0.0220928
0.0236368
0.0219609
0.00475705
0.0269651
0.0103607
0.0195639
0.0235167
0.0212222
0.0218934
0.0210064
0.0200038
0.0182992
0.0107478
0.0200606
0.0151996
0.00176711
0.00997786
0.0220291
0.0200213
0.0258597
0.0272508
0.00138577
0.0142208
0.00231196
0.00444221
0.022979
0.0043745
0.00374826
0.0241406
0.0055605
0.00946231
0.0138868
0.0233743
0.000243226
0.0228032
0.0196426
0.0107809
0.0224074
0.0238601
0.0123712
0.0224928
0.018216
0.0241337
0.0224422
0.0220895
0.016327
0.02504
0.01741
0.00503805
0.00530427
0.0242897
0.018116
0.0221998
0.0269297
0.0200048
0.0213072
0.0265545
0.00529467
0.0241059
0.0235641
0.0242453
0.0132682
0.0350612
0.00407778
0.0068258
0.0107262
0.00991385
0.026216
0.00791672
0.0192155
0.0152584
0.0159363
0.0149077
0.00539443
0.00973736
0.00634243
0.0228162
0.00103784
0.0242864
0.0247822
0.0250331
0.0118489
0.0207794
0.0309702
0.0193101
0.00171751
0.0223022
0.00743838
0.0093338
0.0255156
0.0119719
0.0252019
0.0256376
0.0171829
0.0026891
0.0227841
0.0218348
0.0226405
0.0168302
0.0223925
0.0224076
0.021615
0.0190896
0.0196492
0.0202259
0.0203178
0.0167013
0.0155121
0.00156076
0.023259
0.0140858
0.0151334
0.016479
0.0083726
0.00701819
0.0280819
0.0218881
0.0200506
0.0254609
0.0263373
0.00983494
0.00401187
0.00680231
0.0276
0.0142021
0.00723099
0.0236465
0.00612138
0.0205939
0.0117842
0.00514682
0.00492884
0.0192769
0.011191
0.0211441
0.000873926
0.0186084
0.00192386
0.0201584
0.0115243
0.0168325
0.0172787
0.0164086
0.0212333
0.0205679
0.0231973
0.00712931
0.0316092
0.0305014
0.0268679
0.0185381
0.0182986
0.0142326
0.019382
0.0216204
0.0227754
0.025959
6.44905e-05
0.0100981
0.0111604
0.0343902
0.0232825
0.00287935
0.0239748
0.00291017
0.0136579
0.0156742
0.00955422
0.00695638
0.0270036
0.0219865
0.0074367
0.0147282
0.0278492
0.00947682
0.00582017
0.000476273
0.0136012
0.00201504
0.0250619
0.00594426
0.0266
0.0315431
0.00814002
0.0221818
0.000294818
0.000317793
0.00769926
0.0256586
0.0256601
0.0244219
0.0217141
0.00160288
0.0167805
0.0360949
0.0160356
0.0216198
0.0205965
0.0213986
0.0216653
0.0171895
0.0237133
0.0211022
0.00737708
0.00180034
0.00204527
0.00206295
0.0202242
0.0226065
0.0126464
0.0225607
0.00529347
0.00549372
0.00624805
0.0194579
0.0263208
0.0259358
0.0272329
0.0154321
0.00762629
0.0239174
0.00723284
0.0193709
0.0210121
0.0217209
0.0118588
0.0238889
0.0107997
0.0198119
0.0205853
0.0196694
0.0103857
0.0147246
0.0366054
0.00918529
0.00233412
0.0187717
0.0160386
0.020056
0.0128917
0.0150647
0.0162883
0.0173951
0.0143694
0.0209696
0.030278
0.0155546
0.0235489
0.0108247
0.0193464
0.0146865
0.0186559
0.0202898
0.0190951
0.0257135
0.00357639
0.0252473
0.0167502
0.000779932
0.010956
0.0264687
0.0237415
0.0139991
0.0033414
0.0214919
0.0077544
0.0272178
0.00780902
0.0222084
0.0210534
0.0246549
0.0187928
0.0227956
0.015615
0.00260362
0.0204695
0.00229476
0.0248573
0.000238364
0.000859395
0.00516017
0.00185226
0.0169997
0.000864865
0.027465
0.0276656
0.0232476
0.0239574
0.0260249
0.0260869
0.0252045
0.0255233
0.00712098
0.0278004
0.0251556
0.00551427
0.0238357
0.0293078
0.0163871
9.00033e-05
0.0229767
0.0249276
0.0214712
0.0200361
0.0225819
0.0268213
0.00252789
0.0235882
0.0011665
0.000616968
3.57825e-05
0.0205685
0.0145651
0.00635172
0.0119309
0.0233486
0.0345614
0.0164178
0.0214083
0.0219531
0.0266459
0.00218813
0.0364692
0.0246222
0.00714745
0.0174899
0.00848116
0.0184003
0.0225295
0.00862854
0.0242833
0.0188903
0.0102417
0.0161178
0.00986879
0.0199506
0.016004
0.0255775
0.0263177
0.00746923
0.0136524
0.0166074
0.016191
0.0219341
0.0308235
0.0111946
0.0218346
0.0167566
0.0110087
0.0141815
0.0278728
0.0157089
0.0143484
-0.000169156
0.0296248
0.0289731
0.000942685
0.023915
0.00180285
0.0180009
0.0273448
0.00404843
0.0254013
0.0253239
0.0269847
0.0258965
0.0208173
0.0214008
0.0232611
0.00632676
0.0225377
0.00789439
0.00208217
0.0119196
0.00319281
0.0214084
0.0231814
0.00986393
0.00981895
0.0120243
0.0270759
0.00303252
0.023158
0.013777
0.0267731
0.0189899
0.0261502
0.0252366
0.028214
0.0250531
0.00117194
0.0166718
0.024925
0.0174396
0.0227337
0.0219262
0.00460113
0.0263164
0.0199695
0.0275453
2.07916e-05
0.0250842
0.00636091
0.0135092
0.0018037
0.0214124
0.0207069
0.0324091
0.0198316
0.00662884
0.0245461
0.0233865
0.000720391
0.000507724
0.0319033
0.0219137
0.00760763
0.0355557
0.00875634
0.0138025
0.0239362
0.000304059
0.00275942
0.0365152
0.00695973
0.0104873
0.0103362
0.017049
0.0233947
0.0134788
0.0098003
0.0239707
0.0269167
0.0248467
0.023207
0.0136449
0.0233907
0.0164772
0.0101108
0.0206485
0.020301
0.0165041
0.0186734
0.0135514
0.0127263
0.0236276
0.0242164
0.0246408
0.0204954
0.0290992
0.0198091
0.0205443
0.0193368
0.0202749
0.0245265
0.0176249
0.00392225
0.0266829
0.0258187
0.0241083
0.00408265
0.0229245
0.0200293
0.0223904
0.0204169
0.0273172
0.0239757
0.00312305
0.0096541
0.0270323
0.02723
0.0294058
0.00265312
0.0131742
0.00925399
0.0252244
0.0244214
0.0261272
0.0292026
0.0295149
0.0253884
0.0289915
0.0249645
0.0245271
0.0157945
0.0261844
0.0221434
0.0289158
0.0349584
0.0219406
0.0204954
0.0361903
0.0180855
0.0128875
0.0269366
0.0148864
0.0289792
0.000813209
0.0224785
0.0139243
0.0332747
0.0217368
0.0207442
0.0275704
0.013252
0.000869683
0.0121708
0.0335847
0.000193664
-0.000168647
0.0222271
0.0086412
0.00934739
0.0092005
0.0066045
0.00560346
0.00626419
0.00503293
0.00989193
0.0257255
0.0287762
0.00289304
0.0259772
0.023012
0.00226373
0.0218684
0.0266253
0.0269658
0.0152349
0.0187805
0.0142964
0.026492
0.0149179
0.0228931
0.0204677
0.0152199
0.0212015
0.0258438
0.0146602
0.0143271
0.0210282
0.0206727
0.0175514
0.028166
0.0032751
0.0296429
0.0180907
0.0154409
0.0169759
0.0266774
0.0116452
0.00897656
0.0267669
0.0237544
0.0244175
0.0260375
0.0332916
0.0300553
0.0268717
0.0243353
0.0265158
0.0279084
0.0270555
0.0167855
0.0284558
0.027141
0.00791947
0.0242866
0.0180055
0.0283749
0.0235798
0.0279355
0.0140332
0.0251609
0.0177855
0.0206876
0.0261439
0.0282676
0.00761678
0.0230799
0.0184073
0.0177366
0.0187705
0.0288764
0.0236994
0.0249569
0.000476394
0.0212228
3.12695e-05
0.02483
0.00204044
0.0341679
0.00860208
0.0176755
0.00692018
0.00666446
0.00601928
0.0229481
0.0249352
0.0171157
0.0175447
0.0228866
0.0156245
0.0261342
0.026882
0.0195231
0.0294347
0.0255026
0.0296108
0.0256408
0.0239903
0.0275806
0.0156073
0.0202307
0.0208621
0.0165817
0.00368845
0.0277922
0.0272543
0.0323551
0.00844252
0.025533
0.0227869
0.00905336
0.0207878
0.0253521
0.0221874
0.0288291
0.0273343
0.026137
0.0284807
0.0212149
0.0272242
0.0284161
0.0275
0.0269609
0.0225593
0.0252436
0.0199732
0.0291415
0.024461
0.0364854
0.0358297
0.023591
0.0288547
0.0231606
0.022794
0.0221866
0.0190149
0.0267524
0.0237263
0.0255936
0.0266812
0.029223
0.0257401
0.0219217
0.0244577
0.0244901
0.0285086
0.0236758
0.0252258
0.0268346
0.0278872
0.00196859
0.0258412
0.00272956
0.00312516
0.00347211
0.0017665
0.0254204
0.00541072
0.000634762
0.0187445
0.0251814
0.0344853
0.0351371
0.029093
0.0233314
0.0285522
0.0155322
0.0321596
0.0206139
0.0226694
0.0246607
0.0266655
0.0175258
0.0263567
0.027577
0.0199807
0.0214576
0.0274063
0.0216087
0.0315717
0.0275283
0.0305795
0.00945813
0.00174553
0.0255256
0.0253159
0.0249019
0.0307411
0.0260883
0.0313042
0.0261816
0.0281568
0.0164663
0.0292599
0.0211326
0.0281973
0.022438
0.0285441
0.0293941
0.0179212
0.0259855
0.0192794
0.0269148
0.0192762
0.027217
0.0236309
0.0227778
0.02714
0.0263093
0.0235996
0.026365
0.0179765
0.0313452
0.0245262
0.025986
0.0268406
0.0279889
0.00763772
0.0189893
0.028367
0.00279342
0.00366209
0.0288617
0.0254529
0.000433645
0.0345562
0.0230066
0.0318333
0.0250553
0.0218343
0.021809
0.0301032
0.0252171
0.021654
0.0228278
0.024555
0.0251487
0.0249095
0.032355
0.0276738
0.0277954
0.0187265
0.0187805
0.0292526
0.0236771
0.027703
0.0276593
0.0312554
0.0345791
0.0328596
0.0220509
0.0293261
0.0231643
0.0271669
0.0266245
0.0227749
0.010389
0.0287988
0.0348627
0.0282687
0.0217467
0.0250666
0.0217498
0.035897
0.0200783
0.0257787
0.0218112
0.022829
0.0273126
0.0288204
0.0230015
0.0275698
0.0270231
0.0245462
0.0280166
0.027207
0.0271248
0.0243199
0.0293188
0.0294278
0.0289197
0.0248186
0.0285608
0.0286125
0.0283178
0.00910246
0.028998
0.0205817
0.021294
0.0261509
0.0312219
0.0207585
0.0252992
0.0293233
0.0248191
0.0253992
0.0219833
0.0328481
0.0244852
0.0287305
0.0208074
0.02091
0.0251491
0.0290646
0.0207421
0.0247384
0.0245844
0.0285849
0.0290301
0.0248031
0.0250465
0.0311568
0.0310383
0.025594
0.0306832
0.0300521
0.0270523
0.0309287
0.0126379
0.0307695
0.0290866
0.0286514
0.0289114
0.0275576
0.0288453
0.0318694
0.0260612
0.0286747
0.0230278
0.0263014