/*--------------------------------*- C++ -*----------------------------------*\
| =========                 |                                                 |
| \\      /  F ield         | OpenFOAM: The Open Source CFD Toolbox           |
|  \\    /   O peration     | Version:  2212                                  |
|   \\  /    A nd           | Website:  www.openfoam.com                      |
|    \\/     M anipulation  |                                                 |
\*---------------------------------------------------------------------------*/
FoamFile
{
    version     2.0;
    format      ascii;
    arch        "LSB;label=32;scalar=64";
    class       surfaceScalarField;
    location    "0.06";
    object      phi;
}
// * * * * * * * * * * * * * * * * * * * * * * * * * * * * * * * * * * * * * //

dimensions      [0 3 -1 0 0 0 0];

oriented        oriented;

internalField   nonuniform List<scalar> 
68568
(
-1.53428e-07
1.58205e-07
-2.9811e-08
2.50339e-08
1.4744e-07
-7.53683e-08
-7.81231e-08
6.05185e-09
1.78828e-07
-1.36608e-07
-6.04215e-08
1.82011e-08
-4.61182e-09
2.23503e-09
-1.71777e-07
1.74154e-07
-1.30704e-09
1.43955e-07
1.04505e-09
-1.43693e-07
1.41241e-07
-4.44369e-10
-1.30139e-07
-1.06576e-08
8.48599e-08
-8.98603e-08
1.32252e-07
-1.27252e-07
-4.02118e-08
-2.7584e-08
1.52656e-07
1.33412e-07
-1.59752e-08
-1.12469e-07
-4.96782e-09
1.51425e-07
5.44701e-08
-5.84557e-08
1.02487e-07
1.39582e-07
-6.32412e-08
-6.50562e-08
-2.05443e-07
1.95131e-07
-1.42076e-07
6.96996e-08
-5.74622e-09
1.86136e-07
-1.91608e-07
1.37212e-08
-8.24907e-09
-7.12494e-08
-5.2233e-08
1.22357e-07
1.12493e-09
1.3051e-07
8.92891e-08
-1.32777e-07
-8.70219e-08
-5.20579e-08
-8.02987e-08
1.17041e-07
1.53154e-08
1.14008e-07
-1.19318e-07
-4.67485e-08
1.13824e-07
-4.39021e-09
-6.99599e-10
-1.08734e-07
8.698e-08
-1.57668e-07
7.90077e-08
-8.31997e-09
1.14651e-07
-4.45652e-10
-1.14171e-07
-3.44403e-11
-1.82817e-08
9.21778e-09
1.43667e-07
-1.34603e-07
-4.67789e-08
1.93782e-07
-2.79016e-08
-1.19101e-07
-8.16744e-10
-5.51223e-10
-1.3894e-07
1.40308e-07
-7.61067e-08
-4.98155e-08
1.18823e-07
7.09903e-09
-9.92965e-08
-4.0895e-08
-1.32368e-08
-6.64146e-08
1.44746e-07
8.64879e-09
7.91616e-08
4.63228e-08
-3.18233e-08
-9.36611e-08
-7.00758e-08
-1.01478e-07
1.31342e-07
5.02009e-08
-1.23559e-07
3.28233e-09
1.57323e-07
-8.36208e-08
-1.48164e-07
7.44622e-08
-1.34699e-08
2.46996e-09
1.1968e-07
-1.0868e-07
1.60739e-07
-3.36247e-08
-1.15007e-08
-1.15614e-07
1.22181e-07
-9.35986e-08
-6.03253e-08
3.17426e-08
-7.90697e-10
1.1192e-07
-1.11277e-07
1.47644e-10
1.25104e-07
8.68659e-08
-8.69897e-08
6.04272e-10
-4.80441e-10
4.43264e-08
-1.64089e-07
9.54889e-08
2.42739e-08
-1.65872e-07
1.44162e-07
6.60362e-08
-7.56046e-08
-1.77248e-10
-3.24932e-10
-8.68721e-10
1.16637e-07
-1.11717e-09
1.15678e-07
-1.15173e-07
-6.75072e-10
1.69721e-10
-2.70952e-08
-1.6176e-07
1.23131e-07
1.99591e-07
-1.51746e-07
-1.70976e-07
-6.36144e-08
-1.06753e-07
3.00877e-07
-1.50413e-07
1.67913e-07
-1.40954e-07
1.23454e-07
-1.26965e-07
6.72687e-08
-5.36022e-09
1.18418e-07
-1.15616e-07
-3.70881e-09
9.05982e-10
1.00696e-07
2.59027e-08
1.20749e-08
-1.38674e-07
2.2973e-09
-1.56226e-07
1.51509e-07
3.48784e-08
-3.01617e-08
-8.84033e-09
-9.57835e-08
1.04297e-07
3.27004e-10
-1.16458e-07
1.41469e-07
1.76914e-07
-1.99291e-07
-3.93155e-10
-1.7812e-10
2.14697e-09
-1.70138e-09
1.12024e-07
-1.12469e-07
4.03856e-08
-1.18726e-07
-1.95812e-09
9.41457e-08
-1.00507e-07
3.7598e-09
2.60149e-09
-8.80473e-08
1.4598e-07
-6.41052e-08
6.17226e-09
1.50891e-07
-7.81063e-08
-7.62296e-08
3.44466e-09
9.28394e-08
-9.31502e-08
-5.05938e-10
-1.15292e-07
-1.7545e-09
1.19282e-07
7.82523e-08
7.36267e-08
-7.9696e-09
-1.43909e-07
-6.21094e-09
1.39209e-07
-1.33899e-07
9.01554e-10
9.09828e-08
-1.54331e-07
-3.06675e-09
1.11512e-07
-1.80906e-08
3.4551e-08
-1.27972e-07
1.54192e-07
-2.41702e-08
-1.74772e-07
4.47505e-08
4.1767e-08
8.46371e-08
-1.25803e-08
6.61704e-08
-1.31172e-07
7.18553e-08
-6.85383e-09
1.38287e-07
-1.39472e-07
-1.22553e-10
-1.03577e-07
1.47879e-07
-3.27025e-08
-1.16002e-08
-2.1122e-07
-1.5465e-07
2.95743e-07
7.01268e-08
-1.29821e-07
-2.17095e-09
1.36102e-07
-6.44299e-09
1.38518e-07
-1.46972e-07
-5.54141e-08
6.38684e-08
-1.29223e-07
6.67455e-08
6.847e-08
-5.99207e-09
-6.87587e-10
-5.59778e-08
-5.00611e-08
-1.03468e-07
1.03591e-07
-4.97897e-10
3.75155e-10
4.12478e-08
1.78732e-07
-6.90888e-08
1.07646e-07
-6.5079e-08
5.15785e-08
-7.50103e-08
-8.2016e-08
1.53087e-07
3.93958e-09
-6.12513e-10
-2.25469e-07
-4.20652e-10
2.26502e-07
7.60882e-08
-4.78974e-08
8.74871e-08
-2.9659e-10
6.61885e-08
-6.59897e-08
9.77843e-11
-1.98404e-08
1.43942e-07
6.9563e-08
-1.93665e-07
1.74989e-07
-8.84405e-08
-9.17451e-08
5.19679e-09
1.22436e-07
3.91138e-08
-3.72731e-08
-1.24277e-07
1.68459e-07
-7.92758e-08
7.84903e-08
-1.67674e-07
3.62687e-08
1.36888e-08
1.18502e-07
-9.08746e-08
8.63922e-08
-1.67295e-07
1.27382e-07
1.12463e-09
-1.24774e-07
-3.73254e-09
-4.0791e-08
-2.87447e-07
2.01274e-07
8.59162e-08
8.87311e-08
-6.73441e-09
-3.53283e-10
4.93043e-10
9.63887e-08
-9.65284e-08
-1.26833e-07
1.26699e-07
-4.1786e-10
-6.12553e-08
1.22351e-07
6.17281e-09
7.57473e-09
8.99906e-08
-5.16484e-09
-9.24005e-08
-1.31509e-07
5.82203e-08
9.18787e-08
-1.85895e-08
-4.5281e-08
-8.32954e-08
-1.03635e-08
-8.55637e-08
1.65929e-07
5.55093e-09
7.42001e-08
7.72206e-08
-1.46136e-07
-5.28467e-09
1.1637e-07
1.16701e-09
-1.17356e-07
-1.81027e-10
-4.85515e-09
-2.31561e-07
-1.48808e-08
2.4103e-07
-7.70864e-09
1.29521e-07
-1.28963e-07
5.89299e-08
-7.74283e-09
9.9804e-08
-3.89596e-10
-9.83472e-08
-1.06726e-09
1.25161e-07
-8.32977e-10
1.39391e-07
-4.76733e-08
8.32708e-08
1.87056e-10
-1.06199e-07
-3.47364e-09
1.1409e-07
-4.41726e-09
9.30153e-08
-5.14303e-08
-9.21257e-08
-1.54019e-10
9.21948e-08
8.49679e-11
-3.58832e-08
-1.3982e-07
1.48428e-07
2.72753e-08
-2.33199e-09
1.33771e-07
-1.31e-07
-4.39854e-10
-9.06796e-08
-3.76868e-08
1.28419e-07
-5.29079e-11
-4.27824e-09
2.10406e-09
-1.13118e-07
-1.67753e-07
8.93091e-08
8.36913e-08
-5.24787e-09
3.32971e-10
-1.0301e-07
1.02979e-07
-3.02815e-10
1.41457e-07
-7.78753e-10
-3.40092e-10
-1.13853e-07
2.87164e-10
1.13906e-07
3.52602e-10
2.24092e-08
-1.57559e-08
1.34942e-07
-7.38087e-08
5.03712e-09
1.44612e-07
-1.43858e-07
-1.42237e-08
-1.26733e-07
1.43307e-07
1.94734e-08
-3.60474e-08
7.38764e-08
-7.52828e-08
1.55598e-07
3.95617e-09
1.1676e-07
1.56833e-07
-1.28789e-09
-1.57877e-07
7.0743e-08
-1.47409e-07
-4.67056e-09
8.13362e-08
1.47118e-07
-8.08692e-08
7.95125e-09
1.02255e-07
-1.00053e-07
-1.15181e-07
5.9878e-08
-3.16868e-08
-1.53977e-07
1.46756e-07
-1.9829e-08
2.70501e-08
1.59726e-07
4.89992e-08
-5.72817e-08
-1.49652e-07
-7.5744e-08
-3.13822e-08
8.28212e-08
2.4305e-08
-1.34048e-07
7.05766e-08
-5.61712e-08
1.19643e-07
-1.56824e-07
-3.42549e-09
1.63392e-07
-3.1426e-09
-1.12336e-07
2.13175e-08
-6.58059e-08
-1.68058e-07
-6.43709e-09
9.68997e-08
-1.37386e-09
-1.15167e-07
-6.26018e-10
-1.12301e-07
1.43666e-07
-7.59193e-08
6.08552e-09
1.60162e-07
-8.55491e-08
-8.10312e-08
6.41779e-09
-1.38378e-07
1.85695e-07
-4.78426e-08
5.26038e-10
8.45291e-08
-8.53446e-08
-1.37563e-07
9.70582e-08
7.53014e-09
-2.33365e-09
7.34582e-10
1.07095e-07
-1.06611e-07
-1.21825e-09
1.95741e-07
-4.96272e-08
-1.07e-07
-1.12038e-07
4.32764e-08
1.17748e-07
-1.13108e-07
-2.53574e-09
-1.89327e-09
1.04164e-07
-1.02628e-07
3.5704e-10
-1.01772e-08
-1.38746e-07
1.35965e-07
1.29583e-08
-1.42747e-07
1.59771e-07
-1.0103e-08
-6.92117e-09
1.24182e-07
-1.04269e-07
-1.25222e-08
1.26658e-09
-8.28345e-09
-1.00734e-07
1.00177e-07
3.39519e-08
-7.03768e-09
-1.3925e-07
-2.05663e-08
1.13215e-07
-8.64638e-08
-6.18479e-09
1.65465e-07
-7.09006e-09
-1.42221e-08
-1.44152e-07
1.61681e-07
2.21129e-10
-2.86252e-09
-1.5904e-07
1.3982e-07
-1.38913e-09
-1.43407e-10
1.32419e-07
-1.32742e-07
3.73385e-10
-5.03148e-11
-1.29179e-07
-8.35741e-08
1.29458e-07
2.18143e-08
-1.75208e-07
-1.13262e-07
1.12953e-07
1.98006e-10
1.11139e-10
-1.37428e-07
-7.23766e-09
1.91843e-09
-1.045e-07
6.78171e-12
1.04444e-07
4.96448e-11
-1.25107e-07
-3.20347e-10
1.25655e-07
-2.27303e-10
-6.53204e-09
1.19251e-07
-1.05415e-07
-7.16341e-09
-1.05616e-07
1.04974e-07
3.02513e-10
8.30846e-09
2.92894e-08
9.24105e-08
-1.27906e-07
7.46197e-08
-7.49625e-08
1.48531e-07
-1.48188e-07
1.05731e-07
-8.31011e-08
-2.47741e-08
2.14446e-09
1.52937e-07
-5.53914e-08
-1.13367e-07
1.77672e-08
5.5784e-09
-1.11525e-07
1.26105e-07
-2.01589e-08
-5.79054e-10
1.04544e-07
-1.03421e-07
-5.44122e-10
-1.44585e-07
-8.53195e-09
1.69967e-07
2.11911e-07
-9.00944e-08
1.9122e-07
1.56972e-07
-7.81333e-08
5.69079e-09
-2.16006e-08
2.6492e-08
-1.09093e-07
1.07554e-07
9.05812e-08
9.57141e-08
-7.56304e-09
9.538e-08
7.40272e-08
-1.63158e-07
-6.24881e-09
8.37484e-08
8.1132e-08
-7.90866e-09
1.24096e-07
-7.71387e-08
8.54617e-08
7.5236e-08
-1.27665e-07
6.09451e-08
-8.5157e-09
6.41183e-10
-1.00938e-07
-1.18118e-09
2.12923e-10
-3.18919e-07
1.90692e-07
2.25139e-07
-1.35985e-07
5.68729e-08
9.77014e-09
4.4648e-08
4.65133e-08
-1.00932e-07
-1.31128e-07
2.06709e-09
1.30211e-07
-1.14957e-09
-1.00165e-07
9.96391e-08
1.65276e-11
5.09173e-10
1.32103e-07
-1.71069e-07
2.02193e-07
-1.63227e-07
1.58898e-08
-1.30805e-09
1.29373e-07
-3.22002e-08
7.59192e-09
-7.53395e-08
9.99478e-08
-7.33326e-08
1.42719e-07
5.23285e-09
-1.49135e-07
7.76996e-08
7.67016e-08
-5.26614e-09
-1.135e-07
-2.5316e-08
1.18249e-07
5.66458e-10
7.88748e-08
-1.70577e-10
-7.92706e-08
1.49536e-07
-6.7674e-08
7.8877e-08
1.39682e-09
-1.22124e-10
1.11157e-10
-9.90747e-08
1.82556e-07
-4.86782e-08
-3.03803e-08
-1.03497e-07
-8.95534e-09
3.06402e-08
-9.78413e-08
8.06692e-08
-3.4104e-08
2.31115e-08
2.30706e-07
-5.80172e-08
1.69878e-07
-1.7064e-07
-6.36996e-08
-6.83267e-08
5.29342e-09
1.34354e-07
6.26761e-09
-7.20317e-08
-7.33566e-08
1.38102e-07
7.28677e-09
1.79933e-08
1.21904e-07
-1.62377e-07
-1.92721e-10
7.13115e-08
-6.88266e-09
-6.80667e-10
-1.37642e-07
1.47642e-10
1.38175e-07
-1.44869e-07
1.77491e-07
-4.63514e-08
1.13141e-08
-9.93057e-09
5.24429e-08
1.14321e-07
-1.3199e-07
7.71041e-08
-2.77775e-08
8.26637e-08
-1.4472e-07
9.75163e-08
-1.31255e-07
1.29786e-07
1.81429e-10
9.49874e-08
2.22945e-08
-1.7079e-07
-2.2177e-08
1.70673e-07
-1.87427e-07
1.02755e-07
-1.40797e-07
-1.75127e-09
1.69825e-07
2.44932e-08
6.7768e-08
-9.70069e-08
4.74581e-09
3.4904e-08
-1.44751e-09
1.1226e-09
-1.02045e-07
7.14084e-10
-2.40216e-07
2.40384e-07
-5.88274e-10
-9.76022e-08
-1.0262e-07
-9.51825e-08
1.03879e-07
-1.14313e-07
8.58569e-08
-1.08861e-07
1.75169e-08
5.48687e-09
1.28822e-07
-9.2888e-08
-9.44179e-09
-1.59157e-07
-1.10186e-08
2.14208e-08
1.48754e-07
-3.18468e-07
-2.37518e-10
-1.34275e-07
1.33436e-07
4.85705e-10
-9.55971e-08
1.86978e-11
3.95871e-10
-1.45145e-08
-9.68795e-08
1.55145e-07
-4.37513e-08
1.11421e-07
5.46578e-09
4.4794e-08
-1.37819e-07
1.37071e-07
-3.64287e-09
-5.18662e-08
1.38927e-07
-1.00033e-07
2.3307e-10
-1.31206e-07
-1.55105e-10
9.37208e-08
-9.56673e-08
2.45098e-10
-6.78373e-08
-6.74176e-08
1.27384e-07
7.87054e-09
1.16227e-07
1.79666e-08
-9.95272e-08
-3.46667e-08
9.14686e-08
1.56047e-07
-2.23121e-07
-2.58109e-08
-1.12438e-07
-1.99274e-08
1.30448e-07
5.38984e-11
-1.30898e-07
3.95816e-10
2.47828e-08
8.03347e-09
5.57087e-08
-8.85249e-08
-1.4485e-07
7.81599e-08
-5.3413e-09
-1.22823e-07
1.21077e-07
-6.70515e-09
-4.37124e-10
1.2423e-07
3.03229e-10
-8.18869e-08
-7.37442e-08
1.48565e-07
7.06585e-09
1.32403e-07
-7.13094e-08
-6.80756e-08
6.98219e-09
1.3291e-07
-2.46252e-09
1.43803e-12
-1.03579e-07
-9.42218e-08
1.02204e-07
-1.36119e-07
-4.84065e-08
1.80885e-08
1.6825e-07
-1.08916e-07
3.03662e-08
-1.3267e-07
3.35555e-10
-1.08517e-07
7.48982e-10
-6.6224e-10
1.37932e-07
2.63877e-08
-2.82428e-08
-1.36077e-07
4.72833e-08
-1.33783e-07
2.34375e-11
8.91586e-11
4.01209e-08
-2.00095e-07
-8.04534e-08
1.36341e-07
9.19923e-08
2.13761e-08
-1.49968e-07
-1.89854e-08
1.47578e-07
-8.35503e-08
6.12133e-09
1.36587e-07
-1.35014e-07
9.38732e-08
4.26159e-08
-1.47468e-09
-7.64535e-10
2.37856e-10
-1.00124e-07
6.87363e-08
-4.49502e-09
-1.75779e-09
-3.18116e-09
-2.4066e-09
9.85455e-08
-9.29577e-08
8.47945e-08
1.07362e-07
-1.06443e-07
-8.57133e-08
1.53638e-07
-1.71561e-07
2.88333e-10
2.03508e-10
1.61993e-07
-1.04057e-08
-1.42369e-07
-4.39888e-08
1.57032e-07
1.11388e-08
1.21882e-07
-1.14945e-07
-6.02197e-09
-9.14823e-10
-1.1938e-09
1.17656e-07
1.68574e-07
-5.85866e-08
-2.34107e-09
9.69291e-08
-8.59017e-08
-5.32386e-10
9.72209e-11
1.45047e-07
-1.68672e-07
8.84944e-09
1.56592e-07
4.83977e-10
-1.21294e-08
1.90243e-07
-2.38889e-07
5.20738e-08
9.83528e-10
9.33535e-08
-8.92703e-10
-9.34443e-08
-1.20186e-07
1.20486e-07
-1.88578e-10
1.18018e-09
-1.34009e-10
-1.14569e-07
1.13438e-07
-6.28711e-11
-1.12412e-07
-2.2878e-10
2.03554e-10
7.33476e-08
-1.05854e-07
-7.85402e-08
1.11046e-07
3.02869e-11
-1.18083e-07
1.18142e-07
-8.98597e-11
-3.17622e-08
3.95276e-08
2.33632e-08
-2.02509e-08
-1.45052e-07
7.54732e-08
-6.1648e-09
2.89698e-08
-1.64318e-08
1.09344e-07
-1.38821e-07
6.70892e-08
6.45006e-08
7.23164e-09
-1.63469e-07
-1.14473e-07
1.14401e-07
-1.29631e-07
-4.44201e-08
5.96497e-08
1.33347e-07
-1.34234e-07
2.94203e-10
5.92342e-10
-1.80014e-09
-1.89768e-07
1.33639e-10
1.91435e-07
-1.08828e-07
3.29284e-11
1.08849e-07
-1.31295e-07
-1.69195e-10
5.66137e-10
7.44143e-08
-1.31114e-07
-6.99977e-09
3.17536e-10
-1.33004e-07
-5.55784e-11
7.80753e-08
7.90503e-08
-5.6163e-09
-7.54793e-08
-7.57559e-08
1.44973e-07
6.26175e-09
-1.19539e-07
8.6401e-10
1.18474e-07
2.01327e-10
1.27468e-07
3.16456e-08
1.13685e-07
-1.62283e-08
1.10683e-07
-5.6514e-09
-1.01189e-07
4.77641e-08
4.61652e-08
7.25981e-09
-6.40097e-09
1.32213e-07
7.74195e-09
-1.28756e-07
7.57128e-08
-7.35722e-08
-1.35356e-07
-1.09389e-07
1.20259e-07
1.24486e-07
1.11282e-07
-1.25964e-10
1.18423e-07
-1.1997e-07
1.48724e-09
6.02364e-11
-1.35089e-07
-1.31903e-07
8.4721e-10
5.57599e-11
1.74352e-08
3.14653e-08
-1.53305e-07
1.54812e-08
-4.48447e-08
2.03049e-07
1.38769e-07
-1.44951e-07
9.55372e-09
-2.26867e-09
1.98916e-08
-2.20736e-08
1.37373e-07
-3.4031e-08
-8.12684e-08
1.08742e-07
-7.20004e-10
-1.07789e-07
-2.32462e-10
-4.36153e-08
-1.4861e-07
2.95553e-07
-1.03327e-07
1.06737e-07
-8.15576e-08
-6.86289e-10
-6.84777e-11
1.05094e-07
-4.81543e-10
7.58434e-08
-7.6479e-08
1.45373e-07
-1.91775e-07
-1.34194e-07
8.16575e-08
1.30236e-07
-2.38606e-09
-3.10017e-08
-8.48839e-08
7.31141e-08
8.73162e-08
8.14357e-09
2.09214e-07
-1.29946e-07
7.39087e-09
1.51891e-07
-8.21671e-08
6.9775e-09
1.29308e-07
-1.72553e-07
1.23715e-07
-6.90499e-08
-3.76479e-08
-1.43514e-08
1.79882e-09
1.07692e-07
-1.19668e-07
7.00701e-08
-1.32636e-07
-5.2714e-09
1.52685e-07
-1.08858e-09
-4.88691e-08
1.48784e-07
-1.01448e-07
-1.86755e-09
-2.61176e-08
1.43256e-07
-1.60954e-07
4.38157e-08
1.20091e-07
2.1638e-08
-5.70918e-08
-2.93777e-09
-1.55549e-07
1.56037e-07
-9.57822e-10
-3.0959e-08
2.33458e-08
-1.00127e-07
1.0774e-07
7.7281e-08
-1.45499e-07
-5.13817e-09
-1.39745e-07
1.40188e-07
-1.24741e-10
-7.81531e-08
1.6146e-07
-1.26922e-07
-7.41272e-08
-8.12243e-08
1.55311e-08
-1.0261e-07
-1.12378e-10
2.05646e-07
7.06276e-08
-1.69459e-07
-1.0936e-07
-7.57708e-08
1.34973e-07
2.36541e-07
1.35845e-11
-9.21926e-08
-1.90552e-10
9.23695e-08
3.33176e-08
1.07323e-07
-7.53079e-10
1.53402e-07
6.33072e-09
9.92228e-08
5.78693e-08
2.67914e-09
7.54816e-08
-1.45307e-07
-5.65429e-09
-7.46758e-08
-8.41551e-08
1.50219e-07
8.61162e-09
-9.25125e-08
-4.54148e-09
-4.13514e-09
-1.11708e-07
-1.1537e-07
1.17931e-07
-6.72168e-11
-1.27963e-07
-3.41682e-09
1.25168e-07
-9.26701e-08
-1.40614e-07
1.00861e-07
1.32424e-07
-1.14845e-07
3.98756e-08
7.82432e-08
-3.27374e-09
7.2438e-08
7.20078e-08
-1.37525e-07
-6.92111e-09
-7.32146e-08
-7.06126e-08
1.37442e-07
6.38502e-09
5.31714e-08
4.91771e-08
-1.12375e-07
1.00268e-08
-6.93485e-08
1.15858e-07
-3.76717e-08
-8.8382e-09
1.08049e-07
-1.08559e-07
-1.70899e-10
-9.72527e-08
7.46498e-10
8.47506e-08
1.09541e-07
-2.92658e-08
-1.65025e-07
-3.21591e-08
9.19367e-08
3.95224e-08
-9.93e-08
-1.0038e-07
-7.41443e-11
1.02254e-07
-1.79937e-09
-7.62428e-08
-4.39653e-08
9.81346e-08
1.27349e-07
-3.30651e-09
7.24138e-08
-1.3509e-07
6.77325e-08
-5.05602e-09
-6.35797e-08
4.77854e-08
-1.31758e-07
1.16748e-08
1.28159e-07
-1.06615e-07
-3.11863e-08
3.9367e-08
8.58091e-08
-7.71174e-08
9.76168e-10
-1.25892e-07
-1.91471e-10
-1.51261e-08
2.04236e-08
1.06547e-07
-1.20494e-07
5.8317e-08
5.50917e-08
7.08488e-09
7.602e-08
-4.91985e-09
4.07079e-08
6.51488e-08
7.35821e-09
9.04887e-09
1.3214e-07
-1.09534e-08
-6.8125e-09
-8.49356e-08
8.31179e-08
1.39191e-07
-7.68594e-08
-1.62572e-07
1.63202e-07
1.71238e-07
5.96588e-08
-5.73314e-08
-1.73565e-07
1.4795e-08
-1.33547e-07
1.43535e-07
-8.11265e-08
-7.33954e-08
1.47725e-07
6.79715e-09
-5.11435e-08
-1.22462e-07
2.11851e-09
7.00747e-08
-6.86204e-09
1.34155e-07
-7.19191e-10
-8.8399e-11
2.31423e-08
-8.91355e-08
9.4963e-08
2.68273e-10
2.43135e-10
-1.40257e-07
-4.05767e-09
7.87098e-08
-7.55363e-08
1.17834e-08
-8.68426e-08
1.48512e-07
-7.34524e-08
-2.8884e-08
-1.4002e-07
1.11059e-09
1.67794e-07
9.68982e-08
-1.86138e-07
7.26735e-08
1.65662e-08
-1.26442e-07
9.33918e-08
-1.01225e-07
1.03643e-07
-6.92681e-10
-1.02735e-07
-2.15677e-10
-4.6966e-08
-1.32224e-07
4.76536e-08
1.31536e-07
-7.47296e-08
-1.27198e-07
1.53275e-07
4.86526e-08
-2.94964e-09
-1.46862e-07
1.47412e-07
2.39888e-09
-1.29062e-07
1.28921e-07
-1.65943e-09
-1.49087e-07
1.31757e-07
-6.61542e-08
1.42598e-07
7.29101e-08
-6.2641e-09
7.91237e-08
-1.40854e-07
-6.59352e-08
-1.29995e-07
9.1031e-08
-1.05886e-07
-1.38816e-08
1.47445e-07
-9.07097e-08
-3.57463e-08
1.23867e-07
-1.22016e-07
-3.31568e-09
1.46408e-09
-1.0099e-07
-2.43286e-09
4.34815e-09
7.25107e-11
-1.54443e-07
1.5142e-07
-9.30722e-08
-1.79497e-10
7.39222e-10
-9.61007e-08
8.07707e-08
1.59973e-08
-6.67346e-10
-5.76582e-08
-1.37652e-07
1.85484e-07
9.82693e-09
1.1921e-07
-4.51415e-10
5.79294e-08
4.96055e-08
-1.1618e-07
8.64546e-09
-1.11804e-07
-5.16086e-10
1.12069e-07
2.5033e-10
-1.09377e-07
1.58443e-08
-2.64371e-08
6.52718e-08
-1.24259e-07
5.25751e-08
6.41232e-09
-4.88479e-09
-9.7032e-08
4.31458e-09
1.65606e-09
-1.38458e-07
1.44565e-09
5.52616e-08
7.72531e-08
-6.69337e-08
1.78687e-08
3.69539e-08
2.1371e-08
1.3066e-07
-1.31196e-07
6.92067e-10
-1.56269e-10
-2.12688e-07
2.00514e-07
8.80224e-08
-7.5848e-08
5.90565e-08
-1.52074e-07
1.16934e-07
-2.39159e-08
7.67533e-08
-6.77893e-09
-7.00382e-10
-1.63594e-10
5.94434e-08
-6.32724e-08
-1.19397e-07
1.70681e-07
-1.41963e-07
1.17241e-07
-1.53451e-08
6.68768e-10
-1.57612e-07
1.56875e-07
1.34972e-07
-1.64437e-07
-1.49364e-09
-8.99665e-08
-8.55002e-08
1.68524e-07
6.94255e-09
9.68158e-08
2.91224e-10
-9.71395e-08
3.24136e-11
-1.52167e-07
8.13948e-08
7.55134e-08
-4.74104e-09
-2.06936e-07
1.2853e-07
-1.43592e-07
2.21998e-07
-1.99514e-07
2.60384e-08
-4.70126e-08
-1.16667e-07
-1.69531e-07
1.04458e-07
3.89551e-08
-1.51294e-08
-1.32411e-07
1.44224e-07
3.31606e-09
-3.4576e-09
-1.1575e-07
-9.9717e-09
1.09353e-07
-1.16327e-07
1.26445e-07
-4.09715e-08
1.6791e-07
1.72493e-07
9.29281e-08
-1.31104e-07
-1.27421e-07
4.50404e-10
1.22781e-07
-1.23244e-07
1.27518e-11
1.06493e-07
-1.154e-07
4.02156e-09
-8.23579e-08
-6.1192e-10
7.28973e-08
1.08388e-07
-4.71309e-08
6.54345e-08
-1.26842e-07
-4.74653e-09
-4.28832e-10
1.19536e-07
-1.19181e-07
7.45713e-11
-1.23361e-07
-4.46303e-10
1.24475e-07
-6.68526e-10
-1.26101e-07
4.6429e-08
-3.52725e-08
-1.22905e-08
1.04392e-07
8.34316e-08
-1.3004e-09
-1.86523e-07
3.30596e-09
-4.28908e-11
-1.76479e-08
8.61141e-08
-1.54876e-07
8.64093e-08
-1.33861e-07
1.35854e-07
6.90414e-08
-6.39236e-09
2.90611e-08
-1.38539e-07
-3.91546e-08
1.48633e-07
4.3114e-08
1.17446e-08
3.48722e-08
-8.97309e-08
7.25721e-08
7.96923e-08
-1.4576e-07
-6.50409e-09
-1.08368e-07
1.0666e-07
1.74589e-09
-3.82312e-11
-7.17917e-08
7.2308e-09
5.88128e-08
-5.6594e-08
1.32967e-07
-1.35185e-07
-1.10815e-07
2.35265e-07
-4.93954e-08
-7.50541e-08
9.0996e-08
-7.5808e-08
-7.9784e-08
6.4596e-08
7.22667e-08
-5.95078e-08
-1.43548e-07
5.70179e-08
8.37671e-09
6.14782e-08
8.54671e-08
7.93117e-08
8.21511e-08
-1.55259e-07
-6.20433e-09
1.42505e-07
8.42839e-09
-6.55406e-09
-1.44379e-07
1.08405e-07
7.05832e-10
-3.69222e-10
1.02019e-07
-1.04089e-07
2.43222e-09
-3.61726e-10
-6.95563e-08
-8.18303e-08
1.44504e-07
6.88238e-09
-1.27971e-07
1.45059e-09
4.18703e-10
-1.12147e-07
-1.06235e-11
3.53845e-10
1.20435e-08
1.31626e-07
1.18191e-07
2.03099e-09
-1.0122e-09
1.15957e-10
-1.09651e-07
1.09019e-07
1.03032e-07
1.80366e-08
2.79878e-09
-1.2861e-08
3.86011e-08
-1.28e-07
1.0226e-07
1.32489e-07
-1.32196e-07
-1.25469e-10
-1.67638e-10
-3.15435e-08
-1.26471e-07
1.84053e-07
-1.26133e-07
-2.04271e-08
1.52084e-07
-5.52402e-09
1.64183e-07
-1.39157e-07
-2.40238e-08
-2.20216e-08
1.37041e-07
1.34213e-07
-1.3559e-07
6.41046e-10
7.35676e-10
1.59635e-07
-4.93687e-08
-1.57297e-07
4.70306e-08
1.33067e-07
-1.33147e-07
1.57337e-07
-1.57258e-07
9.62903e-09
-1.34874e-08
-1.04967e-07
1.08826e-07
2.85287e-08
-1.09639e-07
-4.64843e-08
1.27594e-07
9.25663e-08
8.37795e-08
-1.69078e-07
-7.26755e-09
2.18032e-07
-2.30717e-07
-1.55734e-07
-8.54113e-08
1.09047e-07
-1.39857e-08
1.33438e-08
-1.99432e-07
1.73056e-07
-9.19349e-08
1.43947e-07
-2.44306e-07
1.92294e-07
8.43282e-08
-1.70202e-07
-6.06096e-09
2.18e-08
9.57685e-08
-1.64549e-08
-1.01114e-07
-1.65666e-09
1.16691e-07
-1.56092e-08
-9.50892e-08
-6.3187e-08
1.64469e-07
-1.14449e-07
1.31667e-08
-2.91444e-08
8.39513e-08
-4.73818e-08
-7.4251e-09
3.11572e-10
-1.05777e-07
1.05949e-07
-4.83885e-10
2.98435e-09
1.32948e-07
-1.34729e-07
-1.20299e-09
-3.06347e-09
-1.35681e-07
1.4421e-07
1.17861e-09
-8.31925e-08
1.89836e-07
1.39169e-08
-5.1265e-08
-4.73987e-08
1.34775e-07
-2.32185e-07
-6.12603e-08
-1.6174e-07
1.2765e-07
-7.6725e-08
1.31826e-07
-1.28311e-07
-5.30931e-10
-1.05434e-07
1.49587e-09
-2.18737e-09
1.06126e-07
6.61353e-08
-2.03963e-07
-1.55266e-07
-2.74144e-11
1.34193e-07
-1.33902e-07
-2.64263e-10
-1.37803e-07
-4.83406e-08
1.76373e-07
6.2176e-09
-9.7997e-09
1.1852e-07
-1.0625e-07
-1.23578e-08
1.55054e-07
-1.23844e-07
6.49468e-10
-1.66439e-10
6.87515e-08
-1.62252e-07
8.83323e-08
5.16813e-09
-1.49214e-09
-1.34532e-07
-1.5818e-09
1.35522e-07
6.09169e-09
-1.11447e-07
5.68296e-08
5.27476e-08
1.86982e-09
-1.1387e-07
3.09081e-08
1.55229e-07
-4.35515e-11
1.4491e-07
-8.6653e-10
-1.44e-07
8.00827e-09
1.27962e-07
-2.72732e-08
-1.08697e-07
1.54121e-07
-1.75615e-07
9.07436e-08
-6.92502e-08
4.83909e-08
1.2212e-07
-6.00671e-08
-6.7909e-09
9.07571e-08
1.11396e-07
-1.92485e-07
-1.34835e-08
-6.9763e-09
1.16909e-07
-1.41315e-07
1.23409e-07
4.10235e-10
-1.23858e-07
3.7982e-11
7.96187e-09
1.07509e-07
-4.05012e-09
8.5171e-08
-2.11587e-07
3.37463e-08
-1.40913e-07
1.95459e-09
-7.92353e-08
-6.76988e-08
1.40007e-07
6.92666e-09
-1.12338e-07
-5.10045e-08
3.46738e-08
1.28669e-07
-1.26742e-07
-5.93976e-10
-6.34364e-10
-7.44094e-08
1.57191e-07
-8.8859e-08
6.07739e-09
7.93115e-08
-1.57719e-07
8.23275e-08
-3.91989e-09
-1.19134e-07
-2.57515e-10
1.08644e-07
-1.11816e-07
5.00998e-09
-1.83827e-09
1.61016e-07
-9.03038e-08
8.59909e-09
-1.21847e-07
2.07038e-08
-2.08727e-08
6.33336e-08
-1.04712e-07
-2.37007e-08
1.33329e-07
-1.32443e-07
-2.16965e-10
7.2469e-08
6.50622e-08
-6.47928e-08
-7.27384e-08
8.53025e-08
1.58986e-07
-1.71851e-07
8.39704e-08
7.13544e-08
-1.49956e-07
-5.36896e-09
-1.22654e-07
6.48258e-08
5.049e-08
7.33783e-09
1.79515e-10
1.33578e-07
4.557e-10
8.46365e-08
7.87264e-08
-1.57928e-07
-5.4349e-09
1.13251e-07
1.23686e-07
-1.01825e-08
-1.09898e-07
-3.60466e-09
1.01225e-07
7.09383e-11
1.57074e-07
-1.58595e-07
-8.7151e-08
8.86719e-08
5.30088e-08
6.33746e-08
7.3021e-09
-6.25288e-09
-2.75342e-07
1.99882e-08
1.83559e-07
-3.58679e-09
6.27952e-09
1.62922e-07
1.39693e-07
-2.37344e-07
-1.3092e-07
1.05488e-09
-1.77547e-09
1.31641e-07
7.2706e-10
1.05234e-07
-1.05927e-07
-3.39819e-11
-8.45803e-08
1.92974e-07
-1.8952e-07
5.51685e-08
1.31207e-07
-6.88821e-08
-1.17493e-07
4.88772e-08
6.17484e-08
-1.18209e-07
7.58346e-09
1.58671e-07
-1.22668e-08
2.21204e-08
-1.41566e-07
-5.57338e-09
5.74573e-08
-1.63762e-07
-1.94326e-08
-1.01527e-07
-1.18217e-07
1.11311e-07
2.12382e-08
-5.16804e-09
-2.20041e-08
1.02215e-07
3.11007e-08
1.0442e-08
-8.57476e-08
-1.46488e-09
1.32817e-07
4.06588e-09
1.41775e-10
3.99532e-10
-2.13761e-07
-1.55919e-08
-5.58975e-10
7.79332e-08
1.51627e-08
-8.48479e-08
-1.58722e-08
2.9109e-07
-1.27975e-07
-1.47243e-07
-1.80177e-07
1.47453e-07
1.22307e-07
-1.55083e-07
-7.28965e-08
7.85265e-08
-8.05175e-08
7.48875e-08
1.26494e-07
-1.31183e-07
-3.91091e-09
8.59966e-09
-4.30603e-09
-6.78593e-08
8.50062e-08
-1.97324e-07
-8.5872e-08
6.92082e-08
-8.03197e-08
-1.27825e-07
2.89875e-07
-4.39642e-08
-1.04432e-07
-1.3856e-08
-8.15131e-08
1.64495e-07
2.32086e-09
-3.54968e-08
-7.60672e-08
9.52215e-08
1.63425e-08
4.26611e-08
-1.91071e-07
8.65261e-08
6.18836e-08
-1.12651e-07
1.12501e-07
-2.66696e-10
4.16388e-10
9.69976e-08
-1.68203e-10
1.48967e-08
1.33332e-07
1.19348e-07
-7.88006e-09
-8.81224e-08
-1.50915e-07
1.88543e-08
6.90496e-10
1.3391e-07
-1.15165e-07
1.68963e-07
-5.19019e-08
-6.00004e-09
3.07022e-09
1.32824e-07
-3.07704e-09
1.11704e-07
4.16617e-08
-1.62291e-07
-3.15378e-08
-1.33374e-07
-1.15621e-07
-9.02415e-08
4.67058e-08
-1.16426e-08
1.1442e-07
-8.90419e-09
-1.00209e-07
-1.15419e-07
-3.56691e-09
1.00706e-07
-1.29686e-07
1.04299e-07
-6.18074e-10
-1.0299e-07
-6.9034e-10
-2.73269e-08
-1.563e-07
-1.87716e-07
1.87411e-07
1.17887e-07
-4.99246e-08
1.15616e-08
-7.95244e-08
1.19459e-07
-5.66044e-10
-1.1871e-07
-1.83276e-10
8.9729e-10
1.07567e-07
-1.08809e-07
3.44658e-10
3.05641e-08
1.26369e-07
-3.87424e-08
-8.1934e-08
-8.66016e-08
1.08165e-08
8.24658e-09
1.15409e-07
-1.19711e-07
-3.94444e-09
-1.3186e-07
1.42395e-07
-2.28901e-09
-1.40379e-07
-3.8533e-09
-1.57508e-07
1.59668e-07
-5.86526e-08
-9.02501e-08
1.54949e-07
-6.0464e-09
1.13379e-07
-1.49571e-08
7.26362e-10
-1.74677e-10
4.95859e-08
1.24892e-08
-1.03754e-09
-2.90764e-10
7.90746e-08
8.67199e-08
-6.15912e-09
-3.54867e-08
1.053e-07
8.29023e-08
-3.02495e-07
-1.98703e-07
3.25832e-07
1.7337e-07
1.51622e-07
-6.33258e-08
-9.75672e-08
6.14971e-09
-7.63999e-10
-1.30061e-07
-3.70309e-10
5.69595e-08
6.55336e-08
-1.21468e-07
-1.02468e-09
-1.2005e-07
1.19921e-07
1.88465e-10
-5.96799e-11
1.10216e-07
3.40128e-08
-1.44426e-08
1.43701e-09
2.03741e-07
-4.66358e-09
-5.55471e-08
-8.43666e-08
-3.63409e-09
-7.50901e-08
-2.45181e-08
6.42976e-10
1.1331e-07
-1.13247e-07
8.17657e-08
-2.01505e-07
1.11844e-07
-1.00576e-09
-6.2262e-10
7.29192e-08
6.80756e-08
-1.37185e-07
-3.80933e-09
-1.68881e-07
8.43568e-08
-2.39735e-08
-2.83054e-08
-3.91212e-08
1.33948e-07
-6.65213e-08
-3.08915e-08
7.41218e-08
3.22831e-08
-1.47041e-07
-9.30543e-08
9.8469e-08
1.41626e-07
7.98446e-08
-5.75435e-09
6.78514e-08
1.3464e-07
-5.51486e-08
-1.47343e-07
-3.83268e-09
1.22672e-07
1.53808e-08
-1.3422e-07
1.16942e-07
-9.92083e-08
-2.18502e-08
4.11627e-09
1.47991e-07
-2.00249e-07
1.85206e-07
1.47379e-07
-7.1532e-08
-6.90072e-08
-6.83968e-09
4.44815e-08
-1.77145e-07
-1.26891e-07
-1.25926e-07
-6.60694e-11
-1.96105e-07
1.65122e-07
-1.71374e-07
2.02356e-07
8.43281e-08
-1.75784e-07
-2.6667e-08
1.241e-07
-1.23015e-07
-4.43998e-10
-6.41146e-10
6.26259e-08
-1.25228e-07
-5.2571e-09
-7.27469e-09
7.49508e-08
-1.73522e-07
8.26309e-08
-1.4192e-07
8.91071e-11
1.70233e-10
1.4166e-07
-9.39563e-08
1.43096e-07
-1.87931e-07
-9.47914e-08
-2.71358e-08
-7.35172e-09
6.17557e-08
7.19647e-08
-6.07039e-09
-5.4613e-08
-6.21663e-08
-5.87423e-09
-3.90144e-09
-1.08669e-07
-1.0468e-07
-1.08343e-09
-5.68393e-09
7.19255e-08
-7.16681e-08
7.75636e-10
-1.03305e-09
1.10973e-07
-1.08814e-07
-1.30369e-09
-8.55611e-10
-1.38235e-09
1.32216e-07
-1.3105e-07
2.16549e-10
-1.36809e-07
1.47613e-08
1.16483e-07
5.56464e-09
1.32343e-07
-1.25582e-07
-4.71117e-09
-2.05e-09
-1.11654e-07
-1.21666e-09
1.13535e-07
-6.63809e-10
-1.08155e-07
-6.60972e-08
1.00997e-07
3.54183e-08
-1.00047e-08
-1.26411e-07
7.82951e-08
-8.32739e-08
4.1028e-09
8.76043e-10
4.70336e-08
3.89176e-08
-1.32917e-07
1.13248e-07
-1.10264e-07
-7.38945e-09
4.40575e-09
-5.28195e-08
5.33166e-08
1.58575e-07
5.74263e-09
1.34169e-07
-1.00199e-07
1.24585e-08
-2.86209e-08
-1.21818e-08
-1.06238e-07
-2.98914e-08
2.01789e-07
6.04965e-09
-1.76924e-07
1.35582e-07
-3.48913e-08
-2.02225e-08
2.18867e-08
-8.36417e-08
6.30477e-09
-1.30343e-07
1.30205e-07
6.03978e-08
-7.29861e-08
-3.1377e-08
7.98432e-08
2.14919e-09
6.20247e-08
5.70772e-08
-7.59879e-08
-8.64123e-08
1.19153e-07
-1.32672e-08
-7.31631e-08
6.01348e-09
9.81951e-08
1.17887e-08
2.34282e-08
2.59203e-08
-1.104e-08
5.33856e-08
6.18137e-08
6.92029e-09
-5.13446e-08
1.68031e-07
-1.74345e-07
-1.82225e-07
9.02815e-08
2.30118e-07
-1.55167e-07
1.10332e-07
-3.3922e-08
6.34628e-08
-1.39873e-07
-1.27745e-07
-4.41775e-08
-1.50298e-07
-5.62408e-09
-1.05792e-07
8.28929e-08
-9.14536e-08
1.14353e-07
9.07912e-09
-1.24926e-07
-1.46724e-07
-7.77451e-09
-4.09733e-09
-1.32424e-07
1.19975e-07
1.29392e-07
2.03709e-08
1.06298e-07
2.12905e-09
-1.3787e-07
1.27465e-07
-8.91768e-08
9.95815e-08
-1.04849e-07
1.39183e-08
-2.12162e-08
-3.57638e-08
4.85963e-08
4.35359e-08
-4.52533e-08
-1.1583e-07
-4.54338e-08
1.26534e-08
-7.35551e-08
-8.82048e-08
7.7826e-09
-7.2862e-08
8.35932e-08
8.35261e-08
2.4443e-08
4.40396e-08
-1.52009e-07
2.22715e-08
6.48706e-08
-8.47845e-08
4.04483e-09
-8.29281e-08
-9.34409e-08
7.48807e-09
6.46554e-08
-7.5405e-08
-4.9774e-08
6.05237e-08
-5.04582e-08
-9.1458e-09
1.53084e-07
-1.93061e-07
4.05602e-08
-5.82485e-10
-8.6907e-09
2.8435e-08
8.24466e-08
-1.02191e-07
5.54757e-10
-9.77482e-08
-1.02e-09
9.82135e-08
-1.04286e-07
1.03545e-07
3.98701e-10
3.42113e-10
1.35414e-07
-7.40602e-08
-1.3711e-07
-6.29081e-08
-3.95542e-08
1.04101e-07
-1.63864e-09
1.59643e-07
1.20182e-08
-1.21285e-07
6.16461e-09
-1.45375e-07
1.70969e-08
-5.05514e-10
-1.02235e-07
-1.17536e-07
1.17935e-07
-3.10203e-10
1.50904e-07
9.71653e-09
-1.5023e-07
-9.04933e-09
-1.47602e-08
2.2331e-07
-7.56609e-10
-3.8297e-08
-7.00684e-10
1.00723e-07
-9.99559e-08
2.16047e-10
6.63073e-10
8.86905e-09
2.73325e-08
1.2706e-07
-3.12427e-08
1.23719e-07
-9.11381e-09
-3.39674e-09
1.32358e-07
-1.27568e-07
-1.39304e-09
-1.07669e-07
1.10858e-07
-5.37917e-09
1.26406e-07
5.63177e-09
-3.29332e-08
-9.9105e-08
1.23229e-07
1.83794e-09
-1.23061e-07
-2.00596e-09
-7.34485e-08
-5.57621e-08
7.36635e-08
9.22006e-08
1.52493e-09
1.62199e-07
2.01328e-08
-3.73582e-08
-1.51292e-08
3.68565e-09
-8.07491e-08
1.26577e-07
-1.78105e-07
-2.49475e-07