/*--------------------------------*- C++ -*----------------------------------*\
| =========                 |                                                 |
| \\      /  F ield         | OpenFOAM: The Open Source CFD Toolbox           |
|  \\    /   O peration     | Version:  2212                                  |
|   \\  /    A nd           | Website:  www.openfoam.com                      |
|    \\/     M anipulation  |                                                 |
\*---------------------------------------------------------------------------*/
FoamFile
{
    version     2.0;
    format      ascii;
    arch        "LSB;label=32;scalar=64";
    class       volVectorField;
    location    "0.06";
    object      U;
}
// * * * * * * * * * * * * * * * * * * * * * * * * * * * * * * * * * * * * * //

dimensions      [0 1 -1 0 0 0 0];

internalField   nonuniform List<vector> 
31639
(
(0.125439 0.000581117 -0.000638394)
(0.12175 -0.000498735 1.72979e-05)
(0.123959 -0.00028896 0.000882603)
(0.127911 4.35439e-05 -0.000275569)
(0.124123 -0.000807582 -0.00030238)
(0.122497 -0.000166598 -5.37541e-05)
(0.122214 -4.75135e-05 -0.000209839)
(0.125087 -0.00012266 4.72047e-05)
(0.124844 0.000280061 -0.000255763)
(0.125723 -0.000518491 -0.000456035)
(0.126621 0.000471291 -2.00395e-05)
(0.12557 -0.000570313 -0.000816775)
(0.122573 -0.000536911 5.66602e-05)
(0.125629 -2.95335e-05 0.000220936)
(0.120972 -0.000380687 0.000157986)
(0.122689 -0.000446648 0.000844085)
(0.124487 0.000519955 8.82924e-05)
(0.121413 7.6045e-05 0.000390046)
(0.122804 -9.50693e-05 -0.000379358)
(0.123531 -9.14972e-05 -0.000224402)
(0.116355 -0.000285442 -0.000412005)
(0.126855 -0.000334751 -0.000614257)
(0.126202 0.000710071 -0.000186157)
(0.122356 0.000211209 -0.000358968)
(0.120791 -0.000233904 -0.00016986)
(0.124311 -0.000322485 0.000124277)
(0.123157 -2.28407e-05 -0.000228774)
(0.124744 0.00175399 -0.000155013)
(0.121878 0.000378448 0.000735089)
(0.126323 -0.000240586 0.000684256)
(0.12654 -0.000178922 -6.51901e-05)
(0.12146 -1.32676e-05 -0.000254837)
(0.126488 0.000374917 -0.000471768)
(0.122232 -0.000180786 -4.28804e-05)
(0.118325 0.000220352 0.000430542)
(0.126706 0.000406232 0.000239295)
(0.115081 -0.000468502 -0.000127076)
(0.12756 -0.000610795 0.00029026)
(0.126076 -0.00038741 0.000265153)
(0.114983 3.23735e-05 -0.00016992)
(0.119234 -9.38204e-05 -0.000329295)
(0.117832 -0.000550649 1.37142e-06)
(0.125249 2.63271e-05 8.58904e-06)
(0.127257 -0.000821925 -0.000897666)
(0.125857 -0.000755465 0.000756154)
(0.127001 -0.000900827 -0.000375266)
(0.119645 0.000375567 -0.000276289)
(0.123751 0.000557582 -0.00031351)
(0.123788 -3.89188e-05 0.000252138)
(0.127474 -0.000465999 -0.000187375)
(0.126593 -0.000299173 -0.000576372)
(0.116902 7.97274e-05 -0.000264353)
(0.125939 0.000708044 0.000153065)
(0.116151 -0.000351782 0.000531419)
(0.124127 -0.000479468 -0.000194383)
(0.123976 0.000208303 -3.87783e-05)
(0.117423 -0.000107439 -0.000602089)
(0.123399 6.01314e-05 0.000360545)
(0.122689 0.000163559 0.000423638)
(0.118074 0.000328102 -0.000225001)
(0.125402 -0.00025777 -0.00052363)
(0.126061 0.000357174 -0.000269016)
(0.121396 -0.000351359 -0.000301552)
(0.122724 -9.75465e-05 -0.000262229)
(0.124873 0.00045753 0.000472456)
(0.127433 -0.000345856 -0.000535708)
(0.124869 -4.21812e-05 -0.00104765)
(0.123093 -0.000306265 0.000144449)
(0.119532 4.5656e-05 -0.000445758)
(0.127425 0.000343489 -0.000191014)
(0.125103 0.000130526 0.00013467)
(0.119714 0.000511295 -0.00127398)
(0.125457 -0.000404872 -0.000842415)
(0.123633 -0.000283716 -0.000194083)
(0.12505 0.000719441 2.05928e-05)
(0.1164 0.00046516 -0.000594903)
(0.126587 -0.000640284 0.000335948)
(0.123015 0.000190566 -0.000668544)
(0.121867 -0.000305802 0.000444162)
(0.125356 0.000205987 6.72909e-05)
(0.12149 -5.86652e-05 5.43503e-05)
(0.113445 -0.000414798 1.96449e-05)
(0.126857 -0.000485535 0.000158269)
(0.123598 -0.000215192 -0.00032484)
(0.124111 -0.000154213 -9.2107e-05)
(0.126626 -0.000582292 -0.000351331)
(0.127578 -0.00016963 0.000136291)
(0.126717 -0.000217063 -0.00050339)
(0.117476 0.000876396 -0.00151084)
(0.125868 -0.00016029 -0.000518987)
(0.123945 -0.000420675 0.000245841)
(0.122733 -0.000542436 -0.000213271)
(0.118361 -0.000519338 -0.000529104)
(0.120636 0.000754969 -0.000839745)
(0.121568 -0.00088499 -0.000465012)
(0.122277 0.000841046 0.000534711)
(0.124146 0.000167587 -0.000558006)
(0.123354 -0.000259409 0.000141786)
(0.122728 0.000154189 0.00040875)
(0.117316 -0.00133338 -0.000220184)
(0.124807 0.000352914 -0.000101299)
(0.124308 -2.9986e-06 -0.000250017)
(0.121337 -0.000400159 -0.000115776)
(0.116629 9.10355e-05 -0.000196097)
(0.117859 -5.55656e-05 -0.000398803)
(0.127024 -0.000687571 -0.00033936)
(0.116099 0.000342319 -0.000508513)
(0.117169 -0.0010289 -0.000923937)
(0.120078 0.000353088 -7.83131e-05)
(0.115314 -0.000617094 0.000708659)
(0.124761 -0.00157887 0.000459444)
(0.118486 -0.000125955 -0.000266781)
(0.122669 0.00020885 -0.000119092)
(0.122641 -0.000783036 -0.000666051)
(0.122911 6.44374e-05 -0.00101707)
(0.116142 -0.000507791 0.000293345)
(0.122705 0.000731812 0.000145766)
(0.122099 -0.000879321 -0.000223171)
(0.124357 0.000155363 0.000298742)
(0.12253 -0.000409651 2.22665e-05)
(0.124844 -0.000261642 -0.000269659)
(0.125188 -0.000457009 0.000293492)
(0.126213 -4.97883e-05 -0.000616663)
(0.125401 0.000402147 -0.000729123)
(0.125251 -0.000359467 -0.000890293)
(0.126096 -0.000485671 0.000184702)
(0.122515 -5.2867e-05 0.000499421)
(0.121429 0.000171835 -0.000277426)
(0.121191 -0.000708725 -0.000426291)
(0.125831 -0.000274634 0.000286052)
(0.125389 0.000277185 -6.59456e-05)
(0.12602 3.64958e-05 -0.000571658)
(0.1249 -0.000736811 -1.11689e-05)
(0.123874 -0.000156561 0.000123543)
(0.126491 -0.000116149 -0.000108685)
(0.123342 -0.00011478 9.21418e-05)
(0.118285 -0.000161366 -0.000281157)
(0.117199 -0.000798664 -0.000537525)
(0.126321 0.000388852 0.00063499)
(0.122739 -0.000515051 -0.000522421)
(0.122416 -0.000289489 -0.00041129)
(0.127086 0.000270872 0.00121671)
(0.125912 0.000388217 0.000313371)
(0.116601 -0.000368852 -0.000499468)
(0.117049 -0.000146629 -0.000724566)
(0.125693 -0.000309517 4.70941e-05)
(0.125401 2.25925e-05 -0.000186905)
(0.117801 -0.000278508 -0.000429522)
(0.118394 -9.56694e-05 0.000218859)
(0.126277 -0.000518218 0.000207509)
(0.120615 -9.82769e-05 -0.00127381)
(0.122583 -0.000201469 7.27766e-05)
(0.123428 -0.000613546 -0.000906807)
(0.126029 -6.93237e-05 0.000101405)
(0.118903 0.000623323 -0.00131777)
(0.127937 6.8446e-06 -1.73068e-05)
(0.125167 -0.000454564 -0.000283152)
(0.119168 -0.00128791 -0.000222865)
(0.117564 -0.000758261 0.00109264)
(0.12225 -0.000403744 -9.08798e-05)
(0.127088 -0.000194224 -0.000477478)
(0.116241 0.00032154 2.94911e-05)
(0.118187 0.000364577 -0.00104433)
(0.117567 -0.000473254 0.000191627)
(0.116479 -0.00107726 5.39385e-05)
(0.121526 0.00058238 -0.00036991)
(0.117716 0.000326216 0.000237639)
(0.126733 -0.000636577 0.000154817)
(0.126502 -0.000512409 0.000237514)
(0.117766 0.000267657 -0.00089222)
(0.118913 -0.00099435 0.000292031)
(0.122015 0.000744241 -0.00051718)
(0.11806 -1.60657e-05 -5.52828e-05)
(0.123544 -0.000113181 0.000539867)
(0.127269 -0.000322739 -0.000198063)
(0.125068 -0.00075574 -0.000504457)
(0.123103 0.000618071 0.000253512)
(0.125824 0.000384843 0.000349876)
(0.123712 -0.00055118 -5.20319e-05)
(0.121731 -0.000558129 -2.5608e-05)
(0.121909 0.000144085 -4.31362e-05)
(0.122508 -0.000586989 0.000770483)
(0.121075 -4.60487e-05 0.000239805)
(0.115378 0.00100561 -0.000668251)
(0.124544 -0.000281376 8.61559e-05)
(0.127088 -5.60221e-05 -0.000201114)
(0.122566 0.000302401 0.000846919)
(0.126351 0.000174027 -0.000170258)
(0.118532 -0.000288381 0.000108302)
(0.115856 -0.000139199 0.000458536)
(0.127477 -0.000199617 -6.07484e-05)
(0.126071 -0.000214469 -0.000312539)
(0.123497 -0.000317942 0.000444942)
(0.122255 -0.000126394 0.000290136)
(0.122853 -0.000267507 -0.000458059)
(0.123804 -0.000291388 -0.000772742)
(0.123481 0.000745291 0.000419109)
(0.125587 0.00053946 -0.000476284)
(0.118167 -0.000204045 -0.000351657)
(0.122104 0.000103351 -0.00022708)
(0.127043 -0.000113769 0.000329194)
(0.125509 -0.00020953 0.000292994)
(0.125121 -0.000106558 0.000325317)
(0.122661 -0.00166108 -0.000962756)
(0.123808 -0.000610425 -0.000456458)
(0.12106 0.000116033 -0.000377896)
(0.122746 -0.000345948 -0.000477689)
(0.120996 0.000611961 -0.00071065)
(0.126228 0.000110316 -0.000728354)
(0.116224 -0.000110591 9.2903e-06)
(0.122881 -0.000101094 -0.000202462)
(0.122625 0.000354427 3.75819e-05)
(0.124204 0.000124187 -0.000286135)
(0.126646 -0.000206299 -0.000540064)
(0.125945 -0.000618562 -0.000416076)
(0.12691 -0.000242992 -0.000299897)
(0.118111 -0.00112479 -0.000355266)
(0.121249 -0.000857735 0.000480684)
(0.125755 -0.000417681 -0.000285157)
(0.12651 -0.000236033 0.000360709)
(0.125244 2.46982e-05 0.000383445)
(0.123617 -0.000500606 -0.000600392)
(0.114304 -0.000426019 0.00060174)
(0.122507 -0.000363338 0.000403207)
(0.117881 -0.000844147 -0.000307173)
(0.120881 0.000344166 0.000124437)
(0.125923 -0.00048166 0.000487902)
(0.121508 2.6846e-05 0.000601632)
(0.11676 0.000454178 -0.000266315)
(0.123719 0.00022229 0.000201608)
(0.125496 0.000636645 -0.000280118)
(0.127177 -0.000654192 6.27038e-06)
(0.117341 -0.000392915 3.01369e-06)
(0.116487 -0.000833984 0.000408067)
(0.124454 -0.000245327 0.000449801)
(0.126372 -0.000109908 -0.000614806)
(0.117529 -7.31412e-05 0.000488852)
(0.126389 -0.000589463 0.000315054)
(0.120974 -8.31157e-05 -0.000520065)
(0.118365 -0.00052738 0.000198036)
(0.12201 0.00030329 -0.000430051)
(0.124765 -0.000377132 0.000115159)
(0.121234 -0.000983246 -0.000227312)
(0.120344 0.000213864 0.00101461)
(0.121763 0.000437016 0.000472698)
(0.123733 -9.62485e-05 -0.000226364)
(0.121471 0.000397782 -0.0005853)
(0.120699 0.000936974 -0.00113032)
(0.116335 -0.000440774 0.00059886)
(0.121519 0.000183452 -0.000791379)
(0.122004 6.35025e-05 -0.000711501)
(0.119677 -5.09009e-05 5.11328e-06)
(0.121715 -0.00115516 0.000538573)
(0.126397 0.000271536 -0.000154228)
(0.126565 0.000551271 0.000232923)
(0.123813 0.000344524 -5.14745e-05)
(0.118425 0.000190761 6.47623e-05)
(0.125873 0.000338713 -0.000193037)
(0.125744 0.000305891 -0.000523406)
(0.123722 -0.000414039 -0.000267718)
(0.127482 0.000112391 0.000875141)
(0.126941 0.000138369 -0.000437718)
(0.124844 0.000164336 -0.000440319)
(0.126706 -0.000161447 4.76909e-05)
(0.121217 0.000444807 0.000309905)
(0.123494 -0.000347235 -0.000675977)
(0.11671 0.000228188 -0.00171629)
(0.121686 0.000101383 -1.47364e-05)
(0.125927 -0.00119678 0.000448104)
(0.121162 -1.83078e-05 0.000439245)
(0.126237 0.000435443 -0.000192761)
(0.122637 0.000468959 -0.000688159)
(0.124261 -0.00025459 0.00019458)
(0.125078 0.000402563 0.000429986)
(0.127109 -6.96632e-05 -0.000730152)
(0.12353 0.000640301 7.17665e-05)
(0.117611 0.000331108 2.51336e-05)
(0.122622 0.000317274 0.000210703)
(0.119156 0.00176711 -0.000316714)
(0.12637 -0.000427531 -0.00100106)
(0.12277 -0.000619489 -0.000593836)
(0.126325 0.00028905 -0.000522027)
(0.124159 0.000339016 3.17991e-05)
(0.121967 -0.000232438 -0.000451588)
(0.116314 -0.000111108 -1.56858e-05)
(0.119238 -2.13325e-05 -0.000595481)
(0.118028 0.000422592 0.000324941)
(0.116218 -0.00037382 0.000102469)
(0.126691 -0.000338326 -0.000474444)
(0.116679 -0.000517112 -0.000671367)
(0.123799 -0.000429134 0.000353028)
(0.123341 0.000504837 -0.00028536)
(0.122804 7.22584e-05 -0.000212291)
(0.1185 -0.000250309 -0.000347577)
(0.126589 -0.000837295 -1.32935e-05)
(0.122958 0.000133119 -0.000826604)
(0.120662 0.000183601 0.00074036)
(0.12635 8.74711e-05 -0.00042736)
(0.124738 -0.000162837 -6.95489e-05)
(0.119118 0.000549567 0.000518971)
(0.121165 0.000193378 -2.88161e-05)
(0.118255 0.000190756 -3.56962e-05)
(0.123137 0.000275639 -0.000404353)
(0.12153 0.000391199 -0.000191805)
(0.118096 0.000410392 0.000967632)
(0.12333 -3.34994e-05 -0.000253934)
(0.121475 0.0011183 0.000800535)
(0.115552 4.16397e-05 -0.00134169)
(0.115497 0.000306423 0.000235523)
(0.124976 -0.000477162 0.000165601)
(0.126322 0.000119147 -9.01446e-05)
(0.127193 0.000365916 -0.000143078)
(0.117008 0.000457443 0.000412649)
(0.118703 -0.000137512 0.000640649)
(0.12548 0.000157867 0.000425015)
(0.120065 -0.000257327 -0.000286535)
(0.120432 0.00060034 -0.000903222)
(0.125317 0.000504843 0.00021327)
(0.126215 -0.000707585 -0.000105643)
(0.123054 -0.000890582 0.000223141)
(0.126285 -0.0011642 -0.000224391)
(0.127315 0.000163892 -0.000236904)
(0.117947 -0.000178748 -0.000267334)
(0.126854 -0.00139172 -0.000127058)
(0.115266 0.000166519 -0.000265439)
(0.116697 -3.35134e-05 -3.54689e-05)
(0.126672 -0.000456621 -0.000307085)
(0.125931 -0.000412526 -0.000212463)
(0.126751 1.89283e-05 -0.000840119)
(0.127203 0.000383558 -0.00114632)
(0.126077 -0.000263813 -0.000890248)
(0.11913 0.0013983 -0.000603351)
(0.121068 -0.00119759 0.000785648)
(0.121779 -0.000203881 -0.00033385)
(0.124771 -0.00103825 0.000184761)
(0.126852 0.000996501 0.000925939)
(0.127513 -0.000931814 0.000375516)
(0.122542 0.00020714 -0.000264663)
(0.120128 -0.00117024 0.000439291)
(0.122457 3.33045e-05 -0.000172158)
(0.125974 -0.000174257 -0.000152237)
(0.12575 -0.000217485 -0.00104838)
(0.121797 9.38945e-05 -0.000221123)
(0.124462 -0.000215912 5.40542e-06)
(0.121937 0.000650529 -0.000710347)
(0.122412 -0.00047596 -0.000429538)
(0.124743 -0.000474943 0.00051919)
(0.120476 -0.00128026 0.00115245)
(0.117942 -0.000123196 -5.55428e-05)
(0.123668 0.000833522 -0.000313744)
(0.124746 0.000110994 0.000671023)
(0.122003 0.000408301 -0.000195718)
(0.125016 0.000399457 0.000445493)
(0.126175 -0.000368006 0.000360317)
(0.122919 0.000125628 -0.000478254)
(0.118576 3.28087e-05 -0.000569651)
(0.122178 0.000510139 -0.000415151)
(0.121314 0.000509471 0.000582882)
(0.116788 0.000207911 -0.000474755)
(0.125938 -0.00074566 0.00031771)
(0.116418 0.000673109 0.000458334)
(0.125175 -0.000171339 -0.000467859)
(0.126935 -0.000733672 -0.000385214)
(0.11748 -0.000402867 0.000212988)
(0.123039 0.000399037 7.73885e-05)
(0.12149 0.000470856 0.000435916)
(0.117322 -0.000363341 -6.41639e-06)
(0.124648 -0.000202086 -0.000315342)
(0.118794 6.90299e-05 -3.12761e-05)
(0.123006 4.20586e-05 0.000803957)
(0.126537 0.000259506 9.64701e-05)
(0.124917 0.000171296 0.000129072)
(0.116532 0.000360863 0.000113293)
(0.125259 0.000403274 6.47441e-05)
(0.118639 0.000158931 -0.000419865)
(0.125225 -2.23584e-05 1.21166e-05)
(0.125147 0.000199391 0.000245639)
(0.125716 -7.50472e-05 -0.000642415)
(0.126486 -0.000131905 -0.000590158)
(0.117508 6.76326e-05 -0.000800138)
(0.124892 -0.0006466 4.98752e-05)
(0.116782 9.05088e-05 -0.000570843)
(0.121683 7.43627e-05 -0.000481084)
(0.11774 3.59597e-05 -0.000492742)
(0.127597 -5.45765e-05 -0.00064292)
(0.126104 1.60756e-05 -0.000604569)
(0.127185 2.2561e-05 -3.9391e-06)
(0.126596 -0.000407717 -0.000597111)
(0.124233 -5.49109e-05 -0.000841748)
(0.125389 -3.12158e-05 0.000135548)
(0.121823 0.000259645 -0.000138066)
(0.124022 0.000379982 -0.000350279)
(0.122715 0.000115033 -0.000404875)
(0.118856 0.000203893 9.02965e-05)
(0.12564 4.76375e-05 -0.000504136)
(0.123575 -0.000389373 -5.4898e-05)
(0.12375 -9.26579e-05 -0.000333296)
(0.125893 0.000216696 0.000203984)
(0.12563 -0.000108857 -0.000427812)
(0.126272 -6.54359e-06 0.000285926)
(0.122757 -0.000729421 0.000186518)
(0.116998 -0.000177839 0.000740435)
(0.122351 0.000163001 0.000113629)
(0.125047 0.000129538 0.000506691)
(0.124095 -0.000192611 0.000101105)
(0.11764 -0.000662251 -0.000453012)
(0.126167 0.000141786 -0.000363675)
(0.125963 -0.000202659 -0.000904744)
(0.120457 0.000377144 -0.000361229)
(0.124576 -0.000211351 -0.00048704)
(0.125241 -0.000442103 -0.001208)
(0.125257 -0.000416553 -0.000655598)
(0.125106 -0.000414955 -0.000135215)
(0.117186 -6.13255e-05 -6.03728e-05)
(0.124492 -0.000501975 0.000120383)
(0.124816 -0.000592405 0.000231156)
(0.115353 0.000123719 0.000139301)
(0.124263 -0.00104942 -1.89658e-05)
(0.124396 -0.000354271 -0.000127376)
(0.120415 6.93491e-05 0.000397052)
(0.116219 3.33938e-05 0.00023986)
(0.115894 -0.000480471 0.000652647)
(0.122102 -0.00103612 0.000268704)
(0.115674 0.000733969 -0.000660734)
(0.122322 6.97542e-05 0.000187356)
(0.123462 -4.61044e-07 -7.43277e-05)
(0.121166 0.000566563 0.000283184)
(0.125105 0.000404147 0.000228003)
(0.1169 -0.000370332 0.000146978)
(0.124405 0.000361455 8.65359e-05)
(0.127467 0.000260183 5.32772e-05)
(0.122056 -0.000126268 8.86729e-05)
(0.125062 -0.000157475 0.000682211)
(0.12252 0.000166822 5.57469e-05)
(0.126483 0.00105578 1.06667e-05)
(0.123764 0.000432672 9.64288e-05)
(0.124469 -0.000303661 -0.000720543)
(0.127525 0.000103719 -0.00043336)
(0.122881 7.82504e-05 -0.000457785)
(0.117475 0.000238924 0.0001602)
(0.122282 1.93311e-05 -0.000149973)
(0.126998 0.000181968 -0.00125813)
(0.125927 0.000240875 -0.000834605)
(0.125205 -0.000272068 0.000742405)
(0.126404 2.29823e-05 7.4284e-05)
(0.122446 -0.000738949 0.000664322)
(0.125731 -0.000225737 0.000254671)
(0.124307 0.000203799 0.000197406)
(0.125432 0.000312487 -0.000148997)
(0.125904 -0.000313663 -0.000495956)
(0.11613 -0.000459946 -0.0003429)
(0.122048 -0.00030743 0.000240348)
(0.114741 -0.000205399 0.000254427)
(0.122602 0.000655282 0.000776331)
(0.121012 -0.000122685 -0.000719521)
(0.117294 -0.000319295 0.000754135)
(0.116613 -0.000510967 -0.000286967)
(0.123522 0.000383892 -0.000250596)
(0.124463 -0.000443685 -0.000290495)
(0.126288 -1.38327e-05 -0.00059365)
(0.118031 -0.000248707 0.000742343)
(0.125247 3.74689e-05 -1.12467e-05)
(0.123137 -4.19462e-05 0.000333724)
(0.12253 -0.000204289 -0.00045892)
(0.124476 -2.5451e-06 -0.000669903)
(0.115609 -0.000929936 0.00162864)
(0.122512 -0.000110806 -0.000489601)
(0.116871 0.000124344 0.000342756)
(0.120704 -0.000515233 -0.000447036)
(0.125318 -0.000137453 1.81181e-05)
(0.127821 0.00135501 0.000333145)
(0.125515 0.000209562 -0.001116)
(0.124055 0.000524831 -0.00069961)
(0.115643 0.000276763 0.00150759)
(0.125034 -9.30847e-05 0.00011426)
(0.124006 -0.000221251 -0.00054539)
(0.125507 -0.000217452 -0.000351768)
(0.116422 -7.05909e-05 1.75677e-05)
(0.118936 -0.000188539 0.000684423)
(0.121414 0.000479972 0.000653758)
(0.118994 0.000414956 -0.000220372)
(0.115317 -0.00074388 -0.000228292)
(0.125529 -9.6467e-05 -0.000405899)
(0.118562 -0.00014996 0.000150735)
(0.12148 0.000882696 0.000101895)
(0.117101 -0.000321077 -0.001028)
(0.125009 0.000375256 6.46797e-05)
(0.117773 0.000157531 -0.000365121)
(0.126492 -0.000240633 0.000657262)
(0.124899 8.61275e-05 -0.000471901)
(0.126596 -6.54648e-05 0.000560907)
(0.126654 -0.000154324 -0.000502512)
(0.118177 6.20724e-06 0.000146885)
(0.125747 3.65175e-05 0.000228259)
(0.12701 -0.000308954 -3.54141e-05)
(0.12411 -0.000504037 0.000506763)
(0.12495 0.000568548 -0.000240869)
(0.124039 -0.000460848 -0.000253322)
(0.126354 0.00043272 -0.000137699)
(0.125171 5.85009e-06 0.0001662)
(0.121089 4.51295e-05 -0.000396974)
(0.12788 -0.000250234 -2.7714e-05)
(0.127251 -0.000398603 -0.000417094)
(0.123134 -0.000316333 -0.000356688)
(0.122648 -0.000255761 -0.000772716)
(0.126376 -0.000396547 -0.000223027)
(0.123542 0.000440459 7.88406e-05)
(0.115517 0.00073193 -0.000186969)
(0.115887 0.000453246 -4.51408e-05)
(0.122679 3.81348e-05 2.11473e-05)
(0.12579 -0.000111789 0.000333723)
(0.127157 -0.000195356 -0.000241305)
(0.120937 -0.000184048 -0.00015356)
(0.126074 0.000649846 0.00025725)
(0.124796 2.70536e-05 5.24209e-05)
(0.126237 0.000909398 0.00076851)
(0.12322 3.04404e-05 -0.000192172)
(0.123659 0.00057071 -0.000545843)
(0.124548 -0.00162691 0.000412103)
(0.117061 -7.84519e-06 -0.000288943)
(0.122495 0.00019298 -1.01327e-05)
(0.124737 -1.19515e-05 -0.000404819)
(0.126606 -1.52644e-05 6.63824e-05)
(0.118727 -7.21826e-05 8.52396e-05)
(0.119636 0.000692864 -0.000884593)
(0.120585 -8.35859e-05 -0.000339986)
(0.120511 -0.000288469 -6.42458e-05)
(0.122311 -0.000204282 -0.000552887)
(0.116783 -0.000127882 -0.000338061)
(0.125779 9.52752e-05 -0.00092341)
(0.121644 -7.51769e-05 -0.000230452)
(0.125136 0.000134671 0.00114635)
(0.122584 -0.000286542 -8.05899e-05)
(0.127061 -0.000265121 -0.000240139)
(0.123576 -0.000359274 -0.000968216)
(0.117294 0.000182421 0.000595165)
(0.124452 0.000745499 1.4469e-05)
(0.127384 -0.000385245 -0.00104884)
(0.117983 0.000438647 0.00122851)
(0.126249 -0.000214937 -0.000754223)
(0.12831 -0.000835098 -0.000736685)
(0.123346 -0.000166583 -9.40417e-05)
(0.121653 0.000220064 0.000217099)
(0.12481 0.000644841 -0.00132117)
(0.120795 -5.69345e-05 7.4217e-05)
(0.122824 -0.000481479 0.000111843)
(0.122552 0.000127861 0.000316301)
(0.117803 -0.000160885 -2.0694e-05)
(0.118192 -0.000189971 -0.00116409)
(0.121791 0.000178549 0.000532072)
(0.120934 0.000654926 0.00016022)
(0.12578 -0.000172192 -0.00028941)
(0.120689 -0.000441766 0.000262272)
(0.12249 0.000469591 0.000417112)
(0.126746 0.00025984 0.000429804)
(0.121564 0.000194122 -7.2812e-07)
(0.116218 0.000197751 0.000419539)
(0.120968 0.000362464 0.000258798)
(0.122883 0.000450466 -0.000369705)
(0.127172 -0.000178449 0.000296021)
(0.116974 0.000763405 0.000369064)
(0.116622 -0.000131443 0.000320791)
(0.126861 0.000315381 0.000948012)
(0.117103 0.000289649 -5.77675e-05)
(0.123954 -2.24125e-05 -8.83021e-05)
(0.125692 0.000202584 -0.000291346)
(0.118672 -0.000138876 -0.000899574)
(0.122835 -4.73419e-06 -0.00049622)
(0.126507 0.000564875 -0.000901991)
(0.122948 -0.000141926 0.000620954)
(0.115399 8.10217e-05 0.000252844)
(0.12602 0.000285168 -0.000231425)
(0.123143 -8.76223e-05 -0.000210337)
(0.115791 0.000563504 0.000103345)
(0.126458 0.000302253 -0.000266147)
(0.121047 -0.000193786 -0.000363604)
(0.122132 0.000656433 -0.000367796)
(0.124765 -4.72427e-06 -0.000186047)
(0.115991 0.000851881 -0.000456426)
(0.121866 -0.000131833 -0.00106525)
(0.121368 -0.000934953 -0.000146384)
(0.123251 -9.2286e-05 -0.000510495)
(0.118866 -0.000134413 0.000449897)
(0.120653 -9.00531e-05 -9.27746e-05)
(0.124839 0.000521233 0.000605005)
(0.127282 -0.00100027 -0.00068666)
(0.128782 -0.000365748 -0.000166647)
(0.127213 0.000572591 -0.000475101)
(0.126309 -0.000646474 -0.000204931)
(0.12547 4.23759e-05 -0.00127581)
(0.120301 -0.000268718 0.000526236)
(0.12783 0.00012918 -0.00119059)
(0.125557 -4.74894e-05 5.78467e-05)
(0.124357 0.000473423 9.65745e-05)
(0.118858 0.000787247 -0.000432338)
(0.123447 -0.000143692 -0.000215216)
(0.124908 0.000538301 0.000624089)
(0.128555 0.000920629 9.78813e-06)
(0.11686 -0.000145487 0.000362096)
(0.115485 -0.000363732 0.000439852)
(0.126387 0.000288417 -0.000652711)
(0.12092 3.38105e-05 -0.000313736)
(0.126636 0.000126379 -8.91458e-05)
(0.121821 0.000266314 -0.000548922)
(0.118684 -0.000421972 -0.000862392)
(0.12457 -0.000173227 -0.00092103)
(0.126145 0.000400883 1.96285e-05)
(0.124208 0.000268924 0.00016129)
(0.125755 0.00105255 -0.000342436)
(0.117601 -6.44635e-05 -0.0018411)
(0.125798 0.000923861 0.000220396)
(0.125591 -0.000424022 -0.000490671)
(0.116288 0.00039045 -0.000115645)
(0.125077 -0.00022475 -0.000540589)
(0.12489 -0.000233431 4.51775e-05)
(0.122406 -0.000563864 0.00140344)
(0.117941 -0.000584973 -0.000995251)
(0.116241 0.000289774 -0.000891565)
(0.122617 0.000283464 -0.00026054)
(0.122307 -1.46294e-05 0.0010014)
(0.123125 -0.000164796 0.000193349)
(0.122247 0.000598443 0.0001091)
(0.121654 0.000518463 0.000802276)
(0.125942 9.29588e-05 0.000155483)
(0.123309 -2.23379e-05 0.000310679)
(0.1235 0.000497876 0.000322955)
(0.118918 -0.0002697 0.000725479)
(0.127068 -6.11766e-05 -0.001049)
(0.117141 -0.000226489 6.84283e-05)
(0.122769 0.000642407 -3.58884e-05)
(0.122263 0.000249875 -0.000149694)
(0.122878 -0.000731379 -0.000808161)
(0.124772 0.000466491 -0.000162669)
(0.121037 4.9787e-05 -0.000486436)
(0.11741 -0.000957559 -0.000543217)
(0.116283 -0.000242197 -0.000634177)
(0.117858 -0.000336389 -0.000329543)
(0.122562 -0.00054267 -0.000363174)
(0.124955 0.000723551 0.000226427)
(0.117122 0.000534396 0.0019982)
(0.125758 -0.000140389 7.83381e-07)
(0.123256 -4.41194e-05 -0.000866602)
(0.126577 -0.000439743 -0.000383028)
(0.116756 0.000114633 -0.000770394)
(0.120657 0.000356662 0.000593656)
(0.125166 0.000292193 -0.00103111)
(0.126961 -0.00102146 -6.68087e-05)
(0.125041 0.000429692 -0.000405798)
(0.126199 -0.000222479 -0.000293825)
(0.123393 0.000188458 0.000155452)
(0.122605 0.000378322 0.000187897)
(0.127326 5.07733e-05 0.000185377)
(0.127016 0.000480341 -5.00089e-05)
(0.126593 0.000270794 2.92585e-05)
(0.11926 0.00103947 -0.000526152)
(0.126781 -0.000955332 -0.00074597)
(0.116293 -0.000242964 0.000491432)
(0.126849 0.000747832 0.000124441)
(0.123947 -1.04447e-05 -0.000172329)
(0.122747 0.000328528 -0.000643014)
(0.117808 0.00103794 -3.76006e-05)
(0.122634 0.00115563 -0.000877856)
(0.114966 -0.000653614 -0.00102854)
(0.125961 0.000490022 -0.000702105)
(0.123246 0.000238224 -0.000276794)
(0.125906 -0.000183123 -0.000287544)
(0.1222 0.000450579 -0.000195683)
(0.121274 0.00119984 -0.000379187)
(0.117116 -0.000337329 0.000820497)
(0.127644 0.000320323 -0.000116167)
(0.118613 -0.000600962 0.000381276)
(0.115362 -0.000294358 -0.000318111)
(0.118417 -0.000155341 -5.01646e-05)
(0.118689 0.000551307 0.000269319)
(0.117395 0.000682546 -0.000102792)
(0.122731 -0.000352399 8.89474e-05)
(0.117487 0.000121135 -0.000142191)
(0.12483 -0.00125967 0.000644959)
(0.125386 3.96419e-05 -0.000426729)
(0.115265 -0.000126317 -8.42807e-05)
(0.12479 0.000195167 -0.000209094)
(0.117403 0.000233219 -0.000763946)
(0.122364 0.000576307 -0.000259265)
(0.123037 0.000281379 -0.000249404)
(0.122866 -0.00039334 -0.0009854)
(0.125598 0.000164252 -3.32716e-05)
(0.127571 0.000352045 -0.00090969)
(0.125739 -7.06536e-05 0.000269058)
(0.124717 2.84435e-05 -2.83519e-05)
(0.124444 -0.00026903 -0.00118968)
(0.125086 0.000289494 0.000127223)
(0.12201 0.000428598 -6.50919e-05)
(0.122615 0.000494714 0.000251907)
(0.115978 0.000516015 -0.000913402)
(0.11102 -8.54558e-06 0.00339358)
(0.126135 8.90746e-05 6.38202e-06)
(0.122641 9.08755e-05 -0.000224839)
(0.12559 -0.000313411 -0.000108451)
(0.125178 -0.000105412 0.00029338)
(0.11664 -0.000614471 -4.92322e-05)
(0.126192 -0.000136704 -0.000220976)
(0.126446 0.000616437 0.000143177)
(0.126186 4.06506e-05 0.000178246)
(0.126067 0.000432814 0.000576436)
(0.124298 0.000350013 0.000461186)
(0.123766 -0.000562039 -0.000140425)
(0.125931 -0.000101188 0.000205414)
(0.127101 -0.000165161 0.000674148)
(0.123905 0.000279799 0.000330031)
(0.126671 0.000375022 -0.000288453)
(0.12618 -0.000415428 -0.000435698)
(0.119211 -0.000334659 -0.000488229)
(0.126107 -0.000103729 0.000283124)
(0.119972 -0.000271157 0.000525677)
(0.123184 0.000295852 -0.000287404)
(0.122935 -0.000951501 0.000141871)
(0.122418 -0.000521117 0.000343435)
(0.122173 0.000761719 0.000152379)
(0.125153 0.000416809 1.49099e-05)
(0.122707 -1.67921e-05 -8.0563e-05)
(0.123609 0.00053578 -0.000684)
(0.122393 0.00126933 -0.000675135)
(0.116453 0.00147763 -0.00104893)
(0.127451 0.000554108 -0.000313239)
(0.125244 0.000694205 -0.000140279)
(0.122095 6.08991e-05 0.000816049)
(0.117081 -0.000353438 1.26418e-05)
(0.125349 -0.000366932 -4.20716e-05)
(0.116764 -0.000592742 -0.000525962)
(0.126353 -0.000314839 0.000183844)
(0.126125 -7.81854e-05 0.00026262)
(0.121126 0.00129812 -0.000621677)
(0.125039 -0.000245411 0.000236051)
(0.126875 0.000111827 -0.000417144)
(0.123844 -0.000519283 -0.000264216)
(0.116066 -1.60257e-05 0.00028736)
(0.122659 0.000195903 0.000425782)
(0.119832 0.000621202 -0.000337087)
(0.122757 0.0003141 -0.000337233)
(0.116624 -0.000518938 -0.000954703)
(0.125202 -5.94018e-05 -0.000424143)
(0.125559 -0.00044243 0.000707516)
(0.120745 0.000915459 -0.000772022)
(0.122497 0.000174481 4.09321e-05)
(0.119743 0.000278342 -0.000595306)
(0.125785 2.279e-05 -0.000433525)
(0.122258 -0.00075873 5.28095e-05)
(0.123068 0.000593784 0.000543082)
(0.117101 -0.000171415 0.000116651)
(0.125852 1.02711e-05 5.056e-05)
(0.124202 -0.000364531 -0.000115216)
(0.12606 -5.94187e-05 -0.000197633)
(0.119957 0.000432202 -0.000304137)
(0.122404 -4.9636e-05 -0.000309731)
(0.123586 0.000100404 -0.000273717)
(0.121316 -0.000256264 0.000290933)
(0.123973 -7.3503e-05 0.000433834)
(0.123599 -0.000369145 0.000599227)
(0.125446 -0.000392961 0.000134995)
(0.122697 -0.000102843 -0.000130176)
(0.117715 -4.87126e-05 -0.000184077)
(0.115543 -0.000167264 -0.000752019)
(0.124187 -0.000770094 0.000219376)
(0.116497 0.000516244 -0.00141492)
(0.121024 -0.000727227 -0.00155229)
(0.122726 0.000259487 -0.000325282)
(0.122867 0.000295688 0.000174109)
(0.126938 0.00035352 -0.000417694)
(0.116357 9.58965e-05 5.77958e-05)
(0.121738 -0.000122123 -0.000713466)
(0.127446 0.000125844 -0.000465891)
(0.118221 0.000780701 -0.00293338)
(0.118382 0.00134468 8.00442e-05)
(0.122096 0.000306331 -0.000872154)
(0.118096 0.000222435 2.87704e-05)
(0.12479 0.000961099 -0.00109148)
(0.118473 -0.000347273 3.87974e-05)
(0.126896 -0.000855234 -0.000429769)
(0.120462 0.000327402 0.000425621)
(0.121794 0.000669995 0.000502529)
(0.128003 0.00051113 0.000944693)
(0.115603 -7.7477e-05 0.00059474)
(0.120459 6.52317e-05 0.000396548)
(0.120589 4.06683e-05 0.000614365)
(0.125985 -4.03614e-05 -0.000784787)
(0.126112 6.92935e-06 0.00043453)
(0.126441 3.6085e-05 -8.3707e-05)
(0.117367 0.000824355 0.000329932)
(0.124978 0.000177213 -0.000159998)
(0.125769 5.81255e-05 0.0010577)
(0.120774 0.000357517 -0.000184483)
(0.125985 0.000380868 -0.000122655)
(0.125523 0.00046553 0.000219837)
(0.125335 0.000396082 2.90642e-05)
(0.12656 0.000144365 -0.000651985)
(0.122554 9.65726e-05 -0.000120708)
(0.127454 -2.73628e-05 0.000501742)
(0.127074 0.00073451 0.000923916)
(0.126198 0.000101854 -0.000860138)
(0.123804 0.000453659 0.000292049)
(0.12194 -0.000249093 -0.000219233)
(0.122695 0.000467398 0.000154296)
(0.122393 0.00020298 -0.000275084)
(0.115731 -0.000955225 -0.00030071)
(0.121557 -0.000114031 0.000205163)
(0.124054 -0.000359883 0.000373691)
(0.125922 -0.000375849 -0.000272327)
(0.126913 -0.00026953 -0.000887303)
(0.12177 -0.000501529 -7.30563e-05)
(0.127407 0.00120491 -0.000285509)
(0.124994 -8.94273e-05 -8.99985e-05)
(0.120795 -0.000674446 0.000449269)
(0.126003 -0.000196625 -0.000440141)
(0.126311 -1.03159e-05 -0.000212363)
(0.12509 0.000134578 -0.000662558)