/*--------------------------------*- C++ -*----------------------------------*\
| =========                 |                                                 |
| \\      /  F ield         | OpenFOAM: The Open Source CFD Toolbox           |
|  \\    /   O peration     | Version:  2212                                  |
|   \\  /    A nd           | Website:  www.openfoam.com                      |
|    \\/     M anipulation  |                                                 |
\*---------------------------------------------------------------------------*/
FoamFile
{
    version     2.0;
    format      ascii;
    arch        "LSB;label=32;scalar=64";
    class       surfaceVectorField;
    location    "0.06";
    object      Uf;
}
// * * * * * * * * * * * * * * * * * * * * * * * * * * * * * * * * * * * * * //

dimensions      [0 1 -1 0 0 0 0];

internalField   nonuniform List<vector> 
68568
(
(0.124541 0.000168261 -0.000132113)
(0.123719 0.000540422 -0.000240878)
(0.123375 0.000332568 -3.93811e-05)
(0.126219 0.000781852 -0.00040876)
(0.123585 -0.000493323 -0.000213646)
(0.123594 -0.00052083 -0.00049052)
(0.12218 -0.000511614 5.87275e-05)
(0.115205 -0.000277119 -0.000254132)
(0.125181 0.000212135 0.0003458)
(0.124919 -0.000505477 0.000743841)
(0.123215 -0.000259472 3.51101e-05)
(0.118753 -0.000706816 0.000792858)
(0.127682 -0.000193178 -0.000187266)
(0.126434 -8.29953e-05 -0.000478507)
(0.127401 -0.000146724 -0.000352413)
(0.127835 -0.000247028 -0.000375065)
(0.121832 -0.000206263 -0.000266542)
(0.125093 -0.000510631 -0.000307825)
(0.12112 -0.000235055 -0.000302442)
(0.124695 -0.000514762 -0.000362668)
(0.124299 -0.000250072 -3.27127e-05)
(0.122584 -0.000144971 0.00013787)
(0.12456 -0.000154883 0.000161215)
(0.116646 -0.00016074 -0.000310189)
(0.123574 -7.9258e-05 -0.000119248)
(0.118424 -0.000245491 0.000247136)
(0.120533 4.0423e-05 -0.000447822)
(0.123686 -0.000132741 -0.00020208)
(0.123391 0.000228143 0.000546152)
(0.125888 9.62252e-05 0.000143604)
(0.124503 -7.77552e-05 7.17048e-05)
(0.124991 -0.000159236 -0.000379012)
(0.123583 0.000148655 -0.000255367)
(0.123681 0.000369933 -0.000643571)
(0.125792 -0.000253474 -6.63787e-05)
(0.124183 -0.000629066 -0.0003259)
(0.126262 -0.000170688 -0.000548509)
(0.126454 -0.000591126 -0.000391671)
(0.126643 0.000459318 0.000138566)
(0.125122 0.000289629 -7.1721e-06)
(0.126495 0.000265248 -5.1759e-05)
(0.122273 -0.000109588 -0.000533339)
(0.12686 -0.00043587 -0.000770072)
(0.126382 -0.000601184 -0.000685772)
(0.123684 -0.000337006 9.96376e-05)
(0.122458 -0.000567901 -3.95419e-06)
(0.115689 -4.18708e-05 -0.000340385)
(0.126259 -0.000204444 -9.7049e-05)
(0.126074 -0.000172867 0.00032257)
(0.125085 -0.000231767 0.000247509)
(0.123043 -8.37332e-05 0.00022233)
(0.121175 -0.000371443 5.968e-05)
(0.123117 -0.000305011 -6.99015e-05)
(0.122255 -0.000272668 2.62892e-05)
(0.115352 -0.000318193 6.50572e-06)
(0.123841 -0.000470605 0.000867016)
(0.118601 -0.000433462 0.000617318)
(0.120556 -0.000431323 0.000815198)
(0.124247 -0.000352131 0.000277837)
(0.123025 0.000242626 0.000185036)
(0.124154 0.000439564 0.00019344)
(0.123559 0.000395479 0.000153133)
(0.125418 0.000202749 9.20318e-05)
(0.118626 0.000484772 0.000435407)
(0.118783 -0.000315034 0.000668204)
(0.123196 -4.11768e-05 0.000230221)
(0.123528 -0.000102036 -0.000609192)
(0.120497 -0.000539265 -3.1586e-05)
(0.119219 1.99311e-08 -0.000725232)
(0.124023 -0.000315279 -0.000346562)
(0.123371 1.22816e-05 -0.000210338)
(0.125159 -0.000314444 -8.09409e-05)
(0.124644 -0.000512415 -1.69048e-07)
(0.118179 -0.000115376 -0.000146997)
(0.117861 -0.000239977 -0.000371592)
(0.119806 5.86425e-05 -0.000318714)
(0.118292 0.000246989 -0.000338086)
(0.106266 -0.000193091 -0.000460297)
(0.125361 -0.000468673 -0.000558547)
(0.126978 -0.000224196 -0.000657281)
(0.125982 -0.000353753 -0.000652771)
(0.126489 -0.000384644 -0.000762627)
(0.125699 0.000347744 -0.000212703)
(0.125825 0.000472477 -0.000102782)
(0.123274 0.000470431 2.87963e-05)
(0.12666 0.000524056 -0.000228704)
(0.119839 0.000348984 -0.00032403)
(0.120293 -9.84525e-05 -0.00032671)
(0.123349 0.000178944 -0.000484932)
(0.123813 8.56026e-05 -0.000116046)
(0.117517 -7.64878e-05 4.53748e-05)
(0.122378 -0.000202752 -0.000135152)
(0.119629 0.000177146 -0.000558339)
(0.122394 -0.000213914 0.000251262)
(0.123018 -7.81261e-05 -7.08101e-05)
(0.123021 -0.000545476 0.000192996)
(0.125329 -0.000378569 0.000835273)
(0.122995 -0.000143282 -0.000365959)
(0.12463 -0.000220308 -0.000234817)
(0.117675 -0.000169944 0.000243753)
(0.125338 0.00146045 0.000373624)
(0.122776 0.00170204 -0.000439241)
(0.124906 0.00170462 0.000205999)
(0.12295 0.0013115 -0.000747002)
(0.124515 8.53228e-05 0.000528587)
(0.117639 0.000374568 -0.000256934)
(0.119747 0.000490437 0.000209176)
(0.126429 -3.40862e-05 0.000434983)
(0.125482 -0.000256069 0.000350863)
(0.126543 -0.000183546 0.000414952)
(0.126994 -0.000312625 -0.000168059)
(0.124857 -6.5189e-05 4.87133e-05)
(0.127179 -0.000252643 -0.00014823)
(0.124275 -0.000146792 -0.000159877)
(0.123037 -0.000128018 -0.000264202)
(0.12315 -0.000101789 -0.000423068)
(0.118951 0.00040416 -0.000117577)
(0.118415 -0.000273503 0.000325084)
(0.125875 0.000353231 -0.000461045)
(0.125071 2.37204e-05 -0.000252879)
(0.126193 2.20539e-05 -0.000431065)
(0.12656 -6.74279e-06 -0.000225398)
(0.119976 -0.000122085 -0.000229508)
(0.118661 -0.000232779 0.000144423)
(0.123748 -0.000189117 6.19546e-05)
(0.123984 2.11446e-05 0.000159863)
(0.120316 0.00046395 0.000431943)
(0.117725 0.000366336 0.000433307)
(0.117721 0.000267416 1.60707e-05)
(0.107314 0.000189362 0.000404069)
(0.126346 0.00044875 1.13943e-05)
(0.117386 -0.000102342 -0.000125823)
(0.117702 -0.000585211 -0.000282896)
(0.114906 -0.00031642 6.9749e-05)
(0.106472 -0.000364912 -7.11464e-05)
(0.126905 -0.000521951 0.000272077)
(0.126941 -0.000671778 0.000151541)
(0.127154 -0.000257207 0.000432264)
(0.126394 -0.000685039 0.000256948)
(0.124401 -0.000291127 0.000335009)
(0.124514 -0.000373987 0.000580342)
(0.126261 -0.000427646 0.000626569)
(0.116154 0.000610227 -0.000566636)
(0.117558 -0.000359652 -0.000121138)
(0.107635 4.11894e-05 -0.000152672)
(0.121484 -0.000121519 -7.5515e-05)
(0.118504 -0.000111179 -0.000375999)
(0.107636 0.000129941 -0.000511835)
(0.119712 -0.000293527 4.27828e-05)
(0.119732 -0.000584289 -0.000193539)
(0.120868 -0.000523356 -0.000181628)
(0.106951 -0.000380608 6.24771e-05)
(0.12602 -0.000291808 0.000208312)
(0.123592 -0.000277517 0.000104554)
(0.125505 -0.000394655 -0.000532006)
(0.126642 -0.000928303 -0.000426413)
(0.125108 -0.000808425 -0.000791737)
(0.126889 -0.000615156 -0.000914461)
(0.125905 -0.000613968 0.000608769)
(0.126392 -0.000799701 0.000215358)
(0.125714 -0.000403485 0.0003398)
(0.127108 -0.000696987 -0.000209579)
(0.125441 -0.00077753 -1.22707e-05)
(0.124737 -0.000453875 -0.000322848)
(0.12699 -0.000316086 -0.000519752)
(0.122363 7.16133e-05 -0.00034558)
(0.120208 0.00067576 -0.000505405)
(0.114074 -7.41826e-06 -0.000381955)
(0.124324 0.000417528 -0.000442068)
(0.124692 2.07395e-05 -0.000331686)
(0.121664 0.000274601 -0.000738251)
(0.120102 0.000151404 -0.000210996)
(0.122613 -0.000210605 0.000277184)
(0.122346 2.64911e-05 6.1897e-05)
(0.124803 3.14107e-05 -0.000269725)
(0.123536 -0.000198175 0.000144085)
(0.126314 -0.000131907 -0.000318906)
(0.124625 -0.000353945 -0.000594819)
(0.124901 -7.00585e-06 -0.000499774)
(0.126926 6.73877e-05 -0.000922648)
(0.127414 -0.000165364 -0.000446882)
(0.120315 -0.000391042 -0.000610022)
(0.117623 -1.16257e-05 -0.000296884)
(0.118543 -2.72502e-05 -0.00019153)
(0.105818 -3.62608e-05 -0.000391944)
(0.125304 0.000776852 0.0001428)
(0.124455 0.000674757 0.000251284)
(0.126166 0.000766716 0.000182086)
(0.125672 0.000574566 3.59284e-05)
(0.116959 -0.000561792 0.000183655)
(0.107228 -0.000197887 0.000488891)
(0.121213 -0.000230612 -0.000287726)
(0.121096 -0.000514175 -1.29397e-05)
(0.124808 -0.000300017 -0.000334667)
(0.124863 -0.000407912 -8.04898e-05)
(0.122102 0.000307414 9.88239e-05)
(0.122855 0.00013669 8.27654e-05)
(0.125025 -6.26677e-05 -0.000204755)
(0.119754 -0.000112707 -0.000707401)
(0.118204 -9.65312e-05 -0.000294537)
(0.119992 0.000133237 -6.42458e-05)
(0.106982 0.000370111 -0.000184396)
(0.125159 0.000122673 0.000499185)
(0.124606 -0.000257401 0.00013442)
(0.123304 -2.41288e-05 0.000456019)
(0.118183 -6.42577e-06 0.000379651)
(0.124687 -0.000248729 0.000207353)
(0.123159 9.24972e-05 0.000510127)
(0.124674 -6.85228e-05 -6.29848e-06)
(0.116938 0.000102049 0.000292347)
(0.117287 6.31897e-05 -0.000179041)
(0.117511 0.000552056 -0.000179385)
(0.107914 0.000234025 -0.000141458)
(0.123661 -0.000562737 -0.00056062)
(0.123311 -5.11369e-05 -0.00039489)
(0.123567 -0.000182469 -0.000217256)
(0.125818 0.000368519 4.57855e-05)
(0.124254 0.000450845 8.39801e-05)
(0.126606 0.000145379 -0.000212865)
(0.124982 0.000222796 -0.000283901)
(0.123399 -0.000249683 -0.000382692)
(0.120241 -0.000339019 -0.000512246)
(0.120261 -0.000322493 -0.000271173)
(0.10795 -0.000377263 -0.000171132)
(0.124542 -0.000178039 -0.000184231)
(0.124631 -5.42859e-05 6.46184e-05)
(0.1161 -7.23819e-05 -0.000303053)
(0.123203 0.000222381 0.00018703)
(0.123509 0.000467668 0.000363156)
(0.125163 0.0005241 0.000422714)
(0.123664 0.000521635 0.000493823)
(0.126894 -0.00019855 -0.000614613)
(0.127248 -0.000246539 -0.000506217)
(0.127103 -0.000388405 -0.000445959)
(0.126554 -0.000296497 -0.00036938)
(0.122727 0.000185909 -0.00111347)
(0.125261 4.74914e-05 -0.000940872)
(0.125979 -0.000422607 -0.000748174)
(0.122885 -0.000499604 2.6432e-05)
(0.124479 -0.00027476 4.23231e-05)
(0.122814 -0.00012352 0.000278761)
(0.117261 -2.80109e-05 -0.000243125)
(0.120073 -0.00100099 -0.000571966)
(0.12083 0.000326478 -0.000482718)
(0.107074 -8.32033e-05 -0.000463146)
(0.126766 0.000296999 7.66379e-05)
(0.127201 0.000247265 -0.000317236)
(0.126826 3.11246e-05 -8.55937e-05)
(0.127451 6.85158e-05 -0.000489437)
(0.125753 0.000273342 0.000174421)
(0.123337 0.000296937 0.000287583)
(0.124761 0.000109014 0.000326262)
(0.124828 0.000173856 -2.91986e-05)
(0.120454 0.000300453 -0.00125563)
(0.119768 0.000357804 -0.000602166)
(0.121634 0.000239982 -0.000876846)
(0.110626 -0.000565749 -0.000892488)
(0.123675 -0.000271166 -0.000667458)
(0.123774 -0.000287041 -0.000880441)
(0.126152 -0.000310462 -0.000457997)
(0.12572 -0.000259457 -0.000618521)
(0.125208 -0.000310708 -0.000191722)
(0.12327 -0.000466298 -0.00036864)
(0.123307 -4.09868e-05 -6.17754e-05)
(0.117629 2.51101e-05 -0.000635037)
(0.125469 0.000760173 0.000284391)
(0.124981 0.000816218 5.30975e-05)
(0.123974 0.000607664 -0.000107322)
(0.11788 7.68144e-05 -0.000649636)
(0.117276 0.000271156 -0.000376887)
(0.119309 0.000411908 -0.00061548)
(0.106301 0.000480112 -7.96507e-05)
(0.125814 -0.000617979 -0.000101353)
(0.125402 -0.000606133 0.000186058)
(0.12718 -0.000490467 8.32288e-05)
(0.120801 0.00109698 -0.000594574)
(0.124657 -2.01347e-05 -0.00043127)
(0.123987 0.000134979 -0.000434985)
(0.12279 -0.000354002 0.000553925)
(0.123307 -6.06846e-05 0.000296558)
(0.123769 -4.22317e-05 0.000410169)
(0.11617 -0.000184427 0.000380439)
(0.120053 -0.000268605 -0.000143874)
(0.1257 -8.12691e-05 0.000131788)
(0.123213 0.00017174 0.00013231)
(0.125639 0.000410351 -5.42886e-05)
(0.118212 0.000295476 -0.000380634)
(0.122708 -0.000180815 -0.000164714)
(0.12299 -0.000101892 -4.81698e-05)
(0.11469 -0.00021613 -0.0003597)
(0.115934 -0.000192844 0.000256462)
(0.115581 -0.000466784 0.000112165)
(0.107161 -0.000327118 0.000139483)
(0.127155 -0.000115271 0.000198472)
(0.124935 -0.000197453 -0.000126842)
(0.127042 -0.000424303 0.000182664)
(0.126071 -0.000613975 0.000233859)
(0.125663 -0.000508886 -0.000346103)
(0.125145 -3.47106e-05 -0.000199016)
(0.124924 -6.67494e-05 -0.000328283)
(0.116655 -0.000145063 2.88184e-06)
(0.122564 -0.000375287 -6.46844e-05)
(0.12488 -0.000395161 -9.42415e-05)
(0.125496 -0.000209141 -0.000158488)
(0.122518 -3.25953e-05 0.000167366)
(0.126939 -0.000314716 -0.000173104)
(0.124646 -0.000246771 -0.000325983)
(0.124836 -3.12212e-05 -9.72937e-07)
(0.126891 -0.000381517 -7.75979e-05)
(0.126942 -6.51358e-05 0.000203294)
(0.126469 -0.000314794 2.62279e-05)
(0.127317 -0.000272266 -0.000160147)
(0.124861 -0.000179748 -0.000270248)
(0.12454 -0.000300226 -0.000509147)
(0.126757 -0.000130565 -0.000630431)
(0.117595 0.00144004 -0.000985232)
(0.121357 7.36748e-05 -0.00142166)
(0.120022 0.000546676 -0.000900604)
(0.104528 -1.66927e-06 -0.000306166)
(0.125434 -0.000104641 -0.00027535)
(0.12537 -0.000218749 -0.000344386)
(0.126917 -0.000129185 -0.00057763)
(0.123657 -0.000328565 0.000204667)
(0.12559 -0.000255462 2.81796e-05)
(0.116615 -0.000115669 -0.000121128)
(0.120512 -0.000328014 -2.60374e-05)
(0.119916 -3.77713e-06 -1.30867e-06)
(0.123852 -0.000355294 0.000259628)
(0.123646 -0.000409548 -0.000184849)
(0.119278 -0.000402984 -0.00111678)
(0.119921 -0.00058683 -0.000224209)
(0.105985 -0.000377257 -0.000229986)
(0.120617 0.000620238 -0.000868138)
(0.122737 0.000410976 -0.00101387)
(0.115116 -0.000241615 -0.000493017)
(0.119306 -0.000648326 -9.83781e-05)
(0.123095 -0.000740842 -0.000189952)
(0.118867 -0.000488152 -0.000502292)
(0.12286 -0.000482399 -0.000268022)
(0.124342 0.000322109 0.000237234)
(0.124108 0.000734849 6.73631e-05)
(0.121872 0.00103675 0.000723234)
(0.117925 0.000489402 0.000498497)
(0.122147 0.000239606 -0.000317101)
(0.123168 -9.13779e-05 -0.000289412)
(0.125484 0.000201102 -0.000166551)
(0.125706 -0.000324758 -8.3471e-05)
(0.125199 -0.000288446 -2.06794e-05)
(0.116421 -0.000255144 9.3982e-07)
(0.122619 5.75932e-05 0.000449046)
(0.122035 0.000372416 0.000381435)
(0.123764 4.44252e-05 0.000359686)
(0.115972 2.80016e-05 -0.000100742)
(0.118887 -0.00115426 9.8746e-05)
(0.119344 -0.000531385 -8.87706e-05)
(0.118163 -0.00131363 -0.000486036)
(0.106416 -0.000923297 0.000131179)
(0.124498 6.45608e-05 -4.49037e-05)
(0.124947 7.51268e-05 0.000190706)
(0.122533 0.000669302 -0.000644004)
(0.125023 9.13775e-05 -0.000275501)
(0.124359 0.000151073 0.000319367)
(0.122941 -0.000149965 -0.000152782)
(0.122545 0.000378766 -0.000153617)
(0.120905 -0.000521436 -0.000414198)
(0.115642 -6.55872e-05 -0.000128881)
(0.117509 -3.23465e-05 -0.000215765)
(0.11964 -0.000400542 -0.000361986)
(0.118604 0.000171327 -0.00039247)
(0.10689 -4.61665e-05 8.82052e-05)
(0.120136 -3.79229e-05 -0.000314557)
(0.10624 -6.83313e-06 -0.000333135)
(0.125002 -0.000470326 -4.58539e-05)
(0.127188 -0.000251932 0.000263513)
(0.127279 -0.000325485 -0.000139253)
(0.108347 -2.82519e-05 0.000261847)
(0.118401 -0.000754748 -0.000744488)
(0.119783 -0.000579037 -0.000284369)
(0.11922 -0.00104824 -0.000729782)
(0.105623 -0.000416273 -0.00105524)
(0.118246 0.000637597 -0.000255406)
(0.122245 0.000360172 -0.000120136)
(0.117511 -0.000646345 0.000752439)
(0.116123 -0.000264409 0.000347112)
(0.118311 -3.31447e-05 0.000748315)
(0.106562 -0.000556458 0.000320103)
(0.125477 -0.00134666 0.000442186)
(0.122675 -0.00138845 0.00074757)
(0.123154 -0.00131037 0.000578703)
(0.125364 -0.00130938 0.000270961)
(0.121677 -0.000452177 -0.000693522)
(0.12034 -0.000368176 -0.000240558)
(0.119298 -0.000180014 -0.00026942)
(0.106084 0.000148674 -0.000322131)
(0.12438 0.00048549 -5.34135e-06)
(0.123176 0.00033013 -6.94675e-05)
(0.123892 -0.000340801 -3.20693e-06)
(0.118049 0.000250472 -0.000287988)
(0.120329 -0.000534234 -0.000463952)
(0.120271 -0.000540869 -0.000632624)
(0.12358 -0.000602365 -0.000593483)
(0.124459 3.83305e-06 -0.000786553)
(0.124239 8.97971e-05 -0.000814236)
(0.122914 -1.13608e-05 -0.000830117)
(0.115723 0.000365499 -0.000904255)
(0.119244 -7.92028e-05 6.75851e-05)
(0.117268 -0.000435236 7.3289e-05)
(0.118346 -0.0006236 0.00046411)
(0.106337 -0.00045115 -7.36386e-05)
(0.124453 0.000734756 0.00110334)
(0.120161 0.000455608 -0.000294642)
(0.119869 -0.000327809 -3.36703e-05)
(0.124123 -0.000861439 -0.000125222)
(0.119973 -0.000569187 -4.84131e-05)
(0.123898 -0.000800865 0.000213876)
(0.124472 0.000166818 0.000317781)
(0.124193 0.000155764 0.000276792)
(0.124402 0.000147709 0.000259666)
(0.124272 5.21664e-05 0.000186766)
(0.124483 -0.000335342 -9.96691e-05)
(0.117088 -0.000334952 4.80774e-05)
(0.123596 -0.000312633 -0.000430045)
(0.124149 6.7476e-05 -0.000623231)
(0.125672 0.000164049 -0.00036794)
(0.123028 -0.000194418 -0.000159584)
(0.123658 -0.000298962 0.0002814)
(0.125702 -0.000132009 9.87819e-05)
(0.12653 -0.000313241 5.86791e-05)
(0.124384 -8.99712e-05 -0.00060576)
(0.12427 -0.000101481 -0.00048616)
(0.126929 -5.65948e-05 -0.000613189)
(0.123303 0.0002753 -0.000509721)
(0.125379 0.000226731 -0.000369917)
(0.125819 -0.000304554 -0.000737492)
(0.121453 -0.000868842 -0.000231249)
(0.12667 -2.02396e-05 -0.00065945)
(0.124125 -0.000595791 0.000300548)
(0.125961 5.8959e-05 0.000501139)
(0.125802 -0.000152687 0.000217388)
(0.125976 -0.000403903 0.000238549)
(0.123733 6.92959e-05 0.000260266)
(0.1246 -0.000197014 0.000380403)
(0.115868 -5.08416e-05 0.000176066)
(0.118325 -0.00010716 -0.000616784)
(0.118384 -0.000376882 -0.000251703)
(0.119121 -0.000807868 -0.000413535)
(0.122811 -0.000734276 -0.000472504)
(0.123497 -0.000566117 -0.000483205)
(0.123962 -0.00041297 0.000317936)
(0.12369 -0.000336029 7.9656e-05)
(0.12643 -0.000268702 -0.000220326)
(0.126368 -0.000235522 0.000128695)
(0.125444 0.000129383 -0.000131312)
(0.123871 -0.000131868 -0.000322959)
(0.123373 0.000288271 4.2626e-05)
(0.125434 0.000454815 0.000164706)
(0.124939 0.000232115 -0.000447242)
(0.126646 -0.00015581 -0.000788521)
(0.125591 -2.11965e-05 -0.000313698)
(0.126508 -0.000297957 -0.000661331)
(0.125006 -0.000574283 -7.47131e-05)
(0.123761 -0.000444494 -3.737e-05)
(0.122376 -0.00113646 0.000203076)
(0.125505 -0.000852153 9.52013e-05)
(0.125079 -0.000136491 9.31346e-05)
(0.121024 -0.000156733 -0.000346941)
(0.125945 -0.000204222 4.74794e-05)
(0.120915 0.000110657 -0.000729496)
(0.126167 2.12923e-06 1.36717e-05)
(0.126985 -0.00019715 -0.000417446)
(0.125727 -2.69543e-05 -0.00022043)
(0.125018 -6.32683e-05 0.000380997)
(0.116081 -1.48187e-05 -6.35398e-05)
(0.117659 -0.000247802 -0.000422785)
(0.10782 -0.000108337 -0.000247199)
(0.118332 -0.000708123 -0.00103031)
(0.106212 -0.000296351 -0.000287774)
(0.126873 0.000209142 0.000766725)
(0.124492 0.000222893 0.000238697)
(0.122932 -0.000614824 -0.000483807)
(0.116032 -0.000380991 -0.000369815)
(0.124581 -0.000273172 -0.000811139)
(0.124247 -0.000254408 -0.000631975)
(0.122774 -0.000410504 -0.000292959)
(0.115525 -0.000399863 -0.000427522)
(0.126474 0.000283569 0.000766598)
(0.126514 0.000106477 0.00082702)
(0.126678 0.000184535 0.00068583)
(0.125572 0.000365523 0.000764667)
(0.124409 0.000599199 0.000360517)
(0.124611 0.000272389 0.000243516)
(0.126096 0.000331816 0.00029839)
(0.117336 -0.00025666 -0.000425932)
(0.119411 -8.57978e-05 -0.000213386)
(0.105785 -0.00036153 -0.000413177)
(0.120475 0.000203023 -0.000341542)
(0.118965 -0.000156376 -0.000240556)
(0.118288 0.000305978 -0.000316753)
(0.106895 -7.89705e-05 -0.000724817)
(0.126188 -0.000171228 0.000135367)
(0.124526 -0.000323554 -0.000396832)
(0.126178 -0.000487997 -8.65497e-05)
(0.123259 0.000114721 -0.000134565)
(0.124994 -1.09157e-05 -0.000278295)
(0.118758 -0.000373263 -0.000486031)
(0.119581 -0.000197202 -0.000614694)
(0.106647 -0.000415813 -0.000371331)
(0.120457 -0.000374923 -0.000123788)
(0.117889 -0.000104881 3.65751e-05)
(0.117401 3.82407e-05 0.000308141)
(0.107843 -0.000101904 0.000183488)
(0.12698 -0.000751986 0.000287074)
(0.124737 -0.00043455 0.00058859)
(0.124584 -0.000510506 0.000199399)
(0.126771 -0.000502517 5.0752e-06)
(0.119929 -8.87026e-05 -0.00137264)
(0.119621 -2.08514e-05 -0.000916469)
(0.123056 -0.000275758 -0.000886376)
(0.106877 -0.000336003 -0.00121666)
(0.122879 6.77709e-05 7.65243e-05)
(0.123316 -0.000380739 0.000128958)
(0.123932 -0.000196583 6.17002e-05)
(0.116568 -0.000526072 0.000106095)
(0.120408 -0.000855553 -0.000468604)
(0.124265 -0.000492453 -0.000665647)
(0.124058 -0.000233764 -0.000884459)
(0.124684 -5.75713e-05 -8.38509e-05)
(0.126595 -0.000119854 0.000139693)
(0.125551 0.000154646 0.000427388)
(0.121356 0.000129893 -0.00124968)
(0.118549 0.000395955 -0.000918197)
(0.120687 0.000828729 -0.000908744)
(0.105145 -0.000461699 -0.000921371)
(0.128019 -7.79602e-05 6.55233e-05)
(0.127618 -0.000300375 -3.87024e-05)
(0.126014 5.10404e-05 -8.35353e-05)
(0.127721 2.83216e-05 -3.74979e-05)
(0.125834 -0.000261103 -0.000465177)
(0.122678 -0.000225588 -0.000321111)
(0.122001 -0.000149572 -0.000775617)
(0.125453 -0.000358541 -0.000217141)
(0.121273 -0.00103866 -0.000385961)
(0.121654 -0.000974963 -7.09122e-05)
(0.106687 -0.000287487 -0.000584646)
(0.120023 -0.000671151 0.000981377)
(0.11875 -0.000293323 0.00104435)
(0.120759 -0.000534692 0.000765157)
(0.105232 0.000145815 0.000206319)
(0.123801 -0.000341064 7.47791e-05)
(0.118084 -0.000292427 9.9676e-05)
(0.120721 -0.000286998 -0.000697044)
(0.127675 -0.000220295 -0.000208435)
(0.125811 -0.000194595 -0.000353344)
(0.118413 0.000323919 0.000184634)
(0.117363 0.000196818 0.000253184)
(0.119518 -0.000102501 -0.000262375)
(0.105508 -0.00014629 0.000148119)
(0.121042 -0.000118439 -0.000763883)
(0.12083 0.000489203 -0.000492572)
(0.106817 -0.000393472 -0.000869459)
(0.117973 -0.000205966 0.000350842)
(0.120771 -0.000135855 0.000311004)
(0.118344 -0.000608768 0.00015405)
(0.107542 -0.000358637 0.000111015)
(0.117955 -0.00101217 -0.000485817)
(0.121553 -0.00055768 0.000233292)
(0.119159 -0.000932783 -0.000261559)
(0.105005 -0.000465157 -0.000406002)
(0.121139 0.000761499 -0.000627078)
(0.122751 0.000427935 -0.000116041)
(0.123184 0.000288858 -0.000460591)
(0.115484 0.000581197 -0.000396878)
(0.119226 0.000270133 0.000270929)
(0.118293 0.000252922 0.000414181)
(0.107528 -4.98302e-05 0.000334824)
(0.126418 -0.000465632 -4.81047e-05)
(0.125917 -0.000294635 0.000116054)
(0.126863 -0.000460478 -4.52422e-05)
(0.126489 -0.000389514 0.000134442)
(0.124426 -0.000368266 0.000232901)
(0.124681 -0.000281056 -3.18821e-06)
(0.126916 -0.000342628 0.00031966)
(0.127186 -0.000359316 0.000248017)
(0.116766 0.000159337 -0.00120605)
(0.116858 0.000129117 -0.000515503)
(0.119205 0.000245146 -0.000921744)
(0.108465 -0.000260471 -0.00061195)
(0.120116 -0.000505758 0.000568452)
(0.119921 -0.00152702 -0.000277318)
(0.120473 -0.000844048 0.000187418)
(0.111698 -0.000701427 -0.000119242)
(0.121736 0.000992159 7.47442e-07)
(0.123919 0.000651367 -0.000295345)
(0.123947 0.000611223 -0.000557907)
(0.117169 0.000241959 -0.00056314)
(0.120263 0.000133754 0.000134243)
(0.117395 -1.43308e-05 -3.79617e-05)
(0.11671 -0.000172799 -0.000243367)
(0.107331 0.000243088 -9.73541e-05)
(0.124849 -7.20368e-05 0.000498464)
(0.117385 4.099e-05 -4.51528e-05)
(0.125205 -0.00056193 -0.000388482)
(0.126474 -0.000181971 -0.000340237)
(0.125319 -0.000199296 -0.000234325)
(0.125321 -0.000214103 -0.000327876)
(0.123094 0.000420001 0.000112925)
(0.121777 0.000290575 0.000231219)
(0.117019 0.000407271 0.000317111)
(0.126002 0.000264548 -0.000124045)
(0.124834 0.00033303 0.000350272)
(0.125536 0.000279897 0.000169241)
(0.125619 0.00041541 0.000304324)
(0.125212 -0.000177401 -7.14176e-05)
(0.125219 -0.000518432 -0.000167898)
(0.116489 -0.000286807 -0.000139913)
(0.123242 -0.000359353 -0.000113865)
(0.121785 -0.000483029 0.000142037)
(0.123185 -0.000504024 0.000248602)
(0.114404 -0.00025161 -0.000204089)
(0.123216 -3.87803e-05 2.3162e-05)
(0.12362 0.000220582 0.000138293)
(0.116005 0.000172213 0.000308081)
(0.119353 -0.000460857 0.000681052)
(0.123561 -0.000518832 0.000378075)
(0.123874 -0.000738636 0.00066537)
(0.121084 -6.40533e-05 0.000287347)
(0.12273 -0.000319364 -7.88068e-05)
(0.123007 -0.000366837 0.000124085)
(0.115976 -0.000216177 0.000209788)
(0.119659 0.000296153 -0.000199484)
(0.116771 0.000147911 -0.00056277)
(0.10614 0.000830292 -0.000548715)
(0.125283 -0.000360958 -3.22223e-05)
(0.126846 -0.000417947 -6.82622e-05)
(0.127504 0.00019694 -0.000171512)
(0.123687 0.000164341 0.000501354)
(0.124521 7.23862e-05 0.000673213)
(0.116523 -0.000256343 0.000881094)
(0.12557 0.000226605 4.71468e-05)
(0.126244 -0.000148181 6.34182e-05)
(0.126075 0.000181022 -0.000114502)
(0.126341 0.000195172 -8.86363e-05)
(0.120014 -0.000109365 -5.54749e-05)
(0.120842 -0.00015523 0.000239294)
(0.12012 -0.00038589 5.32645e-05)
(0.106057 0.000100956 0.000168283)
(0.117471 5.34524e-05 0.000437007)
(0.117261 -0.000176397 0.000468132)
(0.118816 -5.62634e-05 0.000680815)
(0.106273 -0.000233477 0.000409414)
(0.125144 -0.000272856 -0.000219506)
(0.125969 -7.96989e-05 0.000265404)
(0.126874 -0.000435365 1.69039e-05)
(0.126505 -6.74743e-05 0.000218997)
(0.124963 -0.000365398 -0.000356797)
(0.126226 0.000117953 -0.000495218)
(0.124501 0.000243663 -0.000341423)
(0.121907 -0.000270693 0.000698575)
(0.124221 -0.000322204 0.00012288)
(0.12386 -0.000168803 0.000200182)
(0.122497 -0.000223727 0.000812603)
(0.122175 -8.79441e-05 0.000184907)
(0.124184 -0.000419391 0.000104644)
(0.116448 -0.000129146 0.000327274)
(0.124656 -0.000437084 -0.000717841)
(0.124824 -0.000139942 -0.00065735)
(0.122348 -0.000227862 -0.000356301)
(0.115972 0.000103907 -0.000656443)
(0.124631 -0.000251125 -0.000859935)
(0.120541 -0.000319951 -0.000799583)
(0.124493 -1.75416e-05 -0.000732533)
(0.120259 0.000429732 0.000298154)
(0.124308 0.000589387 0.000451561)
(0.121395 0.000300056 0.000664756)
(0.124785 0.000405789 0.000232837)
(0.126147 0.00034816 -0.000557932)
(0.12296 0.00046513 -0.000540617)
(0.123668 3.80823e-05 -0.000793985)
(0.120469 -4.9462e-05 -5.58037e-05)
(0.106872 -0.000206444 -0.00036487)
(0.119537 -4.26443e-05 -8.07053e-05)
(0.123188 -0.000300351 -8.72e-05)
(0.126794 0.000136918 0.00022373)
(0.126547 -0.000218423 0.000137115)
(0.126227 1.25732e-06 0.000447022)
(0.126612 -0.000157633 0.000519715)
(0.125246 -0.000485099 0.000260924)
(0.125415 -0.000581925 0.000169186)
(0.125086 -0.000388965 0.0001833)
(0.125326 -0.000462629 4.35631e-05)
(0.125825 -0.000239925 0.000297279)
(0.125342 -0.000539694 0.000238476)
(0.123687 -0.00031654 0.000627748)
(0.121247 -0.00138365 -0.000222678)
(0.124138 -0.00149711 -0.000537918)
(0.123046 -0.00101524 -0.000713948)
(0.121215 -7.17471e-05 -0.000278274)
(0.120843 0.000380436 -0.000472863)
(0.115963 0.000130444 0.000343346)
(0.124996 9.50423e-07 -0.000429194)
(0.117249 -0.000270674 -0.000321433)
(0.121273 0.000548955 -0.000569754)
(0.121508 0.000655237 -0.000816047)
(0.122887 0.000195769 -0.000627198)
(0.1154 -0.000137801 -0.000563736)
(0.126556 0.000241516 -0.00046944)
(0.124927 0.000359532 -0.000514604)
(0.125494 0.000182725 -0.000733561)
(0.106912 0.000121148 -0.000195344)
(0.122824 0.000130708 -0.000314501)
(0.116829 -0.000136088 -0.000196439)
(0.120522 0.000148935 -8.03725e-06)
(0.123695 6.00642e-05 0.000324491)
(0.120088 0.00012002 -0.000161578)
(0.12398 0.000447368 8.07368e-05)
(0.124489 9.26188e-05 -0.000135046)
(0.123905 9.8727e-05 -0.000344872)
(0.122491 0.000119075 3.5754e-05)
(0.118109 0.000369781 -9.26381e-05)
(0.126786 -0.000182017 -0.000422931)
(0.124937 -0.000261372 -0.000594112)
(0.126285 -0.000352996 -0.000562864)
(0.124759 -0.000494047 -0.000370661)
(0.124387 -0.000693058 -0.000467447)
(0.126603 -0.000566043 -0.000260849)
(0.12563 -0.000574135 -0.000109142)
(0.126237 8.75089e-05 -0.000410473)
(0.126509 -0.000160308 -0.000264571)
(0.118912 -0.00073336 -0.000426954)
(0.120079 -0.000917447 -0.00043815)
(0.10585 1.90469e-05 -0.000406738)
(0.122765 -0.000961635 0.000289349)
(0.123018 -0.000255669 0.000142653)
(0.126582 -0.000402787 -0.000173607)
(0.123777 -0.000201139 -0.000274434)
(0.126839 -0.000402809 -0.000295716)
(0.125917 -0.000106643 0.000311589)
(0.125707 2.31382e-05 -5.35681e-05)
(0.12498 0.000280692 0.000303192)
(0.121179 -0.000350661 -0.000528821)
(0.125487 -0.000413383 -0.000639445)
(0.11484 4.17281e-05 7.50925e-05)
(0.117248 -0.000412625 0.000682581)
(0.116761 -0.000632025 0.00020334)
(0.103957 -0.000660289 0.000296715)
(0.124794 -0.000227649 -0.000188827)
(0.123256 -0.000405584 0.000366859)
(0.117337 -0.000322776 0.00116758)
(0.117663 -0.00123645 -0.000329821)
(0.107836 -0.000750032 -0.000176333)
(0.122847 0.000313857 -0.000110035)
(0.123187 0.000439237 0.0003099)
(0.103162 0.000127961 -0.0002435)
(0.123981 -0.000187485 0.00032176)
(0.126836 -0.000348493 0.000212821)
(0.118544 -0.00049325 0.000463868)
(0.12159 0.000339738 0.000435723)
(0.122494 -0.00049492 0.000196513)
(0.119202 0.000549252 -0.000208536)
(0.119383 0.000231397 -0.000217278)
(0.119897 0.00049506 -0.000606257)
(0.105825 9.69333e-06 -7.23871e-05)
(0.123932 -8.67996e-06 9.14202e-05)
(0.123198 6.66077e-05 7.72117e-05)
(0.122687 3.12601e-05 0.000176115)
(0.125281 0.000876966 -0.000339909)
(0.126246 0.000953002 -0.000299909)
(0.123112 0.000203093 -0.00023892)
(0.124034 0.000173941 -0.000420667)
(0.126335 -0.000851512 -0.000123345)
(0.12567 -7.63516e-05 0.000306164)
(0.120277 -0.00058464 -3.45648e-06)
(0.120056 -0.000338477 -9.51303e-05)
(0.105072 -0.000385408 0.000183513)
(0.118711 -0.00099308 0.000390118)
(0.117169 -0.0006615 0.000822066)
(0.107285 -0.000631566 0.000305553)
(0.125497 -0.000548215 0.000433008)
(0.123599 -3.53609e-05 0.000671959)
(0.124747 -0.000396546 0.000742127)
(0.123213 -0.000188271 0.000124531)
(0.126105 3.03762e-05 -0.000630171)
(0.126872 -9.68075e-05 -0.000583909)
(0.124499 5.22406e-05 -0.000377998)
(0.119254 0.000513628 0.000145631)
(0.120254 3.36181e-05 8.27559e-05)
(0.104722 0.000268418 -0.000569995)
(0.126196 -0.000518792 0.000135908)
(0.126123 -0.000524516 0.000433593)
(0.12609 -0.000278661 0.0003024)
(0.122521 -0.000168395 -0.000175951)
(0.120023 -2.77206e-05 -0.000512258)
(0.10761 -0.000158781 -0.000348619)
(0.117579 -0.000287698 0.000270641)
(0.117596 -0.000578005 7.72642e-05)
(0.107818 -0.000354234 -3.96555e-05)
(0.122348 0.000279962 -0.000500415)
(0.121907 0.000266865 -0.00035031)
(0.123684 0.000348808 -0.000206896)
(0.116433 -0.000237904 -0.0003919)
(0.123314 -0.000424695 -0.000315844)
(0.125255 -0.000626137 0.000126624)
(0.122989 -0.000299645 0.000538811)
(0.124761 -0.000460056 0.000125876)
(0.121 -0.00125705 0.000108876)
(0.122781 -0.000896783 -8.70138e-05)
(0.123119 -0.000680403 -0.000175387)
(0.114946 -0.00085597 -0.000320294)
(0.117756 -0.000391908 0.000627719)
(0.122157 3.58018e-06 0.000601742)