/*--------------------------------*- C++ -*----------------------------------*\
| =========                 |                                                 |
| \\      /  F ield         | OpenFOAM: The Open Source CFD Toolbox           |
|  \\    /   O peration     | Version:  2212                                  |
|   \\  /    A nd           | Website:  www.openfoam.com                      |
|    \\/     M anipulation  |                                                 |
\*---------------------------------------------------------------------------*/
FoamFile
{
    version     2.0;
    format      ascii;
    arch        "LSB;label=32;scalar=64";
    class       volScalarField;
    location    "0.004";
    object      epsilon;
}
// * * * * * * * * * * * * * * * * * * * * * * * * * * * * * * * * * * * * * //

dimensions      [0 2 -3 0 0 0 0];

internalField   nonuniform List<scalar> 
31639
(
27.7715
27.2801
27.1072
26.8532
27.9851
27.5198
28.1925
27.6011
27.6174
27.0467
27.0798
27.2606
26.9133
26.8911
27.1434
28.298
27.6361
27.5294
27.9634
27.1957
28.1163
27.6177
26.6242
28.0043
27.6104
27.5488
26.9054
27.4128
28.0159
26.6793
27.0329
27.6389
27.0699
27.6422
27.5379
26.8403
27.3914
26.8778
26.9411
27.111
27.3581
27.6154
27.0462
27.4484
27.1117
26.9416
27.5875
27.7431
27.7744
26.9253
27.1888
27.1046
26.9821
27.6616
27.7176
27.7133
27.6548
27.1754
27.2627
26.9476
27.8971
27.44
27.4812
27.4114
27.6805
27.0051
27.7273
26.9774
28.0405
26.9547
26.7774
27.5202
27.1421
26.9429
26.9687
27.6835
26.8358
27.5793
27.4566
27.6244
27.8092
27.2903
26.828
27.2648
27.244
27.0732
26.9448
26.9323
27.383
26.696
27.1361
27.6207
27.58
26.9783
27.8397
27.5685
27.8165
27.3337
26.9561
27.7723
26.7205
27.1533
27.133
27.4299
27.8266
26.8856
26.8062
27.3793
28.0412
27.8133
27.1262
27.9105
27.3367
27.9383
27.1763
27.3508
28.093
27.918
26.9612
27.2228
27.5998
27.1201
27.2484
27.6891
27.826
26.9856
27.2579
27.7437
28.1187
27.1148
26.9138
26.994
26.9831
28.2584
27.7528
27.2987
26.931
27.7524
27.1911
27.2526
27.3265
27.1847
27.0754
27.4142
27.6488
26.7428
27.1975
27.686
27.3698
26.9109
27.278
27.3945
27.68
27.5861
27.6851
26.9013
27.7239
27.7182
27.5836
27.6734
26.942
27.6925
27.6555
27.3298
27.8063
27.3987
27.4667
26.8725
27.1269
26.8797
28.077
27.4018
27.1803
26.9216
26.834
27.156
27.0675
26.9888
27.2083
27.1229
27.2831
27.5539
27.3308
27.7761
27.8622
26.8279
27.1278
26.8535
27.7315
27.5405
27.2597
27.3222
27.5536
27.1989
27.1741
27.9642
27.909
27.0877
26.9725
27.7542
27.0137
27.0288
27.0563
27.2071
27.4379
27.0046
27.3286
27.0715
27.0714
27.3198
27.2959
28.0788
26.9997
27.4706
27.7755
27.0726
27.711
28.2058
27.2608
27.2619
27.2821
28.1869
27.4794
27.4604
27.1298
28.2713
27.024
27.8539
27.8242
27.6647
27.8401
26.8853
27.8829
27.3122
27.4706
27.6382
27.4807
27.0767
27.3667
27.0359
26.9859
27.6393
27.3517
28.088
27.5166
27.4129
27.4201
27.1785
27.9741
27.4199
27.413
27.6459
27.7073
26.8752
27.1665
28.0515
27.9378
27.0808
27.3157
27.7811
26.7739
26.9306
27.4903
26.939
27.5963
28.004
27.6969
28.2516
27.0351
27.2546
27.9322
27.7558
27.8189
27.3202
27.0139
27.1527
27.8929
27.6629
27.6499
27.0481
27.8745
26.9503
26.915
27.9612
27.7947
27.8183
27.2398
27.6239
26.9805
27.5746
27.0819
27.3591
27.7362
27.5317
26.9379
27.8582
27.5313
27.4686
27.8723
28.0684
27.4824
27.7752
27.2951
27.3424
27.5204
27.8307
26.9833
27.065
27.2873
27.1374
26.763
26.978
27.6969
27.7479
27.2164
27.6874
28.0881
26.9734
27.0156
27.4339
26.8016
26.8371
27.2849
26.6263
27.5432
27.4903
27.0329
27.1183
27.101
27.0276
27.4656
27.7008
27.1495
27.4251
26.9603
27.0846
26.9311
27.3262
27.7233
26.9665
27.3553
27.395
27.8503
27.8673
27.4497
27.8077
27.5028
27.4727
27.2448
27.506
26.6512
27.7369
27.3905
27.0366
27.3508
27.5568
27.3333
27.4056
27.0072
26.8797
27.5432
27.6798
26.9982
27.3668
27.207
27.1987
27.4706
27.5815
27.0983
27.6575
26.8846
27.6615
27.3738
27.5112
27.788
27.7117
26.997
27.0305
27.1061
27.8661
27.181
27.5974
27.4163
27.8505
26.9859
27.0898
26.8951
26.9986
28.289
27.634
27.3615
26.9916
27.3553
27.6979
27.5374
27.5389
27.2064
27.4982
27.7003
27.8015
27.4763
27.361
27.9597
27.3648
27.1811
27.8134
27.1516
27.1569
27.3938
27.2559
27.2409
27.7998
27.01
27.7716
27.4282
27.0586
27.5133
27.3987
27.1376
27.3274
26.8465
27.5164
28.0868
27.6898
26.9408
27.1772
27.8334
27.0322
27.9539
27.0987
26.9986
27.2518
27.169
27.7757
27.0573
27.1205
27.7439
26.855
27.3644
27.0557
27.3416
27.1335
27.0887
27.6544
27.0579
27.5845
27.3354
27.506
27.0814
27.1473
27.7137
27.2356
27.3282
28.017
27.2518
27.4178
28.216
27.8258
27.5684
27.4995
27.0112
27.3352
28.2224
27.1736
27.7289
26.8456
27.375
27.5239
27.3348
27.0267
26.7332
27.1736
27.6182
28.23
27.5685
27.1193
26.8982
27.4435
27.1289
27.3622
27.6303
27.5963
27.8127
27.5239
27.9039
27.4636
27.7898
27.8925
27.0102
27.0513
26.965
27.0157
28.1756
27.0773
26.9654
27.9331
27.7533
27.2736
27.071
27.0937
27.7014
27.1821
26.9043
27.5496
27.6839
26.8673
27.2398
27.3851
27.7566
27.3003
27.1062
26.9752
27.3348
26.3622
27.2454
27.2198
27.093
27.8512
27.8323
27.8981
27.5191
27.6297
26.9587
27.686
27.5803
27.2769
27.6866
27.1328
27.19
27.5166
28.3015
27.5792
27.5444
27.1775
27.7147
27.4233
26.887
26.935
27.5388
27.4097
26.9825
27.1558
27.3634
27.0745
27.3321
27.3007
27.0591
27.8401
27.3461
27.1943
27.9371
27.3453
27.4389
27.6854
27.0111
27.3447
27.4016
27.6246
27.2885
27.0281
27.7949
27.0991
27.1038
27.5917
26.9933
26.9049
27.6376
27.1083
27.505
28.1596
28.0488
27.0717
28.1218
27.7516
27.0271
26.9779
27.5017
27.0202
27.5939
27.8837
27.3329
27.905
27.9527
28.2435
27.7397
26.7788
27.0575
27.3222
26.9738
27.2691
28.0275
27.3308
26.896
26.5044
27.7767
27.2443
27.6538
26.6475
27.637
27.2393
26.9704
27.6018
26.9961
27.7454
27.8957
27.7709
26.9372
28.0308
27.7743
27.2673
27.435
27.6021
27.4413
26.9087
27.2995
27.1429
27.4518
27.6593
27.9027
27.2972
26.9683
27.4869
27.0233
27.1775
27.1649
27.3306
27.7337
26.8944
27.6026
27.3397
27.8316
28.0602
26.5851
27.038
27.7206
27.0373
27.65
27.5768
27.0265
27.6843
27.0023
27.8884
27.0968
27.6264
27.5699
27.4485
26.8812
26.8951
27.1526
27.1183
28.1269
26.9518
26.9775
26.9579
27.579
27.1946
27.748
26.6493
27.466
27.2107
27.6922
27.5682
28.2509
27.0097
27.7051
26.8226
27.1045
27.734
27.0911
27.0118
27.0375
27.9907
27.3843
27.8847
27.4664
27.3437
27.402
27.0808
27.8696
27.2517
26.628
27.5697
28.2646
27.617
27.8893
27.5234
27.0515
26.8553
26.8697
27.9089
27.2711
27.8731
27.7058
27.6982
26.4903
27.0046
27.3053
28.0119
27.2021
27.223
26.9761
26.959
27.2697
27.0485
27.1314
26.8924
26.9038
26.9298
27.3362
27.0663
27.6223
27.1592
26.9916
27.6623
27.1557
27.5473
27.2253
27.7051
26.8389
27.1622
27.5414
27.7561
27.8369
26.9198
27.5821
27.8365
27.5115
27.1103
26.9271
27.0511
27.7365
27.1537
27.3388
26.8682
27.4908
27.5617
27.2832
28.352
27.5068
27.2321
27.1853
27.5026
27.6621
27.3029
27.7629
27.9662
28.1941
27.6418
27.2876
27.014
27.6159
26.5704
27.4746
27.362
27.251
27.3401
28.0335
27.3626
27.0469
27.4866
26.5824
27.4519
27.2154
27.4994
28.2349
27.1165
27.2397
26.95
26.8667
27.4058
26.945
27.4898
27.5295
27.2603
27.3214
27.9321
27.9136
26.9992
28.2009
27.889
26.9388
27.2394
27.156
27.3213
27.0926
26.9207
27.032
27.6921
27.0335
27.038
27.9882
26.9946
27.1952
27.3545
27.3052
27.2089
26.8383
27.0104
27.0951
27.3685
28.0685
27.3433
27.2827
27.2043
27.2258
27.1462
26.8591
26.9719
27.4276
26.8704
27.1956
27.4366
27.5645
27.0401
27.7105
27.9013
27.5743
28.0141
26.8744
27.2404
28.0673
27.371
28.0937
26.9439
27.0586
27.6714
27.0221
27.683
27.3126
27.6267
27.1477
27.2494
27.8468
27.9133
26.8953
27.5837
27.4624
27.4559
27.4893
27.8539
26.9708
28.0595
26.7695
27.9499
27.2336
27.9979
27.0117
27.4299
27.0735
27.6826
27.0297
27.1192
27.5156
27.1568
27.593
28.0579
26.913
27.046
27.5362
27.0365
26.8575
27.4281
28.0198
27.1491
27.2827
27.6715
26.9896
28.1116
27.5392
26.8753
27.1015
27.9288
27.9295
27.3255
27.7127
27.1636
27.5075
27.1543
27.3927
27.0889
27.9293
27.0545
27.7183
27.4941
27.6078
27.0274
27.7009
27.5728
27.0278
27.1026
27.173
27.6389
27.1078
27.0175
27.7918
27.0433
27.4401
27.2361
27.7013
27.1416
27.1093
26.9532
27.5224
27.8213
27.7243
27.5975
27.3146
27.4051
27.0717
27.4144
27.5255
27.5379
27.1239
27.1363
27.5515
27.1847
27.8079
27.5186
27.5267
27.7866
27.6379
27.6419
27.744
27.1066
27.3739
26.941
27.7339
27.1401
26.9537
27.8296
27.6903
27.3949
27.3156
27.7939
27.2113
27.2693
27.1555
26.955
26.6883
27.9212
27.5166
27.4328
27.1051
27.6383
27.2064
27.7456
27.295
26.9092
27.4927
27.164
27.5839
27.6115
26.9177
27.3922
27.508
27.8168
27.5725
27.8206
26.9137
26.881
27.9186
27.1485
27.0581
26.818
28.0355
27.5155
28.3595
27.1602
27.5286
27.2512
27.8221
27.1258
27.8067
26.9833
27.1668
26.9565
27.6464
26.9655
26.9584
27.1674
27.8831
27.8954
27.2469
27.7065
27.2651
26.9002
26.9467
26.8952
27.0638
27.5905
27.7471
27.0795
28.2543
27.3983
27.2643
27.0562
27.1703
27.0143
28.0405
26.9359
27.3562
27.5789
26.7989
28.0193
26.8194
27.4787
26.901
27.2486
27.1658
26.8124
27.6759
27.335
27.6487
27.0099
26.9106
27.3659
27.3299
26.5857
27.5081
27.3683
27.2447
27.1474
27.1884
27.5329
27.8031
26.3845
27.6474
27.4078
27.3203
27.3858
27.1847
27.5637
26.9138
26.9853
27.3858
27.1658
27.575
27.1649
26.7542
27.3801
27.8412
26.871
27.5109
28.0547
26.9708
27.3202
26.9215
27.5016
27.7438
27.0344
26.7168
26.6965
26.9332
27.2869
28.038
26.6463
27.7723
27.7891
27.5306
27.1429
26.519
27.3148
27.0284
27.6272
27.293
27.7733
27.2902
27.5272
27.2727
27.7608
27.4584
27.9671
26.7822
27.8141
27.1944
27.8369
27.6849
27.1132
26.8263
27.0285
27.5798
27.698
27.1956
27.7919
27.4611
27.8328
27.3357
27.5264
27.8809
27.9863
27.7587
26.9883
27.3156
27.3672
27.6641
26.9109
27.9625
27.8319
27.7607
27.4247
27.5668
27.2249
27.0691
26.6884
27.4465
27.0608
26.9701
28.2512
27.89
27.6239
27.2268
26.8013
26.7858
26.9926
26.9756
27.4306
27.8616
26.4178
27.383
27.3892
27.3696
27.6314
28.2452
27.5621
27.8615
28.2817
27.0755
27.2766
28.0306
27.3285
26.9531
27.8141
27.7661
27.7383
27.3927
27.2533
27.1216
26.9619
27.1317
26.8553
27.7298
27.9228
27.5241
26.7964
28.1057
27.101
27.6758
27.259
27.9918
26.9816
27.1344
28.0819
28.1974
27.4578
27.0906
27.0461
27.5467
27.4378
27.3425
27.1748
27.2551
27.1001
26.9949
26.6553
26.8949
27.7438
27.7486
28.0083
27.6432
27.5782
26.9379
27.5527
27.2133
27.5676
26.9864
27.8987
27.7338
27.042
27.3161
27.9447
27.7791
26.6756
27.9812
27.1421
27.9773
26.4972
26.9742
27.2849
28.3858
27.1672
27.3894
27.8471
27.7092
26.8606
27.9346
26.8272
27.5782
28.1015
27.289
26.9478
27.1728
27.0083
26.7595
26.9394
27.9223
27.6079
27.6356
27.0877
27.6158
27.7316
27.453
27.9097
27.0522
27.0763
27.3907
27.1769
27.2815
27.4868
27.5873
27.3479
27.626
28.2791
27.4831
28.1447
27.5093
27.2492
27.1988
27.267
27.8806
27.0504
26.9172
26.9228
27.0368
27.2349
27.2738
27.5939
27.5067
27.7711
27.2773
27.748
27.0205
27.7539
27.6751
28.3312
27.1066
27.4508
27.2704
27.0253
27.5876
26.9526
28.058
28.1823
27.5265
27.3577
26.5848
26.9488
26.9303
27.0248
27.565
27.5695
27.0744
26.8661
27.2589
27.0124
28.2843
27.1167
26.8027
27.182
27.4334
28.3391
27.2272
27.3305
27.8858
27.5831
27.717
27.0591
26.9914
27.5114
27.32
27.6868
27.4357
26.9351
27.2865
27.6609
26.9718
27.2313
27.1718
27.7207
27.6937
27.7396
27.8753
27.1996
26.8571
27.1738
26.874
27.3013
27.0502
27.4386
27.1333
27.2038
26.9765
27.6959
27.679
27.6119
27.3234
27.0674
27.4205
27.7543
27.1672
27.0953
27.0551
27.4729
26.9996
26.7928
27.7458
27.036
27.0004
27.0696
27.9509
27.732
26.9179
27.8579
28.2634
28.3509
27.5178
26.9735
27.6054
27.5305
27.04
27.8018
27.0513
26.9556
27.0046
27.768
27.3753
27.2743
26.9176
27.7134
27.8442
27.6953
27.8164
26.9015
27.5575
27.5679
27.7098
27.0466
27.9983
27.2406
26.945
27.5809
27.88
26.7451
26.9748
27.3397
26.8669
27.477
28.0276
27.2234
28.1266
26.9969
27.6061
27.6947
27.0717
27.2961
27.6941
26.9239
27.0466
27.7943
27.3737
27.4654
27.5404
27.3021
27.7887
27.6992
27.0343
27.8071
27.1359
27.2605
27.2642
26.833
27.5854
27.6078
27.1657
27.2316
27.7882
27.0235
27.2851
27.1858
27.8279
27.6436
26.7957
26.8525
27.0388
27.9065
26.9672
27.3892
26.8897
27.3445
27.5364
27.6528
26.8472
27.1665
27.0179
27.7776
27.2108
27.3067
28.1331
27.6889
27.2685
26.8838
26.8137
26.885
27.8403
27.0108
27.6867
27.2469
27.4819
27.8842
27.7917
28.067
26.9731
27.8647
27.8301
27.075
26.8868
28.1517
27.0471
28.2711
27.8399
27.2112
27.8428
27.7043
27.6203
27.1231
27.0214
27.7477
27.4107
27.0044
27.3525
26.9749
27.3444
27.7907
27.4994
27.23
26.9985
27.2666
28.1534
27.3206
27.6279
26.9913
27.436
27.6902
28.0237
27.4722
27.4415
27.7735
27.0499
27.7675
27.5303
27.7775
26.9919
27.6653
28.0384
27.1463
27.714
27.2072
27.0568
27.362
27.4788
26.9027
26.9944
27.4353
26.8394
27.5178
27.3017
27.1455
27.6149
27.5696
26.8866
27.4506
27.1295
26.9927
27.7099
27.1636
27.2969
27.3598
26.8369
27.55
26.9512
27.7153
27.9209
27.5714
27.5714
27.329
27.6323
27.3994
26.9953
26.9827
27.5775
28.0031
26.9998
27.8903
27.2835
27.0155
26.9768
27.6995
27.5528
27.0998
26.3977
26.8354
27.1577
27.6521
27.2191
27.5778
27.2165
26.7865
27.4849
26.8679
27.1036
27.7257
26.9602
27.6513
27.3543
27.1715
27.7583
27.0816
27.061
26.9112
27.1895
27.5405
27.5857
27.3071
27.4657
28.2959
27.2505
27.0876
27.0384
27.0156
27.8268
27.531
27.1452
27.2771
27.2615
27.7889
27.4923
27.8085
27.7875
26.8837
27.6705
27.468
27.2283
27.282
28.0298
27.0531
27.5247
27.1132
27.8596
27.7055
27.2107
27.6269
27.1931
26.9208
27.7162
27.4696
27.4981
27.4309
27.439
27.7172
27.1933
26.8811
27.7781
27.5702
27.4653
27.1398
26.885
27.0989
27.7108
27.0571
27.5618
27.7257
27.4742
27.6655
27.2796
28.0014
27.5759
27.727
26.9157
27.5077
27.5833
27.6866
27.6096
27.264
27.3906
27.6204
27.1242
27.5242
28.05
28.2121
27.5422
28.4309
27.8759
27.9417
27.3732
27.2826
27.592
27.3817
26.9338
26.9507
27.9669
27.2253
27.8373
26.8881
27.3859
27.0817
28.1402
27.6338
27.2664
27.1224
26.9445
27.7144
27.8475
27.7069
26.9325
27.2277
26.9978
27.9192
27.0884
27.3741
27.6921
27.5084
27.6286
27.6184
27.4732
28.0763
27.2414
26.8666
27.3767
26.8859
27.0163
26.8825
27.5935
27.3901
27.1318
27.1254
27.0763
27.7201
27.0843
27.3207
27.2552
27.3744
28.1066
28.0407
27.417
27.8412
27.1223
27.0103
27.9276
26.9399
26.9869
27.5833
26.96
27.2555
27.2209
27.1637
27.0622
27.654
27.0791
27.1005
27.7884
27.7351
27.7999
27.0303
26.836
27.7634
27.8542
26.8922
27.4296
27.0666
26.5373
26.9945
27.7864
27.4036
26.9511
27.0189
27.1714
27.7631
27.0783
27.4203
28.0685
27.3065
27.8679
26.823
27.1428
26.9871
27.6994
27.505
26.9665
27.1585
27.1806
27.0161
26.8372
27.6351
27.8024
27.5854
28.1862
27.1208
26.9814
26.9453
26.9909
28.0863
26.9291
28.1988
27.0194
28.1514
27.4935
27.7129
27.3279
27.5761
27.0553
27.5943
27.0632
26.9951
27.8169
27.3043
26.7153
27.333
26.72
27.3038
27.2284
27.2963
27.006
27.0131
27.98
27.2175
27.8798
27.9745
27.3883
27.3141
27.776
26.7757
27.2852
27.4857
27.6154
27.4099
27.8163
27.2526
27.1159
27.5262
27.9392
27.7678
27.5666
27.9933
27.0058
27.7385
27.7428
27.967
26.9802
26.8989
26.9087
27.0589
27.2546
27.0282
27.4803
27.1452
28.3953
27.5831
26.8549
26.6771
27.5027
27.2139
27.3178
26.9782
26.9103
28.1927
26.9334
26.9869
27.3138
27.4476
27.5704
27.9736
27.9537
27.3349
27.4779
27.4044
27.5339
27.2701
27.6649
27.3658
27.2556
27.4164
27.6327
27.6867
27.3797
27.015
27.8022
28.3012
27.2649
27.3021
26.9362
27.7919
27.7243
26.8622
27.5274
27.8056
26.9509
27.4771
26.9627
27.0941
27.1061
26.8539
26.9436
27.033
27.5006
26.9481
26.9531
27.6517
26.9947
27.3873
27.6483
27.1138
28.3199
27.1988
27.0408
26.9077
27.2116
27.0066
27.2754
27.4926
27.4976
27.5016
27.4637
27.6553
27.9988
26.9834
27.322
26.8855
27.3336
26.9913
27.2059
26.8906
26.9038
26.9499
26.9639
27.6928
27.1963
27.0463
27.5093
27.0578
27.1972
27.3886
27.7467
27.1664
27.2463
26.8873
27.9686
27.1074
26.899
28.1461
27.149
27.3697
27.1348
27.3141
27.1707
26.7772
27.1473
27.5152
27.7362
26.7928
27.2166
27.1094
27.5034
27.4235
27.8799
27.0049
27.9905
27.6747
28.2658
27.4455
27.6895
27.7667
28.3971
27.8729
27.379
27.2115
27.0222
28.0703
27.3443
27.0141
27.2749
26.9051
28.1152
27.0505
27.7157
27.1734
26.7926
26.9239
28.3275
27.6778
27.4066
27.6778
27.3985
27.6693
27.6865
27.3936
27.2566
27.0598
27.625
27.9452
26.9949
27.4049
26.8406
27.8992
27.53
26.9716
27.3626
27.3562
27.0546
27.4234
26.9459
27.4561
27.5953
26.9165
27.1931
27.6351
27.7837
27.4068
27.7559
27.6443
27.1345
27.3745
26.6853
27.6986
27.7509
27.0284
27.6557
27.0735
26.7785
27.1678
27.3158
27.8641
26.9313
27.3416
27.1616
26.8981
27.0272
27.7481
27.3631
27.6373
27.9026
27.4167
27.3521
27.049
26.9384
27.1254
28.2519
27.0386
27.2434
27.0344
27.7715
27.6119
26.6174
27.2419
27.2005
26.9698
27.0078
27.5083
27.083
26.9005
27.5244
26.7815
27.0683
27.4467
27.0188
27.23
27.2193
26.8931
27.8195
27.2564
27.2804
27.3213
27.8453
27.7379
26.9308
27.5849
26.694
27.0464
28.3726
26.7782
27.5218
27.0507
27.061
27.0678
27.6156
27.8635
27.2019
28.1257
27.7747
26.8979
27.7174
26.9366
26.6463
27.246
28.1607
27.1721
27.1961
27.5037
26.9432
27.77
27.3033
26.8131
27.4474
27.0107
27.031
26.9628
27.9217
27.4459
27.5791
27.8151
26.4662
27.5371
27.2497
27.1211
27.6545
27.8085
26.9454
27.8536
27.7651
27.7862
27.7764
27.9816
26.6915
27.7112
26.717
27.7122
27.0054
27.4894
28.074
27.0025
27.1649
27.7065
27.3903
27.4372
27.0548
27.1717
27.3687
27.4727
26.9159
27.3567
27.1338
27.1623
27.877
27.0256
27.7433
27.6777
27.6063
26.9562
27.3805
27.5278
26.8077
27.2043
27.6238
27.1839
27.6525
27.3398
27.7242
27.063
27.7316
27.1012
27.1533
27.1722
26.9566
27.5935
27.5352
27.6116
27.9509
26.992
27.781
27.1285
27.0309
27.8727
27.9925
27.1831
27.1358
27.0151
26.6659
27.7909
28.3681
28.3437
27.6239
27.973
26.9465
28.0118
26.9425
27.417
27.0143
28.0015
27.4065
27.1383
27.0298
26.9788
27.3711
27.1922
27.0081
27.594
27.2366
27.2108
28.0789
27.4462
27.5356
27.2286
26.9652
27.7456
27.6015
27.7129
27.0953
27.5762
27.2549
27.6205
26.9262
27.3622
27.8605
27.5873
27.5647
27.7361
26.7753
27.6265
26.871
27.3164
27.2047
27.6115
27.8132
26.9095
27.0498
27.6956
27.0571
27.1228
27.2819
27.1169
27.7252
26.9319
25.9563
27.0217
27.545
27.0735
26.9323
26.9399
27.9744
27.7058
26.8801
27.6778
27.3995
28.1383
27.3062
27.2953
27.8202
27.5029
27.1966
27.4676
27.7576
27.0912
27.3933
28.0904
27.0354
27.4712
27.8956
27.6771
27.5015
27.1309
27.5879
27.0817
27.9659
27.363
27.0158
27.637
26.383
28.2791
26.957
27.5172
27.3494
27.5704
26.9774
26.8876
27.0497
26.99
27.9783
26.862
26.8065
27.7223
26.8706
27.3996
27.7969
27.3777
27.6161
27.5171
28.3033
27.1232
27.4654
28.1839
27.6856
26.9568
27.7391
27.7763
27.2147
27.1673
27.1577
27.4762
27.2371
27.2076
27.7303
27.6625
27.1974
27.7099
27.6853
27.2779
27.7189
27.3968
27.518
27.1216
27.8477
27.7637
27.6904
26.9109
27.2977
27.3263
27.0153
27.1
27.5414
26.9992
26.9108
27.6357
27.3382
27.3783
28.0622
27.0117
28.1562
28.0457
27.0679
26.9638
27.6781
27.6464
27.2145
27.7977
27.277
28.0738
27.0059
27.5689
27.0987
27.9761
27.8088
26.7879
27.6787
27.1944
27.4408
27.3104
26.7702
27.5533
27.6803
28.1221
27.119
27.445
27.6053
27.2786
26.9871
27.498
26.7092
27.5898
27.1317
27.7984
27.3303
27.2368
27.4171
27.9006
27.8957
26.9655
26.9872
27.6435
27.0621
27.5312
26.9573
27.0163
27.7254
27.1469
27.6912
27.4423
27.5742
28.2647
27.1585
27.0873
27.3999
27.1284
26.6004
27.3776
27.1603
27.1302
27.021
26.7924
26.4769
27.2989
27.6864
27.1292
27.6608
27.6615
27.2483
27.1331
26.8938
27.5981
27.4279
27.9935
26.9589
27.0906
27.6728
27.9641
27.1698
26.9759
27.3641
28.2628
27.0768
27.0297
27.3389
26.8976
27.6315
27.464
27.0648
27.0056
27.4539
27.13
27.0371
27.0828
27.7884
27.0247
28.1952
27.3947
27.6946
27.5746
27.3709
27.7955
27.4973
28.141
27.0245
27.5553
27.5798
27.5025
26.9714
27.1644
27.6422
27.9309
27.0089
26.8782
27.8854
27.7598
26.9486
26.9401
27.3126
27.0007
27.0074
27.4003
27.2962
28.0543
27.5375
27.5769
26.6765
27.8295
27.7753
26.9306
27.7432
28.3311
27.6519
27.7232
27.6929
27.1814
27.3878
27.5575
27.6828
28.0458
26.9807
26.9774
27.8509
27.8328
27.5028
27.2427
26.8535
27.3074
27.4477
27.5595
27.9051
28.4336
27.5771
27.3398
27.0745
27.6694
27.322
27.7061
28.375
28.1775
27.3236
27.1156
27.4167
24.5951
27.8568
27.8344
27.0532
27.0575
27.721
27.2022
27.0136
27.8059
27.0547
26.9812
28.0456
28.2686
27.0068
27.3907
28.1434
27.3973
27.2313
27.1026
27.7091
27.1152
27.3555
27.2538
27.1235
27.2127
26.9089
27.1389
26.834
27.0774
27.4132
27.3075
28.2799
27.3274
27.3652
27.7953
27.6346
26.63
27.1422
28.144
27.3311
27.8944
27.1478
27.6147
27.8256
27.5217
27.9753
27.411
27.7451
27.3605
27.0791
28.0051
27.2158
28.0035
26.9849
27.2729
26.7718
27.798
27.2881
26.7229
27.3302
27.1743
27.4316
27.2581
27.3064
27.4105
27.188
27.4967
27.5593
27.2433
27.0556
27.63
23.5905
27.3092
26.9972
25.2782
28.1671
26.9583
27.423
26.9836
27.4209
27.5617
27.6587
26.8512
27.479
26.9534
28.0417
26.9655
27.3278
27.3623
26.973
24.5466
27.9924
27.6752
27.0052
26.9765
27.9585
27.0131
27.1931
27.1903
26.9973
27.0823
27.3688
27.1182
27.3293
26.9326
27.3763
27.5387
26.9877
27.4637
27.0454
27.9061
26.9693
27.2311
27.4694
27.5925
27.6298
27.1312
27.3765
27.0456
27.1293
27.0684
27.0986
27.3607
27.6002
27.9748
27.9093
27.4052
27.5
27.3836
27.4572
26.6125
27.5403
27.5613
26.9834
27.5905
27.8241
27.6009
26.9746
27.5891
25.7599
27.0224
27.5913
27.3114
27.0079
26.9967
27.0625
27.6246
27.3121
26.949
26.9919
27.29
27.0057
27.7648
26.8469
27.3354
27.1814
27.1526
27.4463
27.2526
27.1398
27.8208
27.7026
27.4144
27.1735
27.5915
28.0783
27.034
27.182
27.5572
27.8652
27.3585
26.9631
27.4416
27.0658
27.1057
26.9551
26.8582
27.5133
27.0887
27.5337
27.2869
27.0933
27.9923
27.1577
26.7514
27.1664
27.39
27.7515
26.8995
27.2182
27.7756
27.6755
27.1302
27.0095
26.8269
26.8334
27.2135
27.1978
27.1189
27.3208
27.4311
27.019
27.0076
27.5552
26.9027
28.1944
27.4798
27.7904
27.2496
27.2226
27.2686
27.304
27.0588
27.575
26.9928
27.1576
27.6809
27.2201
26.7327
27.6737
27.1025
27.3602
27.4551
27.2761
27.1875
27.2092
28.1885
27.4677
27.3511
27.3113
28.2214
27.6766
27.1624
27.9123
27.1322
27.0345
27.0123
27.6879
27.7081
27.396
27.7338
27.5106
26.8715
26.9706
27.0306
27.5435
27.6993
27.3158
27.4611
27.9154
26.8641
27.8483
26.9256
28.2878
27.418
27.4425
26.8126
26.8524
27.376
27.7195
27.1291
27.6366
27.3018
26.3987
27.4299
27.0199
27.8666
27.1894
27.2872
27.4103
27.298
27.6642
28.2945
27.354
26.6999
27.0833
27.1419
27.0408
27.108
27.7197
27.2607
27.1598
27.7683
26.6926
26.9211
27.0952
27.7232
27.3624
26.8912
27.6675
27.7109
27.2637
27.0838
26.9567
27.5781
26.8964
27.0054
27.6775
27.8152
27.5121
27.958
27.2056
27.2551
27.1332
27.3771
27.5602
27.3956
27.833
27.5112
27.1118
27.6078
27.4582
27.9257
27.2354
27.7187
26.945
27.5642
26.9982
27.4126
27.7217
27.8235
24.366
26.9929
27.4102
27.5953
27.5564
26.9327
27.2638
27.7672
27.1184
28.0353
27.8808
27.8796
27.2516
27.5075
27.7956
27.6861
27.745
27.0569
26.9484
26.981
27.5922
27.0169
27.3171
27.0799
27.3523
27.7015
27.8543
27.636
28.1329
27.2428
27.8208
27.123
27.5562
24.9445
27.9923
27.1263
26.9191
27.1599
24.539
27.4524
26.8353
27.068
26.936
27.3422
27.7875
26.8911
27.5034
26.8216
27.8455
27.953
27.4139
26.8727
27.2592
27.1522
26.9183
27.4965
27.0476
26.7094
26.9033
27.7947
27.071
27.2336
27.6374
27.9397
27.0391
27.1769
26.9929
26.8791
27.9672
26.9307
27.823
26.8621
27.1042
26.9636
27.0068
27.0077
27.8376
27.5374
27.5424
26.6999
27.6223
27.3476
27.0252
27.8863
27.7761
27.2354
27.7205
27.114
28.0833
27.6179
26.9004
27.0835
27.2638
27.0595
27.4421
27.3371
26.9057
27.5002
27.7105
27.0138
27.1007
27.7958
26.9587
28.2605
27.238
27.3231
27.0701
27.084
25.5331
26.9657
27.2577
27.0994
27.6105
27.3671
27.7903
26.9505
27.0135
27.6975
26.9428
27.595
26.9949
27.7572
27.0733
27.8725
26.9422
27.8468
27.3045
27.3354
26.974
26.9103
26.9116
27.042
27.3178
26.8876
26.7139
27.0216
26.939
27.1603
27.7657
27.1926
26.973
27.4941
27.1554
27.6021
27.6095
27.2986
27.4157
27.2796
27.4622
27.6849
27.6628
27.2639
27.0083
27.1596
27.7294
27.2932
27.1106
27.3559
26.8264
27.5816
27.9079
27.6377
27.4705
26.9211
27.1285
26.9419
27.0082
27.4152
27.418
27.2377
27.3942
26.7436
26.8498
27.332
27.5963
27.049
27.391
27.0175
27.2792
27.4415
27.0073
27.4588
28.1211
27.0615
27.2492
27.3175
28.0575
26.8977
26.7069
26.5971
27.3721
27.7461
27.3326
27.0472
27.4804
27.1262
28.3147
27.7808
27.9585
27.1258
27.7973
27.5604
26.3561
27.6377
27.9103
27.3717
27.8936
27.6684
27.9535
27.7486
26.6525
27.2613
26.9104
27.1766
27.4376
27.4511
27.2492
27.7837
26.9574
27.6115
27.2231
27.0034
26.9103
27.8033
27.7267
27.3668
26.9757
27.3088
27.3023
27.7011
26.9813
26.6861
26.9991
27.0969
27.1196
26.9096
26.4453
27.6542
26.9905
27.8818
27.7437
27.1246
27.2658
27.4073
26.6853
27.0503
27.7314
26.9213
27.007
27.0572
27.3458
27.3571
26.9613
27.6039
26.8957
26.9071
26.8592
26.9594
26.9984
27.2252
26.9293
27.3496
27.6213
26.5833
27.1401
26.9141
27.3791
26.7108
27.3391
27.1749
27.4203
27.1097
27.1523
27.2537
27.392
27.3025
27.2648
27.3956
26.9517
26.9397
27.5415
24.3446
27.2023
27.1676
27.3012
27.43
27.1879
27.133
27.9677
27.1585
27.2927
26.9457
27.519
27.531
26.8682
27.491
27.3116
26.8873
27.7951
26.5566
27.3186
26.8847
27.1651
26.2152
27.2438
28.0721
27.554
27.2108
27.2384
26.9422
27.6125
27.6238
27.2602
27.272
27.484
26.9292
27.1051
27.8017
28.1723
26.9093
27.1807
27.7314
27.5356
27.9178
27.6988
27.4002
27.224
27.2513
27.1343
27.3882
27.2253
27.3483
27.1789
27.0723
27.0129
26.9038
27.9331
27.521
27.6185
27.671
26.9913
27.1357
26.9864
26.9556
27.7456
26.9469
27.3353
26.7067
27.3915
26.9836
27.0639
26.9488
27.5824
27.8995
26.9985
27.425
27.8016
27.9445
27.1164
27.6922
28.2063
27.5048
27.0572
26.6425
26.6232
26.0896
28.127
26.8248
28.088
27.1945
26.8823
26.9474
27.3958
27.7388
27.7493
27.4973
27.0272
26.7586
26.6834
27.4097
27.0489
26.7893
26.7535
27.5609
27.624
27.265
27.6609
27.7745
27.8023
27.4082
27.1835
27.7504
27.1567
27.0483
27.49
27.2546
27.3994
27.9555
27.9215
26.9965
26.9708
27.5233
27.2311
26.7267
27.6007
26.0353
27.1424
27.127
27.7007
27.4266
27.6227
27.4983
27.0286
27.3674
27.0681
27.1133
27.0995
27.112
27.8711
27.0355
27.6633
27.5022
27.3294
26.0288
27.8477
27.6183
27.3076
26.9062
26.7828
27.7255
27.2411
26.9792
26.795
27.5838
26.8969
27.4164
26.7832
27.5258
27.2394
25.2444
27.5101
27.1461
27.4097
26.8957
27.0076
27.223
27.3027
26.8448
27.5775
26.6475
26.4341
27.2201
27.4771
27.2294
26.8128
28.0245
27.6154
27.0519
26.4135
27.5883
27.5157
27.8667
26.8332
26.9266
24.3676
27.1857
27.822
27.2484
26.8721
25.9035
27.4702
27.8261
26.7837
26.913
27.4764
27.6045
27.0329
27.2236
27.4671
27.192
27.113
27.0619
27.3944
27.7352
27.6871
27.7019
26.954
27.3609
27.5566
27.2021
27.0275
27.2143
27.2545
27.2725
25.934
27.0066
26.9737
27.4237
24.3536
27.2518
27.666
26.9241
26.2958
27.6662
27.0999
27.2552
27.019
26.612
27.1521
27.1629
26.981
27.3904
27.1407
27.3296
27.0383
27.7339
27.5181
26.981
26.9745
27.9627
27.4063
27.9916
26.8398
27.1148
27.5446
26.9246
27.1525
27.1963
27.1669
27.3049
27.1785
27.8612
26.6719
26.9339
26.9744
27.123
26.8893
27.4101
26.1284
27.146
27.5837
26.8878
26.9113
27.6867
27.0357
27.1888
27.4803
27.2796
27.3406
26.9238
27.0455
27.1109
27.0655
27.5166
27.4656
26.5637
27.6809
26.8848
27.5023
26.9059
26.6313
26.92
27.0873
26.7607
27.8572
26.4806
25.958
27.4289
28
27.3329
27.7651
27.5417
27.2654
27.5688
26.6554
27.686
24.8914
27.082
27.1523
27.6715
27.1678
27.671
27.5376
27.5636
27.2695
25.1787
27.259
27.3893
27.1145
27.0123
27.3591
27.683
26.3926
27.2453
27.4302
27.1086
27.1173
27.1903
27.4994
27.3098
27.0259
26.1179
27.0678
27.4493
26.7986
27.8989
27.0439
27.0798
27.3253
26.9609
27.2405
27.1469
28.0423
28.1901
27.0136
26.9938
27.7631
27.4617
27.601
27.6194
27.2304
27.3458
26.9248
24.1226
27.3363
27.0225
27.3902
27.1499
28.1467
26.9614
27.5167
27.188
27.5011
26.9666
27.4523
27.7198
27.6144
27.4869
27.406
27.0562
27.6241
27.1993
26.7011
27.2406
27.1183
27.0996
27.4121
27.2489
27.0255
26.1632
27.1041
27.4118
26.3203
27.2414
27.1266
27.5541
27.6065
27.101
27.7264
26.9364
25.633
26.9564
27.2427
26.5572
27.0204
26.1038
27.6098
27.0089
25.7631
26.9101
26.8887
27.3516
26.4975
27.5472
27.3995
27.31
27.6215
27.6296
27.1034
27.637
27.1382
27.6532
27.6504
27.3147
27.2186
27.2022
27.2818
26.9235
27.3962
26.9755
27.5153
27.028
27.0763
27.2742
27.6053
27.3472
27.0869
27.213
27.2012
27.302
27.3104
27.5333
27.3004
26.6236
27.0625
27.0308
26.7672
26.8698
26.9097
27.0499
27.8234
27.5783
27.0061
27.2516
27.8635
27.3959
27.0846
27.1576
27.0599
27.069
27.2716
27.2414
27.3683
26.1695
27.0697
27.4193
27.332
27.4924
27.2259
27.3215
24.8788
27.2166
27.0481
26.945
27.029
27.1795
27.241
27.0218
27.1333
24.8598
27.3104
27.226
27.2552
27.5133
27.0686
25.9623
27.3371
27.3777
27.5168
27.0039
27.4772
27.5902
27.1148
26.9944
26.8568
27.558
27.1361
27.2232
26.5235
27.4188
27.014
27.3085
26.9146
27.0992
27.246
26.8612
27.4261
27.6657
27.4061
27.6
26.8064
26.5263
26.8979
27.5136
27.2582
26.8897
26.9027
26.6693
27.4406
27.4705
27.2021
27.1396
26.9315
27.4384
26.9463
27.525
27.2512
27.1544
26.4927
26.4508
27.2605
27.7991
27.0686
27.3599
27.1865
27.2217
27.7063
27.4094
27.2929
27.1973
26.9576
27.2483
27.6757
26.5742
27.1696
26.9325
27.5943
27.0307
27.6005
27.3123
27.6986
27.9824
27.6158
26.9377
27.4039
27.1493
26.7627
24.2296
27.6496
27.5057
27.3388
27.21
27.2393
26.6828
27.561
27.1593
26.9931
27.1399
27.2146
27.4174
27.0332
27.0554
27.7825
27.1934
27.5167
25.6952
27.156
27.6187
27.2512
26.5366
28.1322
25.9484
27.7009
28.0071
27.7392
27.1042
27.1652
27.9936
27.2269
27.0596
27.7199
27.1406
27.2864
26.5961
26.9659
27.289
27.414
26.8817
26.1911
27.5603
27.5079
26.8676
27.0057
27.1458
26.5174
27.0094
27.6266
26.9975
27.5591
26.9524
27.1981
27.5988
26.7507
27.3703
27.4003
27.4653
27.1178
27.2678
27.1754
27.0723
27.5031
27.5289
27.3492
27.6991
27.1528
27.385
27.4857
27.0578
27.0911
27.0334
27.2208
27.0482
27.2849
27.4435
27.4938
27.6435
27.5137
27.5647
27.3414
25.2178
27.1914
26.9733
26.5694
27.0279
26.8741
27.11
27.35
27.0167
26.5697
27.343
26.1332
27.2118
27.1067
27.3557
27.517
26.8422
26.9938
27.4089
27.2143
25.893
27.4638
27.1057
25.5334
26.9482
26.0386
25.4014
25.1707
27.1959
26.7011
27.1671
24.1887
27.1834
27.2237
26.9429
26.8537
27.532
27.137
27.0742
27.1229
26.9961
27.1365
25.4609
27.4813
27.3433
26.9498
27.8014
27.5264
27.2848
26.9859
24.1715
27.6482
27.1723
26.9583
27.2459
27.4895
27.3765
27.0534
25.6018
27.8995
26.6136
27.3051
27.2671
27.2499
26.9755
27.2833
25.9728