/*--------------------------------*- C++ -*----------------------------------*\
| =========                 |                                                 |
| \\      /  F ield         | OpenFOAM: The Open Source CFD Toolbox           |
|  \\    /   O peration     | Version:  2212                                  |
|   \\  /    A nd           | Website:  www.openfoam.com                      |
|    \\/     M anipulation  |                                                 |
\*---------------------------------------------------------------------------*/
FoamFile
{
    version     2.0;
    format      ascii;
    arch        "LSB;label=32;scalar=64";
    class       volScalarField;
    location    "0.004";
    object      k;
}
// * * * * * * * * * * * * * * * * * * * * * * * * * * * * * * * * * * * * * //

dimensions      [0 2 -2 0 0 0 0];

internalField   nonuniform List<scalar> 
31639
(
0.167571
0.169987
0.173825
0.178206
0.160851
0.167795
0.158162
0.167998
0.166204
0.177415
0.176171
0.175503
0.172252
0.177431
0.168197
0.154379
0.165297
0.156027
0.151405
0.171589
0.143591
0.168805
0.176941
0.15309
0.151487
0.164739
0.172098
0.151116
0.159085
0.175026
0.177232
0.156346
0.177418
0.152427
0.143357
0.175743
0.136297
0.177093
0.176832
0.133805
0.143282
0.143194
0.176668
0.172455
0.175646
0.177757
0.167049
0.155813
0.166554
0.177789
0.176236
0.132293
0.176886
0.140202
0.154578
0.165998
0.139854
0.17067
0.170954
0.136584
0.162864
0.167038
0.146848
0.169844
0.165795
0.176358
0.16298
0.171337
0.149362
0.177449
0.178156
0.161342
0.175063
0.170402
0.177416
0.143228
0.17722
0.157569
0.169697
0.17235
0.15225
0.135638
0.179475
0.173241
0.173249
0.177441
0.177398
0.178674
0.139471
0.179208
0.17351
0.157466
0.140893
0.168928
0.147379
0.167112
0.160328
0.171864
0.171686
0.143601
0.178441
0.176522
0.169048
0.137868
0.141841
0.177146
0.13743
0.134571
0.1494
0.141896
0.172795
0.143558
0.169392
0.154392
0.171705
0.137635
0.158639
0.157175
0.177258
0.169807
0.168745
0.174826
0.173662
0.164697
0.162657
0.175943
0.169525
0.151089
0.150005
0.176985
0.176636
0.173536
0.175064
0.158225
0.169816
0.173172
0.136986
0.140331
0.175729
0.171592
0.170011
0.175621
0.177102
0.137058
0.136924
0.177433
0.174668
0.142162
0.141327
0.176702
0.143142
0.171445
0.150599
0.169417
0.141582
0.177012
0.15779
0.146741
0.141866
0.151115
0.177075
0.143379
0.145734
0.139356
0.14336
0.166061
0.143263
0.176253
0.175717
0.134927
0.160875
0.167748
0.140645
0.172853
0.178215
0.173489
0.172715
0.177038
0.173263
0.172193
0.170438
0.155249
0.166978
0.136272
0.165509
0.177267
0.163939
0.175503
0.141735
0.139498
0.174725
0.168749
0.165814
0.170609
0.170244
0.153685
0.155086
0.175632
0.135758
0.156075
0.174551
0.177039
0.169995
0.171625
0.160002
0.16973
0.167492
0.170077
0.175679
0.134905
0.170042
0.156819
0.171474
0.170958
0.164842
0.176171
0.144203
0.156936
0.177162
0.175025
0.175649
0.16054
0.137374
0.173563
0.139027
0.163588
0.176684
0.152461
0.142639
0.167909
0.169037
0.177243
0.143314
0.139256
0.164429
0.163956
0.138159
0.173119
0.145792
0.135776
0.169825
0.163808
0.16774
0.154065
0.146747
0.16547
0.169376
0.16491
0.14169
0.16947
0.165948
0.143389
0.15328
0.176979
0.174783
0.1554
0.145663
0.17523
0.172807
0.155788
0.177638
0.177454
0.170039
0.176602
0.168386
0.162056
0.140531
0.1535
0.172693
0.167482
0.168432
0.152969
0.160231
0.171609
0.176877
0.17127
0.142404
0.154484
0.146513
0.17544
0.159545
0.177108
0.175763
0.154588
0.143282
0.149234
0.139694
0.139436
0.175382
0.144459
0.175179
0.167886
0.153391
0.146391
0.176347
0.155857
0.14753
0.169196
0.158787
0.149991
0.16867
0.143591
0.170714
0.169602
0.141751
0.158712
0.168406
0.132007
0.136533
0.175863
0.178284
0.17615
0.140997
0.14603
0.175116
0.146414
0.150823
0.177041
0.176877
0.167988
0.176513
0.177436
0.14124
0.179029
0.136056
0.13933
0.176354
0.173281
0.174885
0.175803
0.165613
0.146062
0.166783
0.169615
0.176268
0.176802
0.177465
0.168913
0.164765
0.172113
0.175317
0.16381
0.164402
0.158921
0.170319
0.156114
0.17153
0.165515
0.140921
0.169045
0.179971
0.153624
0.172757
0.173669
0.169476
0.141146
0.170331
0.168726
0.138096
0.177482
0.142124
0.158786
0.176885
0.135963
0.171284
0.169618
0.140632
0.160437
0.140684
0.155365
0.175742
0.165745
0.136968
0.16606
0.146015
0.166632
0.175067
0.176681
0.17912
0.145851
0.172479
0.141456
0.168545
0.137887
0.174888
0.176172
0.177506
0.176944
0.152415
0.171026
0.170754
0.173217
0.17012
0.143695
0.160085
0.16409
0.170324
0.167884
0.16432
0.166696
0.155989
0.141336
0.163213
0.171889
0.175289
0.136586
0.176384
0.174884
0.168907
0.172322
0.175114
0.157317
0.175606
0.145716
0.164903
0.175366
0.139163
0.161554
0.174149
0.142491
0.134645
0.141144
0.158728
0.142146
0.171577
0.171802
0.155627
0.175919
0.144349
0.176633
0.177806
0.170357
0.164237
0.158507
0.176959
0.170151
0.161913
0.176173
0.172693
0.138167
0.171074
0.175867
0.176979
0.167042
0.176844
0.166163
0.163709
0.171997
0.176128
0.174799
0.142662
0.170834
0.133835
0.15875
0.167959
0.140519
0.141279
0.158081
0.165801
0.171731
0.136998
0.165998
0.153764
0.169309
0.16776
0.143122
0.169412
0.138238
0.168134
0.176624
0.178436
0.173707
0.157219
0.143185
0.165811
0.170366
0.175958
0.138665
0.138875
0.168613
0.142602
0.14508
0.164962
0.13898
0.156302
0.142913
0.165831
0.143115
0.176658
0.175734
0.177252
0.174428
0.151917
0.177505
0.177329
0.164159
0.167641
0.172514
0.178641
0.175679
0.154318
0.17379
0.178722
0.169919
0.146415
0.177713
0.171359
0.133771
0.139408
0.171753
0.178467
0.176713
0.16589
0.175698
0.173297
0.175984
0.1723
0.156211
0.162438
0.145702
0.168923
0.16575
0.177118
0.146354
0.145521
0.142178
0.163266
0.168457
0.131592
0.167703
0.154708
0.163647
0.156318
0.17198
0.161229
0.14243
0.172256
0.173783
0.145325
0.166123
0.177045
0.172304
0.169189
0.152385
0.144285
0.170948
0.170829
0.144541
0.139647
0.171521
0.156193
0.165407
0.147224
0.157211
0.17742
0.169711
0.141204
0.148824
0.171644
0.1772
0.1421
0.132067
0.175267
0.138945
0.173738
0.175414
0.142492
0.171364
0.171263
0.162691
0.143281
0.178274
0.161701
0.144142
0.178487
0.172207
0.166458
0.170915
0.134214
0.149695
0.168074
0.15476
0.150713
0.163145
0.173366
0.178019
0.171933
0.169493
0.175104
0.162709
0.154229
0.173714
0.175721
0.180014
0.149811
0.17196
0.161524
0.178184
0.144786
0.135333
0.176068
0.147103
0.177048
0.167243
0.139959
0.155259
0.176994
0.160843
0.169467
0.137355
0.170938
0.161215
0.137906
0.177207
0.175389
0.149735
0.143014
0.144382
0.158844
0.17099
0.17107
0.169907
0.170172
0.175988
0.171621
0.170084
0.144604
0.175633
0.140507
0.170614
0.159666
0.157644
0.180586
0.168657
0.14808
0.134321
0.142166
0.157238
0.177203
0.145981
0.176358
0.158157
0.175923
0.141163
0.167388
0.173509
0.177172
0.176524
0.174608
0.173118
0.161568
0.178251
0.177096
0.178255
0.149295
0.172426
0.141552
0.178714
0.170276
0.169336
0.146242
0.166614
0.137371
0.173773
0.161149
0.175395
0.168372
0.16557
0.14122
0.17706
0.13542
0.137051
0.144034
0.149337
0.139197
0.170544
0.138436
0.170683
0.163391
0.134128
0.177118
0.143301
0.149967
0.167617
0.151803
0.170019
0.174458
0.177767
0.175373
0.152256
0.169727
0.154905
0.157583
0.135438
0.12685
0.176988
0.17
0.166585
0.176443
0.138925
0.17786
0.177392
0.174901
0.174692
0.174473
0.173464
0.177391
0.177328
0.170859
0.176467
0.16845
0.140166
0.176602
0.15551
0.174988
0.166183
0.170934
0.149768
0.176412
0.168047
0.169526
0.159362
0.145807
0.177653
0.161761
0.153588
0.141776
0.175535
0.132957
0.174573
0.168453
0.164436
0.172426
0.176729
0.172526
0.140402
0.168902
0.162265
0.172736
0.141716
0.173221
0.167662
0.165229
0.170918
0.1619
0.164675
0.158016
0.158025
0.134467
0.175387
0.163836
0.176939
0.147108
0.17058
0.17313
0.169302
0.152019
0.170592
0.175786
0.170036
0.132632
0.138355
0.168455
0.136001
0.143915
0.172961
0.173719
0.174679
0.131749
0.169496
0.175535
0.139787
0.135463
0.168949
0.142083
0.163874
0.148562
0.177213
0.15465
0.152231
0.175982
0.137025
0.167478
0.168042
0.175143
0.176663
0.175916
0.144549
0.174571
0.175675
0.157601
0.176488
0.174877
0.166895
0.174952
0.171138
0.177076
0.177516
0.176413
0.173848
0.158723
0.17108
0.170112
0.141119
0.166847
0.172748
0.176206
0.176258
0.167889
0.177705
0.175224
0.165076
0.16783
0.177551
0.169553
0.167671
0.142514
0.156307
0.178701
0.134694
0.161664
0.168754
0.157275
0.167047
0.176418
0.165992
0.17512
0.164565
0.16749
0.160426
0.175397
0.1713
0.157012
0.144255
0.176703
0.14436
0.167211
0.155633
0.167865
0.16152
0.178674
0.143402
0.178881
0.146948
0.172431
0.156857
0.16913
0.170276
0.174852
0.142241
0.174662
0.176487
0.172367
0.172725
0.167144
0.138648
0.178286
0.177053
0.17212
0.175278
0.177587
0.170821
0.161837
0.173022
0.139613
0.156979
0.176565
0.14283
0.147956
0.177931
0.177924
0.150269
0.154975
0.172811
0.15176
0.167397
0.143715
0.17242
0.172003
0.134322
0.163081
0.177372
0.168844
0.17262
0.167752
0.175756
0.145979
0.143969
0.179109
0.177676
0.169239
0.143411
0.166161
0.179066
0.14858
0.17705
0.170777
0.172801
0.164097
0.174116
0.172602
0.171259
0.168602
0.151422
0.138802
0.161745
0.172597
0.142469
0.175592
0.13732
0.167811
0.156255
0.139858
0.168392
0.150458
0.172297
0.162182
0.170086
0.141681
0.142663
0.155826
0.14231
0.167483
0.177374
0.169025
0.178248
0.159853
0.170076
0.17839
0.1565
0.162131
0.17007
0.169444
0.1669
0.143586
0.171434
0.17364
0.17795
0.179041
0.144218
0.137788
0.168442
0.177561
0.147647
0.167136
0.161818
0.169822
0.178421
0.155195
0.167482
0.166575
0.141966
0.177086
0.172384
0.140568
0.150342
0.169482
0.154979
0.176974
0.177014
0.164193
0.140969
0.178052
0.136272
0.168783
0.171915
0.155296
0.1761
0.139528
0.169902
0.165244
0.169051
0.140914
0.135909
0.174398
0.177982
0.155658
0.174584
0.173022
0.169906
0.14355
0.148662
0.174005
0.159009
0.170571
0.17758
0.176312
0.176908
0.175766
0.163311
0.162781
0.175814
0.14522
0.171449
0.174283
0.171887
0.172954
0.178762
0.161115
0.175281
0.169125
0.137033
0.178787
0.153321
0.177693
0.154893
0.177044
0.140747
0.173431
0.177258
0.167346
0.172771
0.141714
0.177115
0.178417
0.171956
0.137718
0.181359
0.158993
0.173389
0.174936
0.175332
0.175334
0.167879
0.158294
0.177856
0.144305
0.143245
0.141971
0.145271
0.173684
0.140375
0.177625
0.17777
0.173004
0.16794
0.159253
0.171952
0.178841
0.170643
0.16433
0.177823
0.170598
0.159382
0.175491
0.169596
0.169259
0.170906
0.155559
0.175361
0.179535
0.176622
0.176524
0.17444
0.154244
0.180786
0.164122
0.166878
0.170268
0.174153
0.180742
0.171889
0.175175
0.150689
0.169539
0.163974
0.143222
0.140931
0.169643
0.158249
0.174871
0.153763
0.131414
0.165398
0.175962
0.151803
0.154999
0.17152
0.177584
0.176284
0.167594
0.147481
0.170789
0.168114
0.155863
0.167388
0.170455
0.139655
0.156944
0.152963
0.166303
0.176613
0.169285
0.173971
0.170521
0.171909
0.165857
0.141255
0.143913
0.139235
0.172301
0.171582
0.177812
0.181027
0.168866
0.137829
0.173934
0.158635
0.165126
0.166814
0.17586
0.134936
0.178859
0.13833
0.171403
0.164446
0.16144
0.176954
0.168845
0.173095
0.142462
0.170422
0.164376
0.166984
0.148245
0.148651
0.174031
0.175425
0.163768
0.173719
0.178463
0.143381
0.157323
0.158134
0.145826
0.171996
0.17656
0.177473
0.17492
0.177054
0.144979
0.14565
0.142846
0.179987
0.14516
0.174339
0.162548
0.142081
0.157453
0.176279
0.176794
0.15229
0.156534
0.167718
0.171344
0.177367
0.16255
0.14145
0.172152
0.174912
0.174007
0.174221
0.176032
0.180424
0.176822
0.169048
0.145036
0.143253
0.169313
0.149198
0.176996
0.142064
0.172769
0.157663
0.176001
0.147641
0.166985
0.17692
0.172778
0.157044
0.145002
0.175626
0.158462
0.173379
0.162154
0.181724
0.177357
0.172821
0.144633
0.140349
0.169058
0.162852
0.154384
0.177213
0.143549
0.175719
0.170992
0.155627
0.174142
0.178266
0.175074
0.176867
0.17968
0.17324
0.163291
0.140239
0.149901
0.175461
0.144954
0.166548
0.168831
0.148611
0.169625
0.172544
0.169741
0.173563
0.176947
0.143601
0.170092
0.172141
0.143465
0.156468
0.169108
0.157416
0.168525
0.141897
0.139884
0.170295
0.154845
0.176937
0.178411
0.175387
0.166811
0.167833
0.170824
0.165768
0.172714
0.146509
0.171415
0.156863
0.176834
0.166784
0.157568
0.16101
0.176668
0.14321
0.171127
0.176269
0.168072
0.128182
0.160222
0.145628
0.166117
0.138006
0.179102
0.176525
0.176548
0.174201
0.144957
0.141312
0.176702
0.178693
0.174452
0.170186
0.163602
0.175708
0.17922
0.175533
0.140925
0.160548
0.172057
0.174761
0.159484
0.171124
0.139767
0.17599
0.175664
0.162988
0.172427
0.167258
0.171582
0.177724
0.174433
0.14677
0.170442
0.173497
0.169721
0.162937
0.166302
0.13993
0.144384
0.176457
0.176065
0.175855
0.176394
0.173698
0.173805
0.1638
0.171754
0.174408
0.177005
0.15741
0.157874
0.166677
0.17169
0.176797
0.138258
0.162612
0.134893
0.176676
0.136236
0.142442
0.169078
0.130803
0.159089
0.170255
0.177368
0.175204
0.151319
0.165507
0.17724
0.150136
0.14722
0.160315
0.150652
0.176629
0.172332
0.161902
0.139626
0.171093
0.17947
0.175972
0.139672
0.147667
0.169148
0.17657
0.174407
0.145011
0.143895
0.167413
0.160656
0.1782
0.169857
0.139214
0.166024
0.17535
0.144268
0.136123
0.176737
0.145866
0.148357
0.178832
0.173257
0.175025
0.179781
0.1695
0.158994
0.17716
0.15428
0.173478
0.151502
0.16874
0.172829
0.169605
0.141345
0.174924
0.174918
0.155975
0.17114
0.156923
0.147694
0.164099
0.163113
0.167597
0.177118
0.154243
0.175974
0.139569
0.174917
0.177725
0.141775
0.172583
0.172414
0.131842
0.143359
0.172227
0.169242
0.176392
0.152844
0.143538
0.176377
0.176953
0.176627
0.164861
0.175789
0.138705
0.17823
0.170988
0.142193
0.142675
0.130075
0.138761
0.178185
0.154933
0.17393
0.170671
0.148938
0.149228
0.133891
0.132586
0.179202
0.177766
0.147058
0.17573
0.167687
0.142541
0.168227
0.161146
0.147154
0.157797
0.176176
0.148035
0.139857
0.173932
0.179099
0.151193
0.175268
0.162116
0.148331
0.141478
0.161681
0.144949
0.142999
0.172862
0.172124
0.156836
0.170714
0.175304
0.168942
0.177335
0.135443
0.160788
0.141323
0.171242
0.175313
0.170126
0.154155
0.170978
0.144221
0.174295
0.169667
0.152249
0.146379
0.135822
0.136116
0.153756
0.138521
0.158491
0.141073
0.158646
0.173248
0.167036
0.158427
0.173269
0.168007
0.170805
0.173542
0.138842
0.16177
0.176173
0.177436
0.168937
0.177942
0.146099
0.173602
0.169837
0.141034
0.167273
0.177223
0.166451
0.175081
0.176447
0.164954
0.132081
0.133335
0.168802
0.177617
0.165148
0.175235
0.153873
0.157645
0.145846
0.139418
0.136576
0.140058
0.171362
0.173578
0.178097
0.164745
0.157128
0.176673
0.14046
0.171508
0.174528
0.177227
0.166281
0.166845
0.1768
0.179863
0.175359
0.153921
0.158881
0.175081
0.166408
0.172098
0.178896
0.173918
0.17808
0.170893
0.149495
0.170403
0.173464
0.169414
0.172641
0.14131
0.175681
0.176291
0.177492
0.176233
0.140202
0.136772
0.168601
0.169316
0.160774
0.172064
0.175452
0.174572
0.174614
0.155307
0.167948
0.169515
0.173504
0.140483
0.142743
0.16448
0.16914
0.144797
0.17793
0.144339
0.152467
0.171865
0.17268
0.157605
0.175801
0.169692
0.174461
0.166268
0.16918
0.171812
0.154203
0.134524
0.177128
0.136147
0.139066
0.154053
0.138973
0.137571
0.154757
0.172535
0.137112
0.155332
0.130344
0.14411
0.168329
0.177573
0.134382
0.142183
0.175562
0.138613
0.157969
0.170733
0.162843
0.171885
0.146184
0.140774
0.15573
0.175939
0.145877
0.143273
0.162279
0.154656
0.171722
0.169684
0.143381
0.174701
0.140179
0.144493
0.160301
0.173472
0.154809
0.159019
0.160546
0.171645
0.136266
0.147275
0.168939
0.176941
0.172021
0.139616
0.133812
0.15889
0.178004
0.170102
0.169123
0.156814
0.165724
0.170761
0.139109
0.177786
0.15112
0.143082
0.13725
0.176881
0.169045
0.177214
0.162896
0.176361
0.138473
0.160416
0.137194
0.136421
0.169109
0.14326
0.158417
0.171765
0.172931
0.142043
0.178238
0.176436
0.177701
0.16529
0.132611
0.17207
0.132665
0.176557
0.142454
0.175922
0.134148
0.173491
0.166919
0.155169
0.156701
0.132236
0.149145
0.170832
0.175046
0.165925
0.177546
0.176816
0.140779
0.177029
0.162231
0.173405
0.172272
0.177172
0.169677
0.170847
0.176472
0.155678
0.147922
0.146389
0.172338
0.177269
0.146098
0.148264
0.174706
0.168882
0.170577
0.180123
0.174604
0.165155
0.170991
0.175241
0.174661
0.167182
0.166813
0.176484
0.172199
0.153494
0.168453
0.151699
0.179858
0.172817
0.176117
0.143544
0.143556
0.169888
0.176045
0.173854
0.175873
0.178552
0.164378
0.166511
0.144423
0.160049
0.172833
0.173945
0.178051
0.177916
0.158121
0.17694
0.146199
0.174237
0.153126
0.169741
0.155131
0.171687
0.165008
0.175839
0.142986
0.178187
0.17688
0.157327
0.141563
0.180753
0.166305
0.175853
0.171011
0.172718
0.168064
0.137455
0.177064
0.158853
0.172305
0.147121
0.149459
0.145848
0.13633
0.152066
0.177583
0.170016
0.13897
0.168015
0.140748
0.162358
0.173169
0.132692
0.140623
0.152206
0.16198
0.170083
0.153492
0.174958
0.157041
0.154436
0.151854
0.17657
0.177348
0.176844
0.174683
0.172603
0.138355
0.139218
0.17593
0.157379
0.160309
0.176391
0.179785
0.1705
0.171541
0.136085
0.175557
0.178384
0.156893
0.176311
0.175651
0.170646
0.167566
0.168545
0.15639
0.14168
0.172549
0.141943
0.139206
0.159728
0.170799
0.170312
0.170698
0.171436
0.170923
0.135313
0.155393
0.176122
0.178212
0.141639
0.160221
0.142923
0.16547
0.177461
0.156998
0.166398
0.174891
0.162348
0.140279
0.175913
0.140091
0.174969
0.174271
0.174038
0.176973
0.17346
0.176735
0.138785
0.176228
0.177708
0.145793
0.175048
0.170684
0.157893
0.176458
0.161005
0.175347
0.177515
0.17637
0.172365
0.176636
0.17145
0.168654
0.144626
0.164561
0.14203
0.13917
0.161884
0.17412
0.170466
0.17806
0.168876
0.176701
0.136033
0.176858
0.178836
0.17499
0.173989
0.14504
0.137288
0.169965
0.1377
0.174622
0.171806
0.135766
0.157834
0.17564
0.170306
0.133424
0.149121
0.133994
0.176609
0.143766
0.173965
0.162295
0.139112
0.17263
0.175777
0.17906
0.175196
0.142332
0.165884
0.177429
0.142461
0.177007
0.170613
0.173184
0.141674
0.173505
0.157158
0.168646
0.157506
0.168147
0.154768
0.156208
0.159148
0.155997
0.174093
0.169293
0.17675
0.149449
0.169793
0.172209
0.176391
0.173033
0.144029
0.174745
0.143169
0.166579
0.178802
0.177774
0.161816
0.159778
0.172819
0.155192
0.168686
0.160872
0.143257
0.139746
0.173469
0.178
0.164218
0.157236
0.178288
0.140957
0.173559
0.143758
0.164534
0.178071
0.17018
0.138726
0.176842
0.140656
0.173391
0.170084
0.140483
0.174969
0.142994
0.152819
0.158795
0.136185
0.150018
0.164996
0.133808
0.173632
0.178689
0.137596
0.151007
0.176847
0.168437
0.173155
0.177442
0.174596
0.170183
0.14754
0.137312
0.133246
0.152401
0.177295
0.173993
0.166605
0.171947
0.142335
0.142952
0.169182
0.174009
0.132724
0.170719
0.171213
0.160799
0.174693
0.165992
0.177706
0.148705
0.157835
0.17798
0.131216
0.169732
0.177692
0.177182
0.166893
0.175452
0.172193
0.140401
0.177777
0.176691
0.169699
0.172789
0.166827
0.16996
0.172591
0.167
0.1729
0.171069
0.16675
0.14223
0.156511
0.178754
0.17217
0.178629
0.172028
0.163587
0.176865
0.143471
0.175496
0.139155
0.176697
0.168111
0.155574
0.175453
0.15518
0.159248
0.178285
0.155686
0.177089
0.176318
0.173357
0.145684
0.171863
0.169473
0.147544
0.176876
0.168054
0.169733
0.179108
0.140257
0.173912
0.170857
0.174591
0.157441
0.17148
0.140848
0.145272
0.182155
0.14228
0.172845
0.176495
0.142553
0.158202
0.178122
0.148919
0.147407
0.148586
0.154478
0.156999
0.180955
0.156955
0.1775
0.170375
0.176526
0.139772
0.154266
0.174588
0.170982
0.141527
0.144133
0.157669
0.14708
0.139361
0.170343
0.168141
0.177228
0.167571
0.177221
0.173715
0.16992
0.175759
0.167609
0.15031
0.164253
0.174361
0.168778
0.165192
0.176725
0.169461
0.140167
0.136868
0.159391
0.152775
0.165974
0.176467
0.163137
0.171674
0.176397
0.174596
0.177662
0.161284
0.143139
0.165427
0.156174
0.177505
0.163846
0.173213
0.175012
0.155884
0.157243
0.174049
0.176472
0.173486
0.180562
0.169429
0.160287
0.16245
0.148269
0.15855
0.177021
0.148319
0.176302
0.166456
0.176438
0.147573
0.175656
0.172828
0.176836
0.170662
0.163317
0.17064
0.176025
0.141152
0.141889
0.170137
0.154578
0.16224
0.171538
0.171777
0.177919
0.166696
0.139877
0.148779
0.13937
0.162763
0.171231
0.145006
0.177747
0.170394
0.156468
0.167618
0.145908
0.146017
0.178924
0.144588
0.13436
0.15701
0.156267
0.147222
0.148051
0.178017
0.175046
0.150652
0.174181
0.176619
0.170827
0.17291
0.138592
0.177542
0.119238
0.175729
0.143957
0.136824
0.17508
0.136084
0.159207
0.165109
0.177176
0.155186
0.170008
0.154825
0.170123
0.167428
0.166339
0.159593
0.173697
0.1686
0.144165
0.174451
0.167517
0.15953
0.162867
0.14475
0.161205
0.141183
0.140205
0.171285
0.153583
0.140393
0.154331
0.1725
0.175782
0.17152
0.124926
0.143187
0.178789
0.141303
0.171623
0.139565
0.176108
0.174749
0.178225
0.139074
0.160864
0.177634
0.17731
0.165884
0.179038
0.168758
0.165864
0.169082
0.141201
0.166124
0.155697
0.171366
0.170419
0.15412
0.167142
0.176274
0.149814
0.146299
0.139975
0.172807
0.173148
0.138466
0.170847
0.170488
0.167506
0.144212
0.172325
0.156268
0.172805
0.147276
0.156875
0.169709
0.13449
0.17602
0.14377
0.145534
0.166177
0.177302
0.134398
0.172684
0.174805
0.167165
0.136555
0.17696
0.176621
0.135665
0.170194
0.132925
0.146689
0.176917
0.159167
0.166987
0.176621
0.177195
0.165748
0.152308
0.169143
0.159018
0.158507
0.155256
0.17457
0.1408
0.167079
0.160126
0.15879
0.17488
0.167973
0.174066
0.168005
0.170289
0.176891
0.167585
0.157707
0.153817
0.173147
0.165576
0.165643
0.172257
0.17574
0.16751
0.178558
0.166851
0.173757
0.152873
0.141036
0.170335
0.17383
0.145207
0.167433
0.169678
0.130994
0.140427
0.176029
0.142345
0.167242
0.176543
0.167219
0.14002
0.168083
0.174318
0.142674
0.146635
0.141453
0.17474
0.17124
0.171008
0.180562
0.140187
0.172713
0.169901
0.176681
0.177713
0.123883
0.169961
0.170359
0.174222
0.165649
0.16633
0.155016
0.172979
0.176941
0.148621
0.138093
0.155962
0.174025
0.172403
0.142321
0.156513
0.174281
0.176729
0.168753
0.156496
0.134381
0.139319
0.140943
0.1718
0.167292
0.16051
0.174907
0.17626
0.147319
0.176067
0.174675
0.173417
0.153651
0.175642
0.162724
0.142391
0.149345
0.167836
0.170811
0.164443
0.165168
0.159973
0.174263
0.141686
0.141832
0.16887
0.175597
0.172999
0.158009
0.156969
0.174689
0.178546
0.166674
0.1535
0.174314
0.175793
0.167948
0.176321
0.176256
0.171894
0.138622
0.156352
0.139541
0.167291
0.177055
0.156076
0.141468
0.177096
0.144971
0.156287
0.146416
0.15955
0.142535
0.173193
0.17049
0.167818
0.162712
0.147987
0.178294
0.141352
0.167246
0.162374
0.168702
0.141232
0.175931
0.173976
0.139965
0.147144
0.160768
0.156604
0.166987
0.141589
0.17356
0.155583
0.170273
0.153145
0.155024
0.155686
0.143721
0.174197
0.157282
0.100142
0.142497
0.160863
0.176847
0.174036
0.147345
0.152185
0.172418
0.141085
0.175197
0.176238
0.165438
0.147266
0.173796
0.139889
0.143288
0.13888
0.173224
0.169327
0.152703
0.174852
0.166335
0.170794
0.140642
0.130192
0.175989
0.168969
0.176367
0.176194
0.141547
0.170932
0.161178
0.16669
0.170319
0.153845
0.15344
0.181094
0.172576
0.154344
0.1421
0.166785
0.170286
0.169459
0.157137
0.13992
0.144822
0.165305
0.167636
0.165458
0.177302
0.154165
0.173094
0.157981
0.168721
0.135936
0.177361
0.165158
0.162137
0.17865
0.170043
0.143854
0.161464
0.137296
0.175534
0.163762
0.170544
0.168944
0.169767
0.170629
0.177685
0.165854
0.0982908
0.141047
0.175811
0.112596
0.157489
0.175328
0.171625
0.175798
0.162883
0.145765
0.145451
0.178431
0.141721
0.175632
0.143981
0.133497
0.174547
0.143376
0.175533
0.104143
0.139608
0.168485
0.176098
0.177052
0.164592
0.175289
0.172503
0.172839
0.173606
0.1738
0.167894
0.16884
0.134724
0.175334
0.169286
0.166009
0.177184
0.172895
0.175557
0.150094
0.176586
0.173998
0.150017
0.145411
0.139755
0.174295
0.168906
0.175978
0.175677
0.174478
0.171443
0.134743
0.168064
0.158038
0.155187
0.171576
0.140946
0.141083
0.164979
0.17978
0.171651
0.168829
0.139518
0.16578
0.159136
0.141882
0.177085
0.168472
0.120978
0.132693
0.139686
0.141629
0.176033
0.173698
0.174607
0.148014
0.142673
0.175014
0.177008
0.136367
0.175425
0.151109
0.178684
0.16927
0.173239
0.174324
0.170971
0.171582
0.171389
0.157551
0.144474
0.147353
0.173411
0.158851
0.145777
0.17164
0.172647
0.140645
0.157363
0.143343
0.175831
0.167479
0.169253
0.131827
0.177649
0.175537
0.158692
0.173592
0.166137
0.169542
0.176297
0.162665
0.171019
0.178519
0.17112
0.141473
0.142527
0.177094
0.165686
0.143205
0.153901
0.174526
0.178512
0.175587
0.176063
0.174497
0.173122
0.172484
0.169503
0.164198
0.173905
0.15376
0.161553
0.173336
0.155627
0.14919
0.144785
0.172311
0.177474
0.142638
0.168864
0.174687
0.147295
0.176587
0.134204
0.143868
0.142014
0.180042
0.144493
0.138913
0.142971
0.161274
0.172506
0.147693
0.153834
0.160907
0.167433
0.133784
0.169492
0.146604
0.145817
0.174948
0.147907
0.138388
0.17525
0.170646
0.154384
0.141144
0.168782
0.153019
0.13833
0.177253
0.171421
0.174586
0.162471
0.14398
0.14032
0.169221
0.158833
0.176995
0.160364
0.17597
0.152796
0.168001
0.169311
0.175776
0.137958
0.151585
0.154638
0.176129
0.146842
0.169958
0.123922
0.144457
0.172234
0.155569
0.172238
0.141599
0.170145
0.170136
0.166344
0.144453
0.172491
0.180178
0.162428
0.171878
0.168376
0.172881
0.146427
0.140422
0.172548
0.142114
0.133724
0.134076
0.161357
0.151925
0.134905
0.174867
0.164288
0.137093
0.169069
0.177275
0.173749
0.140888
0.176162
0.175438
0.140051
0.161005
0.16749
0.152848
0.168968
0.169279
0.173839
0.139322
0.137213
0.169918
0.143177
0.14638
0.132217
0.141097
0.167044
0.148014
0.174899
0.168068
0.174443
0.148317
0.176912
0.165508
0.163588
0.147939
0.102496
0.176832
0.149348
0.16207
0.171525
0.175651
0.135549
0.1705
0.178056
0.143687
0.162552
0.159729
0.142677
0.145843
0.164779
0.153255
0.163846
0.176065
0.172074
0.176269
0.165479
0.164674
0.158378
0.145416
0.151536
0.170697
0.142147
0.16723
0.154221
0.135234
0.151869
0.175035
0.139524
0.110141
0.155169
0.17244
0.176643
0.172199
0.103801
0.145212
0.177199
0.173605
0.176079
0.170111
0.140354
0.177654
0.139565
0.175258
0.153271
0.158576
0.16703
0.176074
0.140229
0.164599
0.135999
0.165404
0.17528
0.178243
0.174153
0.146656
0.137391
0.168892
0.140796
0.16026
0.134948
0.158945
0.171304
0.17625
0.150326
0.176042
0.147888
0.179393
0.153423
0.177257
0.173302
0.171527
0.158149
0.146079
0.154659
0.18101
0.158035
0.169269
0.172973
0.15115
0.1648
0.174227
0.158424
0.165325
0.152125
0.156286
0.170017
0.174571
0.134856
0.176774
0.139989
0.170105
0.175421
0.140059
0.168308
0.174543
0.161166
0.159531
0.163071
0.158382
0.134514
0.170938
0.13668
0.167825
0.115844
0.174366
0.150526
0.158419
0.163462
0.139372
0.154451
0.176823
0.171233
0.164645
0.176446
0.149377
0.17422
0.142871
0.168874
0.156927
0.171006
0.167953
0.17115
0.135107
0.133603
0.176831
0.174032
0.174243
0.136442
0.178677
0.179546
0.172823
0.175159
0.165129
0.142217
0.171159
0.157399
0.162258
0.174531
0.167482
0.15234
0.172567
0.16927
0.170638
0.155804
0.14426
0.142493
0.137384
0.176712
0.172863
0.155901
0.174479
0.17346
0.142923
0.178186
0.140659
0.145522
0.145663
0.150868
0.175882
0.172088
0.131329
0.17585
0.13679
0.171014
0.169961
0.171803
0.176808
0.1734
0.173319
0.154983
0.167395
0.166391
0.175647
0.137889
0.15252
0.16993
0.145193
0.151287
0.132523
0.160647
0.171548
0.155024
0.127901
0.128504
0.132069
0.157852
0.157977
0.164582
0.169726
0.17034
0.131622
0.158292
0.153895
0.158699
0.139117
0.162191
0.140057
0.125823
0.155667
0.151868
0.157703
0.145638
0.155402
0.158767
0.149515
0.176344
0.136337
0.173092
0.163438
0.167491
0.164412
0.139961
0.162225
0.170722
0.146785
0.163097
0.170956
0.176258
0.167885
0.157739
0.171348
0.173767
0.168971
0.171621
0.141935
0.175984
0.179323
0.175341
0.172885
0.174546
0.173746
0.127195
0.141325
0.174701
0.158557
0.159253
0.175502
0.149197
0.150285
0.13393
0.173758
0.157666
0.171685
0.176378
0.12954
0.173758
0.144631
0.176787
0.170965
0.177425
0.178393
0.134008
0.174841
0.176308
0.169483
0.128427
0.162047
0.154721
0.131206
0.172268
0.136846
0.167504
0.177113
0.158107
0.169389
0.139283
0.138393
0.17521
0.171564
0.161609
0.165275
0.164183
0.169131
0.175764
0.177123
0.156719
0.105095
0.161509
0.136397
0.157607
0.157199
0.175401
0.17418
0.150587
0.171425
0.146008
0.133787
0.166351
0.145488
0.175807
0.168251
0.13693
0.135091
0.161132
0.176201
0.169801
0.176619
0.168496
0.125521
0.129936
0.144123
0.14966
0.175172
0.136752
0.173267
0.167406
0.138336
0.139346
0.133219
0.171848
0.139524
0.167745
0.144902
0.159286
0.173353
0.175786
0.142873
0.137801
0.163636
0.161429
0.147429
0.145497
0.153047
0.140706
0.150813
0.135358
0.164535
0.164766
0.130884
0.173813
0.130381
0.154961
0.145534
0.146756
0.14262
0.167662
0.166796
0.165755
0.17289
0.143647
0.133221
0.165814
0.177136
0.13825
0.174847
0.172292
0.170834
0.146433
0.15857
0.173419
0.151688
0.160453
0.160083
0.16893
0.161919
0.148036
0.141247
0.176333
0.12962
0.123448
0.120625
0.16393
0.174384
0.151548
0.137762
0.171593
0.126752
0.171772
0.15995
0.147255
0.159705
0.166926
0.179892
0.132808
0.167918
0.175323
0.132633
0.128123
0.156235
0.159682
0.1381
0.163314
0.152645
0.161351
0.162631
0.173417
0.147875
0.156457
0.168327
0.165616
0.166894
0.167704
0.156562
0.161988
0.143759
0.169024
0.155428
0.167952
0.12232
0.155616
0.117858
0.139311
0.173111
0.163513
0.14201
0.148601
0.166166
0.131361
0.147577
0.174739
0.139413
0.148216
0.162498
0.146684
0.156963
0.138585
0.165124
0.141384
0.120912
0.162552
0.14491
0.135368
0.175514
0.129827
0.165113
0.171946
0.174566
0.136162
0.154709
0.139683
0.165906
0.178493
0.154545
0.164218
0.109211
0.152446
0.16308
0.136938
0.171008
0.166106
0.157178
0.144631
0.132319
0.145236
0.131498
0.130698
0.139341
0.158261
0.167848
0.12999
0.152812
0.145055
0.154567
0.174636
0.160394
0.139335
0.163328
0.174252
0.175983
0.103274
0.174393
0.155169
0.167962
0.135993
0.112802
0.166617
0.149595
0.127242
0.169935
0.147018
0.15771
0.165377
0.150642
0.146567
0.164261
0.154895
0.155902
0.169908
0.149289
0.146503
0.150636
0.138949
0.148681
0.148343
0.167548
0.169483
0.174111
0.152911
0.17446
0.126422
0.147837
0.170548
0.153916
0.102351
0.163188
0.152817
0.128878
0.120719
0.149421
0.17048
0.167686
0.167183
0.130268
0.172698
0.156387
0.174568
0.141651
0.156993
0.140951
0.154315
0.149599
0.155704
0.133203
0.176466
0.160544
0.136717
0.151222
0.131834
0.15611
0.162582
0.173814
0.144596
0.154275
0.158796
0.141471
0.168506
0.155838
0.127373
0.176115
0.177345
0.156705
0.173986
0.159895
0.119089
0.172097
0.140622
0.175818
0.176299
0.158203
0.171476
0.166515
0.158556
0.169021
0.143466
0.133964
0.150919
0.174341
0.172693