/*--------------------------------*- C++ -*----------------------------------*\
| =========                 |                                                 |
| \\      /  F ield         | OpenFOAM: The Open Source CFD Toolbox           |
|  \\    /   O peration     | Version:  2212                                  |
|   \\  /    A nd           | Website:  www.openfoam.com                      |
|    \\/     M anipulation  |                                                 |
\*---------------------------------------------------------------------------*/
FoamFile
{
    version     2.0;
    format      ascii;
    arch        "LSB;label=32;scalar=64";
    class       volScalarField;
    location    "0.004";
    object      nut;
}
// * * * * * * * * * * * * * * * * * * * * * * * * * * * * * * * * * * * * * //

dimensions      [0 2 -1 0 0 0 0];

internalField   nonuniform List<scalar> 
31639
(
9.1e-05
9.53301e-05
0.000100319
0.000106437
8.32072e-05
9.20778e-05
7.98566e-05
9.20292e-05
9.00213e-05
0.000104739
0.00010315
0.000101689
9.92212e-05
0.000105364
9.38027e-05
7.57987e-05
8.89804e-05
7.95875e-05
7.37787e-05
9.74367e-05
6.59993e-05
9.28593e-05
0.000105833
7.53205e-05
7.48035e-05
8.86607e-05
9.9073e-05
7.49734e-05
8.13012e-05
0.000103341
0.000104577
7.95967e-05
0.000104653
7.56476e-05
6.71664e-05
0.000103565
6.1038e-05
0.000105015
0.000104459
5.94351e-05
6.75363e-05
6.68254e-05
0.00010386
9.75159e-05
0.000102414
0.000105553
9.1037e-05
7.87578e-05
8.98888e-05
0.000105656
0.000102811
5.81134e-05
0.000104365
6.39548e-05
7.75858e-05
8.94872e-05
6.36538e-05
9.64677e-05
9.64784e-05
6.23052e-05
8.55725e-05
9.15144e-05
7.06224e-05
9.47129e-05
8.93743e-05
0.000103655
8.62196e-05
9.79361e-05
7.16043e-05
0.000105137
0.000106679
8.513e-05
0.000101622
9.69942e-05
0.000105043
6.66923e-05
0.000105331
8.10214e-05
9.43939e-05
9.67775e-05
7.50189e-05
6.06732e-05
0.000108059
9.90692e-05
9.91541e-05
0.000104668
0.000105115
0.000106682
6.39333e-05
0.000108271
9.98496e-05
8.0794e-05
6.47784e-05
9.51989e-05
7.02178e-05
9.11687e-05
8.31685e-05
9.72557e-05
9.84141e-05
6.68264e-05
0.000107248
0.00010328
9.47901e-05
6.23653e-05
6.50705e-05
0.000105047
6.34116e-05
5.95279e-05
7.16383e-05
6.51522e-05
9.90638e-05
6.64554e-05
9.44669e-05
7.67881e-05
9.76376e-05
6.23351e-05
8.06235e-05
7.96393e-05
0.000104885
9.53284e-05
9.2853e-05
0.000101429
9.9612e-05
8.8167e-05
8.55735e-05
0.000103242
9.48899e-05
7.40528e-05
7.20207e-05
0.000103971
0.000104333
0.000100404
0.000102223
7.97346e-05
9.35174e-05
9.88684e-05
6.27111e-05
6.38633e-05
0.000102212
9.72367e-05
9.51951e-05
0.00010211
0.000104259
6.16701e-05
6.10276e-05
0.000105951
0.000100957
6.56976e-05
6.56784e-05
0.000104424
6.76025e-05
9.65674e-05
7.3743e-05
9.36412e-05
6.51646e-05
0.000104828
8.08257e-05
6.9917e-05
6.56672e-05
7.4267e-05
0.000104744
6.68113e-05
6.91169e-05
6.39524e-05
6.65205e-05
9.05828e-05
6.72517e-05
0.000104041
0.000102441
6.09559e-05
8.296e-05
9.24227e-05
6.54994e-05
9.98844e-05
0.000106524
9.97521e-05
9.91873e-05
0.000104518
9.93005e-05
9.83874e-05
9.5826e-05
7.87253e-05
9.1814e-05
6.01703e-05
8.84853e-05
0.000105418
8.91648e-05
0.000103231
6.51965e-05
6.35928e-05
0.000100793
9.38018e-05
8.98062e-05
9.63152e-05
9.59916e-05
7.60153e-05
7.75614e-05
0.000102489
6.14968e-05
7.89911e-05
0.000101508
0.000104365
9.61274e-05
9.74363e-05
8.39741e-05
9.60113e-05
9.23876e-05
9.61657e-05
0.000102606
5.99543e-05
9.53359e-05
7.8825e-05
9.80123e-05
9.57528e-05
8.8047e-05
0.000103177
6.75363e-05
7.85869e-05
0.000103621
0.000101132
0.000101778
8.22922e-05
6.18078e-05
9.87296e-05
6.41198e-05
8.51926e-05
0.000103965
7.51062e-05
6.58105e-05
9.17202e-05
9.23715e-05
0.000105164
6.62952e-05
6.39019e-05
8.85791e-05
8.75364e-05
6.25137e-05
9.96173e-05
6.99015e-05
6.13689e-05
9.61848e-05
8.73752e-05
9.25834e-05
7.60553e-05
7.04342e-05
8.98926e-05
9.41622e-05
9.00552e-05
6.45901e-05
9.42679e-05
9.04129e-05
6.69339e-05
7.6317e-05
0.00010489
0.000101207
7.74803e-05
6.83512e-05
0.000102047
9.83903e-05
7.8625e-05
0.000106073
0.000105237
9.46583e-05
0.000104196
9.24708e-05
8.44019e-05
6.41731e-05
7.5061e-05
9.92811e-05
9.2627e-05
9.14087e-05
7.58741e-05
8.30607e-05
9.70154e-05
0.000104232
9.72286e-05
6.54324e-05
7.76447e-05
6.98713e-05
0.000102415
8.21869e-05
0.000104751
0.0001033
7.69196e-05
6.64757e-05
7.20524e-05
6.44751e-05
6.33441e-05
0.000102603
6.8112e-05
0.000101983
9.27196e-05
7.63473e-05
7.00547e-05
0.000103899
7.84768e-05
7.11503e-05
9.37961e-05
8.14147e-05
7.21362e-05
9.31673e-05
6.681e-05
9.60936e-05
9.46823e-05
6.5711e-05
8.14585e-05
9.45933e-05
5.79469e-05
6.14836e-05
0.000102571
0.000106889
0.000103513
6.45997e-05
6.91664e-05
0.000101406
6.96827e-05
7.28881e-05
0.000104582
0.000104225
9.25788e-05
0.000104624
0.000105582
6.58014e-05
0.000108338
6.04869e-05
6.35552e-05
0.000103543
9.96508e-05
0.00010157
0.000102917
8.98756e-05
6.93144e-05
9.22117e-05
9.44111e-05
0.000103721
0.000103871
0.000105247
9.39697e-05
8.81303e-05
9.8865e-05
0.000101123
8.81561e-05
8.73429e-05
8.15663e-05
9.51117e-05
7.88788e-05
9.62819e-05
8.97462e-05
6.56014e-05
9.35021e-05
0.000109379
7.65778e-05
9.80646e-05
0.0001004
9.45128e-05
6.50651e-05
9.55299e-05
9.34907e-05
6.35516e-05
0.000105469
6.60026e-05
8.19788e-05
0.000104301
6.0794e-05
9.70502e-05
9.52e-05
6.47953e-05
8.39907e-05
6.57337e-05
7.85486e-05
0.000103392
8.9381e-05
6.16803e-05
9.02115e-05
6.90525e-05
9.01775e-05
0.000102174
0.000103937
0.000106528
6.8704e-05
9.85029e-05
6.52556e-05
9.32532e-05
6.14404e-05
0.000102006
0.000103112
0.000105437
0.000104369
7.39061e-05
9.52626e-05
9.59056e-05
0.000100045
9.52161e-05
6.70934e-05
8.37572e-05
8.79952e-05
9.59677e-05
9.22479e-05
8.77275e-05
8.99543e-05
7.97023e-05
6.57077e-05
8.57472e-05
9.71738e-05
0.000101738
6.03676e-05
0.000103125
0.000101358
9.3731e-05
9.80536e-05
0.000101313
8.01218e-05
0.000102753
6.88109e-05
8.92283e-05
0.000102289
6.33502e-05
8.57325e-05
0.00010058
6.68678e-05
6.07765e-05
6.51592e-05
8.07328e-05
6.56743e-05
9.83452e-05
9.77446e-05
7.83155e-05
0.000103036
6.70854e-05
0.000103618
0.000105389
9.5844e-05
8.93536e-05
8.14096e-05
0.00010416
9.60752e-05
8.50428e-05
0.000104014
9.80856e-05
6.35026e-05
9.63353e-05
0.00010259
0.000104063
9.08097e-05
0.000104023
9.00831e-05
8.8239e-05
9.67959e-05
0.000103092
0.000101296
6.60947e-05
9.64398e-05
5.89889e-05
8.09561e-05
9.31659e-05
6.48153e-05
6.3665e-05
8.08268e-05
8.97442e-05
9.652e-05
6.25351e-05
9.0725e-05
7.53978e-05
9.49419e-05
9.13453e-05
6.86728e-05
9.43578e-05
6.24869e-05
9.30755e-05
0.000103885
0.000107191
9.99379e-05
8.05481e-05
6.53623e-05
8.97541e-05
9.63234e-05
0.000103595
6.3057e-05
6.39823e-05
9.3513e-05
6.62378e-05
6.86443e-05
8.80576e-05
6.31596e-05
7.87964e-05
6.69312e-05
8.90617e-05
6.60884e-05
0.000103987
0.000102746
0.000104864
0.000101359
7.37191e-05
0.000104727
0.000104953
8.68263e-05
9.11358e-05
9.82085e-05
0.000106097
0.000102522
7.73702e-05
0.000100002
0.000106851
9.43214e-05
6.96927e-05
0.000105793
9.70182e-05
5.88102e-05
6.30162e-05
9.72488e-05
0.000105753
0.000104188
9.06079e-05
0.000105389
9.92047e-05
0.000102402
9.86186e-05
7.88531e-05
8.53239e-05
6.84859e-05
9.33223e-05
8.94902e-05
0.00010473
6.96289e-05
6.91023e-05
6.66983e-05
8.66495e-05
9.41298e-05
5.73186e-05
9.19881e-05
7.61134e-05
8.73934e-05
7.98415e-05
9.79462e-05
8.44146e-05
6.65769e-05
9.93225e-05
0.000100912
6.90206e-05
9.06143e-05
0.000104551
9.83942e-05
9.41488e-05
7.7191e-05
6.85508e-05
9.63384e-05
9.70627e-05
6.75388e-05
6.41817e-05
9.73641e-05
7.85931e-05
9.00461e-05
7.10939e-05
8.03442e-05
0.000104883
9.4796e-05
6.54877e-05
7.21594e-05
9.71671e-05
0.000104557
6.53833e-05
5.79267e-05
0.000102003
6.29724e-05
0.000100641
0.00010293
6.61186e-05
9.74943e-05
9.5975e-05
8.45943e-05
6.58726e-05
0.000105658
8.36803e-05
6.73808e-05
0.000106085
9.89314e-05
9.06762e-05
9.73004e-05
5.87524e-05
7.23275e-05
9.30155e-05
7.72466e-05
7.31343e-05
8.48142e-05
9.75145e-05
0.000106508
9.83268e-05
9.46305e-05
0.000102305
8.73766e-05
7.63818e-05
9.93713e-05
0.000103324
0.000110036
7.27192e-05
9.76837e-05
8.49107e-05
0.000107232
6.82665e-05
6.05139e-05
0.000103447
7.05579e-05
0.000104502
9.07293e-05
6.31984e-05
7.81205e-05
0.000104667
8.30634e-05
9.30619e-05
6.22719e-05
9.58549e-05
8.47443e-05
6.23745e-05
0.000105029
0.000101412
7.43418e-05
6.7055e-05
6.78306e-05
8.13835e-05
9.6398e-05
9.76639e-05
9.45236e-05
9.64449e-05
0.000102565
9.75837e-05
9.52621e-05
6.7857e-05
0.000103227
6.43706e-05
9.58243e-05
8.24378e-05
7.97089e-05
0.000110401
9.46836e-05
7.11918e-05
6.00575e-05
6.57869e-05
8.06887e-05
0.000104567
6.92784e-05
0.000103665
8.07226e-05
0.000102794
6.49172e-05
9.14652e-05
9.87115e-05
0.000105095
0.000104274
0.000101055
9.94633e-05
8.35277e-05
0.0001061
0.000104631
0.000106082
7.27372e-05
9.83928e-05
6.49892e-05
0.000107863
9.50065e-05
9.48423e-05
6.95067e-05
9.06269e-05
6.01173e-05
0.00010062
8.43602e-05
0.000103223
9.4133e-05
8.89593e-05
6.62534e-05
0.000104455
6.10434e-05
6.03938e-05
6.81819e-05
7.19801e-05
6.34891e-05
9.57324e-05
6.29447e-05
9.68191e-05
8.62118e-05
5.94134e-05
0.00010603
6.70362e-05
7.16124e-05
9.15597e-05
7.43647e-05
9.45229e-05
0.000101259
0.000105904
0.000103016
7.47564e-05
9.50703e-05
7.74796e-05
8.06659e-05
5.96032e-05
5.46686e-05
0.000104398
9.5256e-05
8.91606e-05
0.000103003
6.38071e-05
0.000105541
0.000105053
0.000100959
0.000101542
0.000100978
0.0001007
0.000105267
0.000105091
9.61128e-05
0.000103548
9.24541e-05
6.51048e-05
0.000103993
7.86808e-05
0.000101484
9.02271e-05
9.65892e-05
7.28654e-05
0.00010436
9.357e-05
9.39141e-05
8.23487e-05
6.87349e-05
0.000105515
8.53813e-05
7.6268e-05
6.57554e-05
0.00010229
5.90852e-05
0.000101394
9.20764e-05
8.96211e-05
9.78747e-05
0.000104622
9.74457e-05
6.43701e-05
9.41055e-05
8.35809e-05
9.76269e-05
6.63743e-05
9.93363e-05
9.19891e-05
8.88238e-05
9.62964e-05
8.49711e-05
8.72703e-05
7.97049e-05
8.13068e-05
5.96363e-05
0.000102482
8.74784e-05
0.000106045
7.08904e-05
9.57087e-05
9.89929e-05
9.4355e-05
7.41921e-05
9.57205e-05
0.000102823
9.46678e-05
5.95589e-05
6.2757e-05
9.38414e-05
6.05341e-05
6.60187e-05
9.929e-05
9.9709e-05
0.000101898
5.81459e-05
9.43449e-05
0.000102919
6.39741e-05
5.99907e-05
9.42372e-05
6.65002e-05
8.65283e-05
7.11615e-05
0.000104685
7.63268e-05
7.47853e-05
0.000103467
6.20362e-05
9.29592e-05
9.30197e-05
0.000101901
0.000104339
0.000103033
6.79074e-05
0.000101457
0.000102727
7.98708e-05
0.000103848
0.000101209
9.16432e-05
0.000100887
9.68784e-05
0.00010515
0.000104999
0.000103374
9.93875e-05
8.07796e-05
9.63367e-05
9.54607e-05
6.5884e-05
9.20231e-05
9.89374e-05
0.000104038
0.000103664
9.24908e-05
0.000105771
0.000101608
8.93877e-05
9.19672e-05
0.000104926
9.33704e-05
9.06853e-05
6.62906e-05
7.84911e-05
0.000106944
5.99411e-05
8.38044e-05
9.36393e-05
7.92419e-05
9.32089e-05
0.00010352
8.96157e-05
0.00010214
8.80449e-05
9.24391e-05
8.3842e-05
0.00010199
9.69169e-05
7.96769e-05
6.70957e-05
0.000104484
6.79961e-05
9.16296e-05
7.93985e-05
9.22565e-05
8.42965e-05
0.00010653
6.59586e-05
0.00010758
6.95324e-05
9.82579e-05
7.90902e-05
9.53083e-05
9.51318e-05
0.000101634
6.57789e-05
0.000101577
0.00010337
9.71786e-05
9.88728e-05
9.11226e-05
6.16614e-05
0.000106295
0.000104314
9.68278e-05
0.00010227
0.000105681
9.57477e-05
8.41265e-05
9.92403e-05
6.42996e-05
8.01483e-05
0.000103957
6.53128e-05
7.15416e-05
0.000106022
0.000105127
7.27667e-05
7.73927e-05
9.83591e-05
7.47966e-05
9.28437e-05
6.75765e-05
9.85326e-05
9.72026e-05
5.99442e-05
8.57019e-05
0.000104658
9.25645e-05
9.7541e-05
9.17376e-05
0.000102863
6.92354e-05
6.76552e-05
0.000106823
0.000104831
9.48652e-05
6.69706e-05
9.16659e-05
0.000106813
7.14904e-05
0.000104322
9.56568e-05
9.8671e-05
8.74872e-05
0.000100527
9.89042e-05
9.7935e-05
9.29567e-05
7.41724e-05
6.25423e-05
8.53172e-05
9.81553e-05
6.66584e-05
0.000102503
6.19055e-05
9.2077e-05
7.97957e-05
6.49033e-05
9.40452e-05
7.39485e-05
9.82817e-05
8.51291e-05
9.46136e-05
6.56311e-05
6.59217e-05
7.90713e-05
6.59394e-05
9.09948e-05
0.000104459
9.39314e-05
0.000106139
8.29229e-05
9.59222e-05
0.000106259
7.92072e-05
8.54373e-05
9.50231e-05
9.45989e-05
9.01993e-05
6.81897e-05
9.69979e-05
9.99268e-05
0.00010573
0.0001081
6.70418e-05
6.20972e-05
9.3084e-05
0.000104686
7.0987e-05
9.2408e-05
8.49384e-05
9.5093e-05
0.000106472
7.88465e-05
9.29365e-05
9.05325e-05
6.5693e-05
0.000104851
9.76358e-05
6.46481e-05
7.313e-05
9.37591e-05
7.77004e-05
0.000104734
0.000104909
8.69078e-05
6.58783e-05
0.000105448
6.23199e-05
9.14519e-05
9.66708e-05
7.65357e-05
0.000102761
6.36476e-05
9.53355e-05
8.8329e-05
9.48187e-05
6.42688e-05
6.16086e-05
0.00010076
0.000105763
7.88765e-05
0.000101728
9.99426e-05
9.56336e-05
6.65137e-05
7.13034e-05
0.000100012
8.21303e-05
9.60386e-05
0.000105506
0.000103824
0.000104728
0.000102737
8.69987e-05
8.5947e-05
0.000102733
6.71754e-05
9.65575e-05
0.000100267
9.82787e-05
9.90849e-05
0.000106463
8.33165e-05
0.000102656
9.41033e-05
6.12797e-05
0.000107349
7.55071e-05
0.000105958
7.85801e-05
0.000104867
6.54295e-05
9.96496e-05
0.000105467
9.10686e-05
9.82798e-05
6.53722e-05
0.000104528
0.000106461
9.72446e-05
6.24578e-05
0.000111345
8.27062e-05
9.88642e-05
0.000101092
0.000101915
0.000101763
9.21258e-05
8.11107e-05
0.000107903
6.77873e-05
6.73791e-05
6.63986e-05
6.93543e-05
9.98708e-05
6.43409e-05
0.000105505
0.000105398
9.83625e-05
9.3439e-05
8.27758e-05
9.79599e-05
0.000107594
9.57161e-05
8.72942e-05
0.000105909
9.52105e-05
8.14917e-05
0.000102768
9.4752e-05
9.57741e-05
9.55872e-05
7.84992e-05
0.000102374
0.000108582
0.000105166
0.000104127
0.000100365
7.63685e-05
0.000110391
8.72897e-05
9.01921e-05
9.47745e-05
0.000100565
0.000110867
9.73514e-05
0.00010218
7.3972e-05
9.47834e-05
8.71296e-05
6.76484e-05
6.49369e-05
9.49694e-05
8.11879e-05
0.000100231
7.60848e-05
5.80341e-05
8.85193e-05
0.000102471
7.45043e-05
7.81008e-05
9.76545e-05
0.000105801
0.000103477
9.16581e-05
7.06754e-05
9.65304e-05
9.15237e-05
7.96175e-05
9.06014e-05
9.56607e-05
6.37688e-05
7.95106e-05
7.52437e-05
8.96688e-05
0.000104018
9.44206e-05
9.95323e-05
9.45982e-05
9.88356e-05
8.85389e-05
6.45218e-05
6.71452e-05
6.36208e-05
9.69241e-05
9.73237e-05
0.000105121
0.000110511
9.35059e-05
6.31804e-05
0.000100955
8.01686e-05
8.79884e-05
9.06618e-05
0.000102231
6.11422e-05
0.000107488
6.38019e-05
9.80183e-05
8.87261e-05
8.41896e-05
0.000106676
9.37e-05
9.84534e-05
6.67381e-05
9.46005e-05
8.60946e-05
9.10497e-05
7.099e-05
7.03187e-05
0.000100675
0.000101539
8.61124e-05
9.93851e-05
0.000106348
6.65211e-05
8.02255e-05
8.11365e-05
6.98681e-05
9.76921e-05
0.000103446
0.000105138
0.000101495
0.000105057
6.82188e-05
6.83762e-05
6.67215e-05
0.000108804
6.7475e-05
0.000100936
8.59225e-05
6.66505e-05
7.971e-05
0.000103652
0.000103671
7.43289e-05
7.82077e-05
9.22013e-05
9.75349e-05
0.000104684
8.63273e-05
6.56294e-05
9.75502e-05
0.000101324
9.9983e-05
0.000100803
0.000103311
0.000109913
0.000104627
9.27038e-05
6.82267e-05
6.59419e-05
9.33333e-05
7.2645e-05
0.000104667
6.59245e-05
9.87173e-05
8.11532e-05
0.000103306
7.03187e-05
9.04873e-05
0.000104174
9.83555e-05
7.94302e-05
6.81194e-05
0.000104065
8.07653e-05
9.9676e-05
8.4585e-05
0.000112168
0.000104952
9.85174e-05
6.63246e-05
6.52551e-05
9.39137e-05
8.57136e-05
7.74146e-05
0.000105224
6.63895e-05
0.000103587
9.54178e-05
7.75683e-05
0.000100014
0.000106134
0.00010152
0.000104241
0.000108583
0.000100266
8.59439e-05
6.41128e-05
7.31779e-05
0.00010229
6.84771e-05
9.0022e-05
9.34456e-05
7.12176e-05
9.57238e-05
9.89584e-05
9.46699e-05
9.97599e-05
0.000103291
6.75201e-05
9.43852e-05
9.75187e-05
6.70527e-05
7.79163e-05
9.36489e-05
7.92395e-05
9.29164e-05
6.6502e-05
6.47489e-05
9.57217e-05
7.73991e-05
0.000104161
0.000106428
0.000102829
9.2627e-05
9.30838e-05
9.62926e-05
8.9625e-05
9.76016e-05
6.95629e-05
9.69477e-05
7.98087e-05
0.000104156
9.0204e-05
8.074e-05
8.23535e-05
0.000103629
6.72409e-05
9.6647e-05
0.000103472
9.21555e-05
5.4865e-05
8.23439e-05
6.77264e-05
9.0224e-05
6.26555e-05
0.000108595
0.000104067
0.000104166
0.000101061
6.86066e-05
6.51884e-05
0.000103792
0.000106968
0.000100482
9.65002e-05
8.51676e-05
0.000102468
0.000107854
0.000102018
6.51537e-05
8.18592e-05
9.78558e-05
0.000100573
8.20903e-05
9.55479e-05
6.34315e-05
0.000103016
0.000102892
8.69039e-05
9.79429e-05
9.09379e-05
9.65758e-05
0.00010554
0.000100358
7.00894e-05
9.69366e-05
9.94851e-05
9.54105e-05
8.61941e-05
8.98788e-05
6.35279e-05
6.73074e-05
0.000103029
0.00010388
0.000102424
0.000104202
9.94605e-05
0.000100506
8.80052e-05
9.78485e-05
0.000100634
0.000104527
8.05178e-05
8.10428e-05
9.0552e-05
9.70956e-05
0.000103931
6.27405e-05
8.57464e-05
6.02809e-05
0.000103682
6.17419e-05
6.64684e-05
9.52926e-05
5.74725e-05
8.20964e-05
9.64941e-05
0.000104863
0.000102059
7.37287e-05
8.88988e-05
0.000105032
7.28217e-05
6.90169e-05
8.15873e-05
7.42295e-05
0.000104094
9.68233e-05
8.56904e-05
6.48888e-05
9.47618e-05
0.000107161
0.000103391
6.50169e-05
7.06747e-05
9.40623e-05
0.000102878
0.000101703
6.82899e-05
6.69268e-05
9.10788e-05
8.35092e-05
0.000106238
9.42253e-05
6.32707e-05
8.95259e-05
0.000102316
6.69036e-05
6.12193e-05
0.000104332
6.94294e-05
7.10499e-05
0.000107619
0.000100153
0.000100844
0.000108271
9.41049e-05
8.11736e-05
0.000103761
7.61626e-05
0.000100328
7.48295e-05
9.25301e-05
9.93028e-05
9.48465e-05
6.4926e-05
0.000102283
0.000101812
7.87766e-05
9.62965e-05
8.06918e-05
7.12853e-05
8.87687e-05
8.61685e-05
9.12661e-05
0.000104436
7.70015e-05
0.000102706
6.43111e-05
0.000100998
0.000105943
6.55786e-05
9.70966e-05
9.84838e-05
5.74486e-05
6.65629e-05
9.87871e-05
9.44785e-05
0.000103005
7.55543e-05
6.70781e-05
0.000104487
0.000104948
0.000103842
8.76541e-05
0.000103131
6.3219e-05
0.000106321
9.62284e-05
6.60836e-05
6.6252e-05
5.67197e-05
6.37887e-05
0.000105763
7.77738e-05
0.000100058
9.60048e-05
7.09633e-05
7.23829e-05
5.91679e-05
5.88501e-05
0.000107788
0.000105786
6.9911e-05
0.000102896
9.14053e-05
6.71123e-05
9.26809e-05
8.38148e-05
7.01252e-05
7.98438e-05
0.000103563
7.07811e-05
6.32555e-05
0.000100561
0.000107372
7.30809e-05
0.000102218
8.36668e-05
7.11278e-05
6.62025e-05
8.44978e-05
6.82539e-05
6.66314e-05
9.91521e-05
9.8677e-05
7.97822e-05
9.56886e-05
0.000102422
9.39115e-05
0.000104923
6.03795e-05
8.37241e-05
6.53644e-05
9.69208e-05
0.000102455
9.55324e-05
7.5967e-05
9.63014e-05
6.77562e-05
0.000101295
9.4431e-05
7.53396e-05
6.88138e-05
6.04355e-05
6.07651e-05
7.66082e-05
6.38428e-05
8.14172e-05
6.50606e-05
8.15472e-05
0.000100079
9.07664e-05
8.05656e-05
9.9534e-05
9.16639e-05
9.65075e-05
0.000100179
6.34064e-05
8.57122e-05
0.000103831
0.000104968
9.36227e-05
0.000106176
6.98107e-05
9.93494e-05
9.56339e-05
6.48254e-05
9.13408e-05
0.000105135
9.08371e-05
0.00010169
0.000103807
8.83755e-05
5.78006e-05
5.8616e-05
9.3732e-05
0.000105799
8.90979e-05
0.000102543
7.6886e-05
8.01072e-05
6.94337e-05
6.34484e-05
6.14281e-05
6.38911e-05
9.64567e-05
0.000100449
0.000105796
8.85758e-05
7.93489e-05
0.000104045
6.36641e-05
9.70312e-05
0.000101476
0.000104788
8.9837e-05
9.09296e-05
0.000103811
0.000110296
0.000103132
7.85142e-05
8.21593e-05
0.000101355
9.03721e-05
9.79407e-05
0.000107529
9.90461e-05
0.000106228
9.69755e-05
7.25462e-05
9.69331e-05
9.79367e-05
9.44312e-05
9.87228e-05
6.47437e-05
0.000102569
0.000103362
0.000105358
0.000102805
6.42364e-05
6.10314e-05
9.36885e-05
9.39392e-05
8.22146e-05
9.77796e-05
0.00010228
0.000101441
0.000101574
7.80119e-05
9.22085e-05
9.52724e-05
9.93263e-05
6.51542e-05
6.59905e-05
8.8564e-05
9.25886e-05
6.79064e-05
0.000105987
6.7763e-05
7.61676e-05
9.76329e-05
9.83678e-05
7.9756e-05
0.000102817
9.41546e-05
0.000101032
8.93072e-05
9.2977e-05
9.76361e-05
7.74634e-05
5.98936e-05
0.000104889
6.019e-05
6.33625e-05
7.76746e-05
6.33669e-05
6.20768e-05
7.7767e-05
9.85227e-05
6.29427e-05
7.81743e-05
5.54607e-05
6.80529e-05
9.39626e-05
0.000105557
5.99757e-05
6.56577e-05
0.000102524
6.27401e-05
8.10035e-05
9.54886e-05
8.62662e-05
9.74715e-05
6.86845e-05
6.4678e-05
7.87197e-05
0.000103505
6.96245e-05
6.69765e-05
8.56046e-05
7.79676e-05
9.73428e-05
9.46073e-05
6.69873e-05
0.000101269
6.42534e-05
6.69892e-05
8.19745e-05
9.83343e-05
7.58659e-05
8.16413e-05
8.30215e-05
9.68683e-05
6.12537e-05
7.07483e-05
9.38087e-05
0.000104617
9.88183e-05
6.27294e-05
5.91919e-05
8.16228e-05
0.000106058
9.50902e-05
9.50549e-05
7.86479e-05
8.94481e-05
9.6248e-05
6.42131e-05
0.000105577
7.41618e-05
6.61646e-05
6.119e-05
0.000104551
9.44573e-05
0.000104691
8.55381e-05
0.000103339
6.30425e-05
8.36332e-05
6.15813e-05
6.06244e-05
9.31917e-05
6.72329e-05
8.04465e-05
9.74731e-05
0.000100178
6.63289e-05
0.000106346
0.000103703
0.000105719
8.91103e-05
5.77844e-05
9.82147e-05
5.83953e-05
0.000103615
6.58867e-05
0.000102841
5.92815e-05
9.9391e-05
9.1603e-05
7.70986e-05
7.88131e-05
5.74018e-05
7.19073e-05
9.684e-05
0.000102098
8.87222e-05
0.00010531
0.000104263
6.46653e-05
0.000104619
8.69071e-05
9.94174e-05
9.83292e-05
0.000104392
9.36976e-05
9.70118e-05
0.000103423
7.84934e-05
7.10028e-05
6.93773e-05
9.88903e-05
0.000105388
6.91926e-05
7.10266e-05
0.000102148
9.35818e-05
9.67502e-05
0.000110034
0.000101642
8.83474e-05
9.60246e-05
0.00010255
0.000101617
9.2579e-05
9.02058e-05
0.000103522
9.73264e-05
7.55447e-05
9.35265e-05
7.43197e-05
0.000108541
9.90283e-05
0.00010344
6.69481e-05
6.74336e-05
9.63257e-05
0.000102703
0.000100082
0.000103043
0.000106914
8.79974e-05
8.97528e-05
6.80512e-05
8.17925e-05
9.9127e-05
0.000100926
0.000105888
0.000105549
8.01171e-05
0.000104634
6.82187e-05
0.000101122
7.49618e-05
9.4316e-05
7.81554e-05
9.70762e-05
8.88625e-05
0.000102853
6.6682e-05
0.000105589
0.000104307
8.00833e-05
6.60558e-05
0.000110066
9.10676e-05
0.000104162
9.63979e-05
9.86047e-05
9.31295e-05
6.29655e-05
0.000104455
8.11685e-05
9.81727e-05
6.98718e-05
7.18663e-05
6.99005e-05
6.12401e-05
7.49263e-05
0.000106
9.53439e-05
6.32377e-05
9.20001e-05
6.5046e-05
8.52886e-05
9.90322e-05
5.84399e-05
6.46556e-05
7.4626e-05
8.50406e-05
9.44455e-05
7.57464e-05
0.000102013
8.00176e-05
7.73729e-05
7.42077e-05
0.000104
0.000105235
0.000104599
0.000101493
9.83786e-05
6.37408e-05
6.34764e-05
0.000102619
7.85033e-05
8.38522e-05
0.000104273
0.000109046
9.51301e-05
9.73166e-05
6.10119e-05
0.000102817
0.000106423
7.85806e-05
0.000103874
0.000102894
9.59518e-05
9.2068e-05
9.27325e-05
7.86891e-05
6.46284e-05
9.80283e-05
6.59911e-05
6.36415e-05
8.33946e-05
9.62782e-05
9.4364e-05
9.58279e-05
9.70493e-05
9.59035e-05
5.9635e-05
7.84934e-05
0.000101963
0.000105806
6.49423e-05
8.16347e-05
6.74287e-05
9.02575e-05
0.000105224
7.98202e-05
8.98831e-05
0.000102479
8.61732e-05
6.36933e-05
0.000103339
6.42821e-05
0.000102188
0.000100884
0.000100569
0.000104966
0.000100504
0.00010399
6.30356e-05
0.00010372
0.00010545
6.91817e-05
0.000102159
9.57369e-05
8.11519e-05
0.000103356
8.2381e-05
0.000101739
0.000104881
0.000104044
9.82627e-05
0.000103976
9.69943e-05
9.3115e-05
6.84604e-05
8.8621e-05
6.61068e-05
6.30309e-05
8.42385e-05
0.000101122
9.57207e-05
0.000106134
9.39032e-05
0.000104111
6.12166e-05
0.000104687
0.000106988
0.000102262
0.000101043
6.8368e-05
6.23735e-05
9.61285e-05
6.20342e-05
0.000101426
9.76778e-05
6.05693e-05
8.08038e-05
0.000102202
9.58066e-05
5.95886e-05
7.15567e-05
5.96111e-05
0.00010436
6.60904e-05
0.000100326
8.66131e-05
6.41872e-05
9.81945e-05
0.000102345
0.000107764
0.000101757
6.62633e-05
8.92909e-05
0.000105748
6.71125e-05
0.000104017
9.52532e-05
9.84312e-05
6.47932e-05
0.000100329
7.94154e-05
9.24934e-05
7.899e-05
9.27151e-05
7.78558e-05
7.90904e-05
8.02735e-05
7.85764e-05
9.96291e-05
9.47914e-05
0.00010405
7.16113e-05
9.48886e-05
9.88019e-05
0.000102668
0.000100153
6.64051e-05
0.000101596
6.656e-05
9.19045e-05
0.000107392
0.000105643
8.31909e-05
8.30123e-05
9.80778e-05
7.8316e-05
9.34703e-05
8.41789e-05
6.6712e-05
6.4161e-05
9.9361e-05
0.00010538
8.78583e-05
7.96228e-05
0.000105975
6.52513e-05
0.000101005
6.66674e-05
8.85012e-05
0.000105809
9.52585e-05
6.33148e-05
0.000104033
6.49292e-05
0.000100416
9.48264e-05
6.43653e-05
0.000102364
6.76736e-05
7.60562e-05
8.16818e-05
6.09037e-05
7.29754e-05
8.86308e-05
5.93861e-05
9.91191e-05
0.000107688
6.15171e-05
7.39532e-05
0.00010414
9.23279e-05
9.96711e-05
0.00010582
0.000100985
9.54251e-05
7.03103e-05
6.30091e-05
5.84425e-05
7.69592e-05
0.000105176
0.00010081
9.00298e-05
9.72446e-05
6.59738e-05
6.59137e-05
9.3958e-05
9.96308e-05
5.86125e-05
9.73725e-05
9.72607e-05
8.23686e-05
0.00010158
9.10243e-05
0.00010513
7.16632e-05
8.1199e-05
0.000107107
5.6883e-05
9.53222e-05
0.000105366
0.000104615
9.11282e-05
0.000102297
9.91999e-05
6.44566e-05
0.000106209
0.000103803
9.44301e-05
9.94505e-05
9.19869e-05
9.55121e-05
9.96866e-05
9.02249e-05
9.87103e-05
9.65456e-05
9.15949e-05
6.53844e-05
7.94801e-05
0.000106783
9.67133e-05
0.000107581
9.84762e-05
8.48871e-05
0.000105134
6.73122e-05
0.00010247
6.44019e-05
0.000103812
9.21038e-05
7.81777e-05
0.000101851
7.70566e-05
8.21755e-05
0.000106353
7.87025e-05
0.000104781
0.000105002
9.92704e-05
6.78304e-05
9.78329e-05
9.50468e-05
7.12355e-05
0.000104503
9.15296e-05
9.49646e-05
0.000107677
6.45051e-05
0.000100778
9.71952e-05
0.000101747
7.98985e-05
9.64256e-05
6.47389e-05
6.82851e-05
0.000112832
6.61623e-05
9.86722e-05
0.000103372
6.61346e-05
8.1001e-05
0.000105972
7.1657e-05
7.0434e-05
7.15105e-05
7.73216e-05
7.928e-05
0.000110411
8.00084e-05
0.000106133
9.42719e-05
0.00010385
6.39612e-05
7.62924e-05
0.000101593
9.68582e-05
6.50637e-05
6.82614e-05
8.1545e-05
7.19621e-05
6.43293e-05
9.54199e-05
9.26166e-05
0.000105027
9.23794e-05
0.000104174
9.99886e-05
9.32147e-05
0.000102874
9.11339e-05
7.3466e-05
8.79551e-05
0.000101504
9.36344e-05
8.92173e-05
0.000104853
9.50045e-05
6.40105e-05
6.20205e-05
8.26865e-05
7.68339e-05
8.94259e-05
0.00010356
8.63716e-05
9.78726e-05
0.000103134
0.000100969
0.000105382
8.48433e-05
6.69683e-05
8.91997e-05
7.85351e-05
0.000105058
8.69695e-05
9.95355e-05
0.00010198
7.84629e-05
7.94953e-05
0.000100296
0.000103288
0.000100268
0.000110037
9.29638e-05
8.15098e-05
8.37959e-05
7.16242e-05
8.08787e-05
0.000104662
7.06799e-05
0.00010383
9.09542e-05
0.000103712
6.99962e-05
0.000101325
9.90578e-05
0.000104122
9.71617e-05
8.77023e-05
9.63746e-05
0.000103251
6.49831e-05
6.65254e-05
9.57409e-05
7.65878e-05
8.63134e-05
9.61768e-05
9.75325e-05
0.000105653
9.01356e-05
6.37975e-05
7.1886e-05
6.45188e-05
8.64611e-05
9.68196e-05
6.85141e-05
0.000105603
9.54994e-05
7.90865e-05
9.16593e-05
6.95096e-05
6.91835e-05
0.000107608
6.81056e-05
6.04644e-05
8.12223e-05
8.07861e-05
7.06477e-05
7.09276e-05
0.000105989
0.000101948
7.37532e-05
0.000100917
0.000103511
9.62677e-05
9.92301e-05
6.23511e-05
0.000105337
4.92978e-05
0.000102853
6.77124e-05
6.2233e-05
0.000102434
6.18673e-05
8.15465e-05
8.85549e-05
0.000105104
7.83099e-05
9.49377e-05
7.66702e-05
9.53912e-05
9.2429e-05
8.95101e-05
8.33472e-05
9.98414e-05
9.31396e-05
6.73877e-05
0.000101103
9.21969e-05
8.15397e-05
8.83032e-05
6.86437e-05
8.38426e-05
6.48166e-05
6.43299e-05
9.73233e-05
7.69499e-05
6.55022e-05
7.66509e-05
9.78714e-05
0.000102937
9.58032e-05
5.32381e-05
6.52505e-05
0.000106722
6.53041e-05
9.69275e-05
6.35849e-05
0.000103467
0.000102216
0.000105687
6.44957e-05
8.32416e-05
0.00010572
0.000105552
8.93355e-05
0.000107363
9.35461e-05
8.90743e-05
9.39811e-05
6.49762e-05
9.02616e-05
7.70843e-05
9.74428e-05
9.51683e-05
7.58504e-05
9.08155e-05
0.000103741
7.2821e-05
6.93507e-05
6.47946e-05
9.89272e-05
9.93538e-05
6.28019e-05
9.64491e-05
9.61486e-05
9.10638e-05
6.76639e-05
9.82682e-05
7.93138e-05
9.70743e-05
7.15639e-05
7.99051e-05
9.46137e-05
5.91564e-05
0.000102814
6.68022e-05
6.86581e-05
8.97544e-05
0.000105134
5.95524e-05
9.82128e-05
0.000101799
9.2803e-05
6.09359e-05
0.000104386
0.000104328
5.99384e-05
9.53585e-05
5.80833e-05
6.9011e-05
0.000104287
8.09798e-05
8.94834e-05
0.000103722
0.000104801
8.9331e-05
7.55176e-05
9.46127e-05
8.18703e-05
8.28977e-05
7.72753e-05
0.00010156
6.47185e-05
9.27125e-05
8.24861e-05
8.16034e-05
0.00010275
9.17436e-05
0.000100275
9.25743e-05
9.55625e-05
0.000105196
9.17361e-05
8.08678e-05
7.5719e-05
9.94949e-05
8.99026e-05
8.94528e-05
9.78985e-05
0.000102997
9.18377e-05
0.000107434
9.08132e-05
0.00010015
7.56628e-05
6.55027e-05
9.5872e-05
9.91909e-05
6.80149e-05
9.0445e-05
9.60911e-05
5.72255e-05
6.42022e-05
0.000103051
6.62368e-05
9.33803e-05
0.000103829
9.0769e-05
6.49982e-05
9.18222e-05
9.9657e-05
6.64395e-05
6.84655e-05
6.6307e-05
0.000101452
9.63169e-05
9.70181e-05
0.000110309
6.46044e-05
9.88456e-05
9.57593e-05
0.000103973
0.000106089
5.21675e-05
9.52351e-05
9.43425e-05
0.000100695
8.92807e-05
9.0014e-05
7.937e-05
9.92504e-05
0.000104773
7.20315e-05
6.25743e-05
7.82033e-05
0.000101103
9.87447e-05
6.58765e-05
7.88394e-05
0.000100613
0.000104203
9.36617e-05
7.79892e-05
6.00236e-05
6.46282e-05
6.53959e-05
9.8759e-05
9.11566e-05
8.44274e-05
0.000101731
0.000103537
7.11467e-05
0.000102837
0.000101565
9.9938e-05
7.6463e-05
0.00010274
8.45224e-05
6.66106e-05
7.24816e-05
9.19392e-05
9.59368e-05
8.75586e-05
8.92897e-05
8.1846e-05
0.000101133
6.5568e-05
6.56442e-05
9.33204e-05
0.00010289
9.91589e-05
8.12893e-05
7.93934e-05
0.000101688
0.000106743
8.96606e-05
7.63908e-05
0.000101478
0.00010324
9.2946e-05
0.000103627
0.000103525
9.70523e-05
6.33584e-05
7.84245e-05
6.36388e-05
9.13362e-05
0.000105762
7.87794e-05
6.48488e-05
0.000104813
6.81783e-05
7.75939e-05
6.97742e-05
8.26405e-05
6.60262e-05
9.9319e-05
9.55179e-05
9.19773e-05
8.60739e-05
7.0278e-05
0.000106039
6.66567e-05
9.0389e-05
8.52546e-05
9.31338e-05
6.58962e-05
0.000103735
9.97562e-05
6.42356e-05
7.07056e-05
8.33598e-05
7.76273e-05
9.10033e-05
6.59947e-05
0.000100134
7.87344e-05
9.55042e-05
7.61851e-05
7.6226e-05
7.74174e-05
6.8037e-05
0.000100718
8.12052e-05
3.66966e-05
6.56026e-05
8.36705e-05
0.000104044
0.000100747
7.04867e-05
7.66268e-05
9.90432e-05
6.44267e-05
0.000102106
0.000103605
8.78312e-05
6.90462e-05
0.000100658
6.42994e-05
6.56573e-05
6.33602e-05
9.91722e-05
9.52106e-05
7.57382e-05
0.000101478
9.10263e-05
9.63293e-05
6.5634e-05
5.60579e-05
0.00010359
9.46808e-05
0.000104326
0.000103185
6.57787e-05
9.62958e-05
8.26752e-05
9.1509e-05
9.54053e-05
7.66367e-05
7.66772e-05
0.000110835
9.87545e-05
7.61795e-05
6.64924e-05
8.97509e-05
9.61317e-05
9.35906e-05
7.98653e-05
6.40218e-05
6.74737e-05
8.97199e-05
9.11568e-05
9.00522e-05