/*--------------------------------*- C++ -*----------------------------------*\
| =========                 |                                                 |
| \\      /  F ield         | OpenFOAM: The Open Source CFD Toolbox           |
|  \\    /   O peration     | Version:  2212                                  |
|   \\  /    A nd           | Website:  www.openfoam.com                      |
|    \\/     M anipulation  |                                                 |
\*---------------------------------------------------------------------------*/
FoamFile
{
    version     2.0;
    format      ascii;
    arch        "LSB;label=32;scalar=64";
    class       volScalarField;
    location    "0.004";
    object      p;
}
// * * * * * * * * * * * * * * * * * * * * * * * * * * * * * * * * * * * * * //

dimensions      [0 2 -2 0 0 0 0];

internalField   nonuniform List<scalar> 
31639
(
0.021518
0.0149434
0.0246821
0.0110064
0.0149926
0.0212833
0.023551
0.0225378
0.0161517
0.0136641
0.0234664
0.015168
0.0156555
0.0206631
0.0179312
0.0253127
0.0292616
0.0298958
0.00497074
0.0228336
0.0164931
0.0126519
0.0174622
0.0109377
0.0188395
0.0226262
0.0217881
0.0695143
0.0225611
0.0225417
0.0120932
0.0324233
0.0158659
0.00894225
0.0395134
0.0224872
0.0129637
0.0232639
0.0233611
0.0194599
0.0154846
0.0219095
0.0171465
0.0242172
0.0249385
0.0103514
0.0153174
0.0121322
0.0260501
0.0110723
0.0101557
0.00837557
0.0397933
0.024415
0.00798791
0.030144
0.0132814
0.0217037
0.0150285
0.0104572
0.0114464
0.022077
0.0180979
0.0223792
0.0399898
0.00629218
0.00410585
0.0123405
0.0153382
0.00967753
0.0140463
0.0298082
0.0133626
0.00554476
0.0405446
0.031784
0.0139687
0.0127263
0.0149169
0.0141462
0.0212942
0.0204918
0.0199724
0.0112891
0.0200222
0.0186215
0.0172884
0.0121105
0.00338881
0.0158171
0.00911523
0.0292441
0.0108768
0.014545
0.00689935
0.0217105
0.0117939
0.00828949
0.0155631
0.0207608
0.0374575
0.0374922
0.0187135
0.0140865
0.00799325
0.00989793
0.0206016
0.0108662
0.0120628
0.0190679
0.0236084
0.0208384
0.0219546
0.0127612
0.00569435
0.0232933
0.0394151
0.0241354
0.037519
0.011554
0.0325399
0.0101088
0.00514985
0.0111711
0.0209944
0.0203908
0.0147707
0.0111877
0.0138892
0.0164495
0.0393503
0.00166502
0.0249298
0.00587609
0.00679516
0.0124956
0.0130896
0.0144467
0.0102635
0.011466
0.0114088
0.0169655
0.0183084
0.0103872
0.0156661
0.0201155
0.0382501
0.0128331
0.0193289
0.0403738
0.0116867
0.0267902
0.00850619
0.00752137
0.00938026
0.00749982
0.0053618
0.0141752
0.0267966
0.0124127
0.00670466
0.0292512
0.0127378
0.0220055
0.0318919
0.0316931
0.0241696
0.0274795
0.00851525
0.00579444
0.0277155
0.020859
0.0281383
0.0158046
0.0195476
0.0137707
0.0179143
0.0325007
0.0125701
0.0189375
0.0159408
0.0261301
0.0220473
0.0233746
0.0232552
0.0222107
0.0272259
0.0189976
0.0209619
0.0254485
0.0258103
0.0136176
0.0263471
0.00812587
0.00900496
0.0092668
0.00931433
0.0145991
0.00939496
0.0233367
0.0196434
0.0298688
0.0259723
0.0274391
0.0132969
0.0114242
0.00471809
0.00805821
0.0332136
0.00932111
0.00890346
0.0192278
0.0374012
0.0200302
0.0239335
0.0202073
0.0206022
0.0199793
0.0281366
0.0151881
0.0156312
0.0190281
0.0200154
0.0282322
0.0244288
0.0139453
0.0254946
0.0245689
0.0171171
0.032313
0.00814462
0.0232092
0.029489
0.0255342
0.0266175
0.00448549
0.00446381
0.0268969
0.0220165
0.00796282
0.0114125
0.024166
0.02809
0.026369
0.0116506
0.0303379
0.00883801
0.0316772
0.0256056
0.00461534
0.0013438
0.0106023
0.0262425
0.0304215
0.0147955
0.0157487
0.0216956
0.00677832
0.0215319
0.0247454
0.0103498
0.00839258
0.0148308
0.0206587
0.014808
0.0199851
0.00322289
0.0384971
0.0239183
0.0213458
0.0489672
0.00971654
0.021666
0.0267341
0.0127266
0.0254684
0.00917803
0.0282642
0.0118817
0.0102894
0.0317634
0.0325502
0.0326254
0.0429806
0.0230688
0.0230203
0.0282624
0.0271893
0.00511253
0.0256445
0.0292508
0.00236784
0.00822334
0.00833737
0.0242439
0.00711109
0.0294085
0.00407042
0.0114348
0.0128433
0.0122795
0.0279381
0.00887315
0.00815269
0.0181422
0.00708062
0.0207827
0.00477573
0.0173197
0.0284265
0.0119212
0.0478261
0.0384214
0.0165622
0.015558
0.0218526
0.00407386
0.0330871
0.0253769
0.0249776
0.0242097
0.00997968
0.0369616
0.00792775
0.0196081
0.0271297
0.0240276
0.0269952
0.0086195
0.00992211
0.0100764
0.0108844
0.0283331
0.00820651
0.0297385
0.0397936
0.0404432
0.0122811
0.0274844
0.0308794
0.00688542
0.00338475
0.030111
0.00642908
0.00884733
0.0279073
0.00801664
0.0245286
0.0243781
0.0372805
0.0133578
0.0283769
0.0132584
0.0259363
0.00803106
0.0106802
0.00892499
0.0179409
0.018236
0.0267296
0.0293224
0.0180647
0.0476293
0.00540396
0.0123971
0.0114122
0.00606153
0.0182268
0.0194391
0.0272154
0.0173577
0.0334072
0.0209736
0.00967927
0.00632164
0.0108792
0.038421
0.0318721
0.026617
0.0330089
0.0250322
0.0083757
0.0121578
0.0083308
0.00755868
0.00718448
0.00868923
0.0152054
0.00137164
0.0301414
0.00462443
0.0337994
0.00893643
0.0283697
0.00782312
0.0285494
0.0302181
0.0229945
0.0112467
0.0448079
0.0299696
0.0231004
0.0224734
0.00781449
0.0265946
0.00431519
0.011668
0.0117492
0.0121922
0.0231758
0.0101132
0.0117724
0.0262321
0.04905
0.0242428
0.0267002
0.0191789
0.0207587
0.0185692
0.0154677
0.014947
0.0370917
0.0176597
0.00182403
0.0266277
0.0486677
0.0168397
0.0361205
0.0208626
0.024651
0.0107845
0.00889248
0.028184
0.0102031
0.0223439
0.0224565
0.0272844
0.00666594
0.00819446
0.0293547
0.0123432
0.00462552
0.00526153
0.020222
0.00689237
0.0124679
0.0131574
0.0307497
0.0299582
0.0326918
0.0306313
0.0267315
0.013007
0.0273954
0.012129
0.0295199
0.033275
0.0100807
0.0268825
0.010971
0.0220306
0.0316378
0.0212397
0.00554052
0.025669
0.0723103
0.00551624
0.0170443
0.0113538
0.024979
0.00333228
0.00879959
0.0101786
0.00874261
0.0273744
0.00219788
0.0174139
0.0358982
0.0155583
0.0180128
0.0106947
0.0382188
0.0069582
0.0144199
0.0368467
0.0479183
0.0171444
0.0246563
0.0199681
0.0131797
0.0103265
0.0081978
0.031766
0.00374128
0.0212779
0.0203098
0.0191382
0.00570914
0.00863798
0.0310023
0.0352532
0.00477655
0.0051527
0.00568463
0.00300569
0.0416072
0.011753
0.0046659
0.0333523
0.036927
0.0329607
0.00704523
0.0296282
0.0275648
0.0310731
0.00360603
0.0369143
0.0371733
0.000233713
0.0319451
0.0309004
0.0321554
0.0203469
0.0343954
0.00160582
0.00542943
0.0307275
0.00474587
0.00585797
0.00959951
0.0236201
0.0154701
0.0285538
0.00187797
0.0101639
0.0160792
0.0345854
0.00218744
0.0269781
0.00387245
0.0479279
0.0486838
0.0113598
0.0698758
0.0117117
0.0115733
0.0190205
0.019199
0.0131097
0.0184152
0.0500766
0.0133546
0.0268891
0.00114198
0.0120024
0.0187839
0.0107588
0.0306802
0.00219681
0.00730986
0.0181776
0.00695038
0.0166671
0.0172022
0.0090193
0.0389434
0.00640186
0.00488935
0.00113233
0.0216294
0.0353068
0.00527901
0.000989407
0.00613549
0.00714124
0.00539826
0.0329003
0.000337591
0.00253241
0.00168159
0.0294984
0.00361403
0.0305113
0.0318168
0.0332588
0.00992976
0.000797713
0.000869582
0.00479318
0.00111503
0.0201452
0.0017438
0.0202011
0.0325407
0.00264355
0.0116441
0.0157473
0.0385243
0.0354673
0.0282832
0.0133879
0.006513
0.0371734
0.0319624
0.00275952
0.00299814
0.0137726
0.0227393
0.00962813
0.00224943
0.00048364
0.00166599
0.0309362
0.0256838
0.0118
0.0710738
0.0256535
0.0192251
0.0135535
0.0208546
0.0272131
0.0271267
0.0187113
0.0120146
0.0151913
0.0156921
0.0259106
0.00559704
0.0184582
0.00216525
0.0201136
0.0472417
0.032287
0.0304652
0.0219498
0.0179102
0.0433711
0.0197569
0.0239836
0.00983452
0.0382497
0.0359347
0.00521416
0.0192263
0.0220582
0.000629245
0.0436135
0.0116987
0.00216231
0.00567278
0.00285786
0.0387458
0.0351944
0.0360422
0.00511194
0.000511406
0.0305692
0.0203087
0.0325491
0.0331595
0.0330591
0.00206111
0.000774774
0.0315137
0.0272752
0.0280521
0.033649
0.00196735
0.0117942
0.0488936
0.00683975
0.00359013
0.0343915
0.0191251
0.00837305
0.0312424
0.0309546
0.024751
0.0144633
0.00918707
0.0225388
0.0125419
0.000856605
0.00136884
0.00256013
0.00954737
0.00367187
0.0386693
0.0137032
0.000673914
0.00100034
0.0295856
0.0102993
0.00108039
0.0722456
0.00965521
0.0115265
0.0152121
0.0174477
0.0149475
0.0189343
0.0181858
0.0119034
0.0136018
0.0200252
0.0124281
0.0115814
0.0134126
0.0178049
0.034134
0.0190558
0.0181321
0.0299295
0.0387925
0.0327841
0.00916008
0.0177807
0.00498396
0.0200121
0.0402598
0.00144009
0.00353524
0.00288427
0.0102507
0.01176
0.0296483
0.027992
0.0084888
0.00297883
0.0230364
0.0386327
0.00125557
0.0318152
0.0121918
0.0289778
0.0270639
0.0280997
0.0366412
0.0339106
0.0434009
0.0308667
0.0257128
0.0325993
0.0291136
0.0300831
0.0106855
0.0381693
0.0105467
0.00272634
0.00719368
0.0294964
0.000479552
0.0243813
0.005796
0.0079443
0.0243354
0.0148229
0.036519
0.00684077
0.0255685
0.0081332
0.0423265
0.0120645
0.00147751
0.00190309
0.0345031
0.0227875
0.00141925
0.00355968
0.00242134
0.00747251
0.000610478
0.000419198
0.0292457
0.0281114
0.000522837
0.0278916
0.0252438
0.0300681
0.0163119
0.0163182
0.0131513
0.0211896
0.0219137
0.0101997
0.00155785
0.0192073
0.0268712
0.0195118
0.0368357
0.0326239
0.0192765
0.0314565
0.0121085
0.0489333
0.00561698
0.0321894
0.0188395
0.000559862
0.0215679
0.00556874
0.0111227
0.00480196
0.00523359
0.0244431
0.0344888
0.0085779
0.030904
0.00112162
0.00174121
0.00108849
0.040594
0.0403289
0.0386878
0.0414817
0.0344162
0.0319808
0.0105413
0.00703085
0.0119472
0.00271518
0.022447
0.00988055
0.0269351
0.0145161
0.0113391
0.00366046
0.000387665
0.00826026
0.00448981
0.0361394
0.0155137
0.00842533
0.00793239
0.0149298
0.00172377
0.0252436
0.00809228
0.0317709
0.00561167
0.00413044
0.0207992
0.0209142
0.0318373
0.0381802
0.0336651
0.025733
0.0143765
0.0157429
0.0307196
0.000527701
0.00149188
0.0300017
0.0305374
0.000423698
0.000961876
0.00463394
0.030239
0.00851306
0.0182076
0.0390671
0.0376828
0.0188833
0.0455366
0.0142012
0.0124701
0.012791
0.00855081
0.00520404
0.0315999
0.0053109
0.0191951
0.0233645
0.0360301
0.0113101
0.0126902
0.0119363
0.0290086
0.0295082
0.0296283
0.0417049
0.00372541
0.0335385
0.033367
0.0339772
0.0183159
0.000573895
0.039517
0.0411427
0.0380172
0.0221997
0.0231095
0.0255737
0.0240042
0.0282308
0.0218906
0.00102198
0.0301696
0.0137252
0.00989263
0.0306806
0.00219404
0.00139093
0.00508766
0.00456008
0.0369681
0.0145826
0.00518755
0.00760014
0.0129668
0.0272759
0.0126904
0.0115968
0.0246853
0.0172398
0.00121243
0.0318118
0.0200982
0.0330026
0.0169927
0.00324614
0.0258977
0.0256781
0.00128592
0.0146802
0.0135474
0.00108348
0.0013569
0.031404
0.036171
0.0144486
0.0185364
0.00215464
0.0337275
0.0419276
0.0349348
0.0240464
0.0109769
0.0320838
0.0242419
0.0130855
0.0178213
0.0100468
0.00964766
0.0163913
0.0308351
0.00553054
0.019526
0.0126903
0.0115508
0.000571553
0.0343287
0.0135726
0.0356215
0.00951858
0.0292269
0.0337762
0.016231
0.0165931
0.0353474
0.028566
0.0320054
0.0122928
0.014142
0.0283697
0.027074
0.0213504
0.0223093
0.0332982
0.0339063
0.0446404
0.0260915
0.0296696
0.00170052
0.00139197
0.0302367
0.0276266
0.0138438
0.0326585
0.0046693
0.0233174
0.0254748
0.0322725
0.00386559
0.0331937
0.0302062
0.0358208
0.0340525
0.0357162
0.0166511
0.0306548
0.0133999
0.0230318
0.0226454
0.0216609
0.0370371
0.0344352
0.0332984
0.0280499
0.0151571
0.0200151
0.021945
0.0338763
0.0216445
0.000407323
0.0353405
0.0387115
0.0181216
0.0155174
0.00594958
0.00474276
0.0126906
0.034531
0.0105162
0.0115405
0.0423434
0.0172817
0.00605863
0.00893656
0.000893253
0.0164576
0.0184608
0.0167952
0.0314169
0.00113891
0.0364474
0.0028714
0.035631
0.0343403
0.0419985
0.0159293
0.0159502
0.0140228
0.0265382
0.0232766
0.0277651
0.0426526
0.0310718
0.0330324
0.0214446
0.0263617
0.0155294
0.0272966
0.0239867
0.00511792
0.00440507
0.0196234
0.00209588
0.0138296
0.0365857
0.0386901
0.00701503
0.0356416
0.0233782
0.0373895
0.0199113
0.0209189
0.00303884
0.00153285
0.027134
0.0243126
0.0117113
0.0155883
0.014488
0.0226222
0.0159037
0.0306846
0.0333845
0.0424918
0.032526
0.0351479
0.0212682
0.0149885
0.0175468
0.00140414
0.00276377
0.00575567
0.015428
0.0137526
0.0245473
0.014246
0.0257002
0.0291215
0.0323156
0.0146198
0.0096164
0.0436706
0.0231324
0.038735
0.0384051
0.0169732
0.0394191
0.00414132
0.0322029
0.0101824
0.0186579
0.00737879
0.0146635
0.0156557
0.0372366
0.0373377
0.00101192
0.0338613
0.0402564
0.0465419
0.014948
0.0283836
0.0326727
0.0334258
0.013038
0.0141949
0.0307134
0.0464601
0.0306595
0.0054549
0.027184
0.0456029
0.0263072
0.0260762
0.0252676
0.012031
0.0383116
0.0329139
0.0383656
0.00332886
0.0267415
0.00244409
0.0228963
0.0323693
0.00673487
0.0320689
0.00946425
0.0310136
0.0422546
0.0181045
0.000603926
0.0199756
0.0219541
0.00141261
0.0134353
0.0141065
0.0219314
0.0154864
0.0445911
0.0354375
0.0137633
0.0136616
0.0343906
0.0192101
0.0326848
0.0431416
0.0336523
0.00151219
0.00129436
0.0354133
0.0306545
0.0216699
0.0233816
0.0273637
0.022524
0.023436
0.0381589
0.0337927
0.0406096
0.0303404
0.0266789
0.00402856
0.0396036
0.00500685
0.0146413
0.0365938
0.0392663
0.0316175
0.0162197
0.0143922
0.00058581
0.0339492
0.0214097
0.0361894
0.0196388
0.0380627
0.0406758
0.0254038
0.0271542
0.0161319
0.00779514
0.0444796
0.0210902
0.0272108
0.0206081
0.0192807
0.0279369
0.0449041
0.0256687
0.0246114
0.0483892
0.00400242
0.0379568
0.0232644
0.0467695
0.024232
0.0192906
0.0376963
0.038388
0.00700176
0.0144293
0.00812584
0.00954056
0.0330047
0.0172286
0.0189799
0.000590265
0.0153513
0.0563284
0.0155902
0.0163992
0.0225572
0.0232298
0.0220818
0.0350549
0.0356255
0.0261775
0.0136714
0.0351664
0.0196312
0.0369216
0.0332618
0.0332212
0.0366897
0.0375327
0.0345289
0.013074
0.00122553
0.039421
0.011823
0.0417545
0.0460837
0.0431622
0.0156262
0.039479
0.0265203
0.00416872
0.00348741
0.00538215
0.0354157
0.0369399
0.03652
0.0336711
0.0404217
0.0158676
0.0138043
0.0366873
0.0413591
0.0195622
0.0367246
0.0391007
0.0258645
0.0149371
0.0445536
0.0393763
0.034196
0.0277232
0.0353571
0.0286795
0.0382312
0.00325654
0.0285255
0.0341794
0.0394742
0.0280376
0.0367346
0.0185916
0.0469945
0.0297575
0.00404239
0.0356753
0.00839848
0.000519599
0.00785784
0.0279464
0.0236402
0.0274581
0.0352761
0.0382451
0.0147289
0.0305003
0.0173668
0.0238843
0.0221127
0.0222174
0.0135074
0.0360697
0.0243472
0.0250458
0.0360573
0.0257308
0.0125861
0.0122406
0.0251981
0.0265747
0.0241171
0.0339084
0.0343891
0.00199343
0.0237248
0.0359668
0.0346449
0.0247156
0.0250486
0.020754
0.0258149
0.0457575
0.00206159
0.0122171
0.0374784
0.00555003
0.0165678
0.0177741
0.0169662
0.0424599
0.0446
0.00516432
0.0454911
0.040527
0.0291982
0.0288565
0.0412395
0.02991
0.0382273
0.0356516
0.00703037
0.0159387
0.0432902
0.000593516
0.0010556
0.0414639
0.0385441
0.00627945
0.0406936
0.0297514
0.0262881
0.0168456
0.0388899
0.0382466
0.0135309
0.0360424
0.0334254
0.0296159
0.0262893
0.0016115
0.00264802
0.00178887
0.0299753
0.034609
0.0218021
0.0396115
0.0437783
0.0212664
0.0191924
0.0134478
0.00785952
0.0479997
0.000406133
0.00542241
0.0175931
0.00214852
0.000592241
0.00108291
0.0183319
0.0134589
0.00164571
0.0601965
0.0375414
0.0288325
0.044181
0.024528
0.0474065
0.00732832
0.0150679
0.015588
0.0457661
0.0456996
0.0245015
0.0126827
0.0260149
0.0233286
0.030607
0.0283033
0.0297367
0.0343141
0.00292962
0.0365824
0.0373773
0.0374187
0.036668
0.0303826
0.030225
0.0232276
0.0210616
0.039565
0.0345407
0.0109207
0.00854299
0.0231321
0.0331173
0.0442872
0.0109817
0.0121323
0.0131834
0.0329352
0.0416659
0.0437037
0.0429717
0.00343351
0.00173038
0.0409827
0.00135598
0.0404659
0.041745
0.00833832
0.0114937
0.00505802
0.0395213
0.0147645
0.0345351
0.0271507
0.0271293
0.0422311
0.0430475
0.0193049
0.0473003
0.0468435
0.0316729
0.029311
0.000373791
0.000977481
0.0322651
0.0294823
0.0358579
0.0466042
0.0707849
0.0473894
0.0368071
0.0475135
0.0376536
0.00464973
0.0346768
0.039904
0.00509842
0.0372612
0.00901521
0.00106967
0.0365793
0.00163685
0.0171447
0.0184497
0.0181615
0.0168105
0.000566842
0.00357873
0.011852
0.0448681
0.041992
0.0303016
0.0176633
0.0227455
0.0143826
0.0182273
0.0130747
0.0172188
0.0169906
0.0154619
0.0318312
0.0270484
0.0372864
0.0272581
0.0367343
0.00261871
0.0358874
0.00159054
0.0479244
0.0375295
0.0240315
0.0309066
0.0146424
0.019433
0.00654464
0.00529873
0.0119077
0.00800985
0.0218462
0.036143
0.0166296
0.0280193
0.0256993
0.0106094
0.0254298
0.0446968
0.00234668
0.0057664
0.00215861
0.0291388
0.0421504
0.0337359
0.0108291
0.00873955
0.0413222
0.00543414
0.0416997
0.0398142
0.0720455
0.0415581
0.0413151
0.0470991
0.0441654
0.0424042
0.0331566
0.00841455
0.0341577
0.00794596
0.0348297
0.0363725
0.000331761
0.0445401
0.0203988
0.00405416
0.0350168
0.0438316
0.0344772
0.0396989
0.0346207
0.0173068
0.0211631
0.0330938
0.0372112
0.0408763
0.043876
0.00143321
0.00578534
0.0276879
0.0370385
0.0347476
0.030686
0.0317872
0.00216109
0.030717
0.0163558
0.0172953
0.0165221
0.014712
0.0194445
0.0234968
0.000961483
0.0376577
0.039374
0.0336364
0.00192135
0.0390917
0.0236396
0.0248628
0.0285269
0.0294327
0.0347468
0.0271363
0.0611363
0.00691399
0.0243318
0.037996
0.0293636
0.0294462
0.00575101
0.0271551
0.0419507
0.0476151
0.0346204
0.0158063
0.0409342
0.0144977
0.0267886
0.0434454
0.0460979
0.0270402
0.0463559
0.0456007
0.0458647
0.0424591
0.0286882
0.044446
0.0420645
0.0362905
0.0163157
0.0329073
0.0127246
0.00394882
0.0340433
0.0104142
0.0429214
0.0438487
0.0426598
0.0401055
0.0250368
0.039824
0.0452669
0.0141087
0.00959545
0.0194895
0.0484348
0.0329644
0.0321359
0.00832638
0.0074869
0.0377255
0.00233128
0.0230632
0.0477029
0.0406695
0.0348598
0.0357052
0.0213692
0.0188007
0.00503183
0.0371508
0.000781298
0.0134118
0.0411267
0.0019608
0.00506604
0.00727126
0.0103688
0.00620823
0.0295679
0.0322853
0.0382609
0.0248345
0.0151641
0.0558097
0.0153809
0.0176778
0.0187471
0.0397658
0.0357677
0.0452646
0.0407043
0.0131037
0.0224379
0.0221886
0.0219685
0.0258253
0.0311191
0.0315674
0.0365032
0.0347975
0.0319509
0.0234019
0.0176023
0.0182689
0.00443825
0.0342445
0.0411178
0.0142738
0.00593925
0.0615232
0.0230297
0.041781
0.0279271
0.0425868
0.0511447
0.032534
0.0146623
0.0125055
0.027221
0.0448756
0.0434083
0.0110974
0.0483176
0.000865748
0.000272709
0.0415678
0.0460378
0.0229813
0.018957
0.0389852
0.0100522
0.0434103
0.0465997
0.0184485
0.0380183
0.0399837
0.0591606
0.0103388
0.0449742
0.026252
0.0271134
0.0372579
0.0443758
0.00536159
0.0352106
0.0480688
0.0471239
0.0500642
0.0105912
0.0392642
0.0375623
0.00516541
0.030722
0.0448242
0.0318781
0.00474577
0.0136832
0.0293448
0.00928603
0.0317406
0.0139077
0.00123308
0.00155759
0.0196886
0.00550703
0.0425465
0.0248061
0.0108808
0.0187686
0.0443436
0.0442581
0.0393577
0.0408909
0.0434457
0.0251145
0.00457025
0.00928508
0.0213919
0.0369694
0.0370686
0.0381873
0.0386199
0.026509
0.0256747
0.0232547
0.0321836
0.0285201
0.0286809
0.0308689
0.0472422
0.034037
0.0367982
0.0314615
0.0351319
0.0351589
0.0176243
0.0342203
0.0264289
0.0161485
0.023869
0.0546143
0.0269301
0.060581
0.0355893
0.0103491
0.0162157
0.0311172
0.0515082
0.0287672
0.0270614
0.0119141
0.0357451
0.00144661
0.00315592
0.00093141
0.0444709
0.0441365
0.0448524
0.022917
0.0487476
0.00842814
0.0460799
0.046563
0.0449438
0.00466264
0.0513954
0.0450529
0.00359362
0.0482904
0.0271014
0.0281043
0.0269901
0.0370868
0.0405461
0.033122
0.0346729
0.0368134
0.0224284
0.022285
0.00576133
0.0466727
0.0368822
0.0422927
0.0319099
0.0407422
0.0460011
0.0169056
0.0439945
0.00434074
0.03251
0.0150327
0.00187977
0.000683105
0.0192846
0.0410865
0.0154933
0.0373324
0.0379111
0.0124981
0.0399716
0.0152987
0.047936
0.0380876
0.0471163
0.0355234
0.0192515
0.0377387
0.0394636
0.0443292
0.00991669
0.0388207
0.0384751
0.0407354
0.0438221
0.0312725
0.0409899
0.0332189
0.00457494
0.0392449
0.0101221
0.0295024
0.0310812
0.0212849
0.0341566
0.051945
0.0260116
0.0241617
0.0250043
0.017451
0.0331026
0.0122494
0.0216867
0.0408638
0.0193572
0.0380253
0.011356
0.0411156
0.0340312
0.0105011
0.0288603
0.0430621
0.0110959
0.0336886
0.0220581
0.00288857
0.000822152
0.0030677
0.0432426
0.0281012
0.0322759
0.0243056
0.0239409
0.0429063
0.0469506
0.0452525
0.0344424
0.0445795
0.0362447
0.0475592
0.024406
0.0483109
0.0478737
0.0475909
0.0463228
0.0450625
0.00513442
0.0373815
0.0449622
0.034468
0.0310008
0.0502771
0.0450307
0.0225673
0.0467644
0.00473349
0.0426964
0.0444472
0.0312744
0.0292134
0.0402259
0.0417924
0.0402014
0.0020696
0.0472226
0.0354831
0.0129631
0.00117406
0.046425
0.0141314
0.00590186
0.00405925
0.000560484
0.0331472
0.0104406
0.056249
0.0167016
0.0399276
0.0211519
0.0158823
0.0229748
0.0385485
0.0164527
0.0461278
0.0380624
0.0223978
0.0436118
0.0385576
0.0330596
0.0519222
0.0348971
0.0446426
0.0286296
0.0483799
0.0281553
0.0278363
0.00577526
0.0355924
0.0344862
0.0363203
0.0421608
0.0304694
0.0484874
0.0363041
0.0351237
0.00481311
0.0107668
0.0487281
0.0255528
0.00952341
0.0259904
0.0645394
0.015211
0.0504543
0.0112527
0.00211936
0.0186916
0.0198001
0.017685
0.0334665
0.0102678
0.0308387
0.0384657
0.0277119
0.0092956
0.0102741
0.0454332
0.00267335
0.033952
0.0316574
0.0211499
0.0424894
0.0506117
0.0217391
0.0424929
0.0394807
0.0351394
0.000617983
0.0338598
0.0380228
0.045203
0.0462866
0.0523403
0.0485055
0.00580602
0.00388505
0.0490316
0.0059324
0.0437635
0.0470226
0.0436621
0.00909596
0.053458
0.0204962
0.0390294
0.046932
0.0421224
0.0433403
0.0417637
0.0395313
0.0362401
0.0213047
0.0398377
0.029871
0.0035409
0.0192004
0.04357
0.0394544
0.0512646
0.0542732
0.00318363
0.0283764
0.00465738
0.00853079
0.0457793
0.00860275
0.00733054
0.0480739
0.0106697
0.0180796
0.0277599
0.0459914
0.000587716
0.045591
0.0389021
0.0218655
0.0447875
0.047116
0.0240573
0.044595
0.0361015
0.0483633
0.044352
0.0437619
0.0319795
0.0494712
0.0345536
0.00971731
0.0104871
0.0481985
0.0361049
0.0441301
0.053401
0.0394935
0.042404
0.0527814
0.0101733
0.0480997
0.0472621
0.0483107
0.0265212
0.06984
0.0080043
0.0136004
0.021201
0.0193576
0.0520926
0.0154591
0.0381233
0.0299012
0.0315498
0.0291038
0.0107263
0.0196131
0.0124961
0.0451021
0.00223563
0.0478999
0.0488851
0.0500425
0.0230872
0.0409805
0.0617944
0.038312
0.00338788
0.0437977
0.0148092
0.0183477
0.0507427
0.0234533
0.0503921
0.05072
0.0338707
0.00546729
0.0450882
0.0433257
0.0450351
0.0337542
0.0443912
0.0444705
0.0428202
0.0376659
0.0388461
0.0398368
0.0399965
0.0331223
0.0307113
0.00284145
0.046309
0.027901
0.0294227
0.0325878
0.0166105
0.0137561
0.0557477
0.0433974
0.039521
0.0506124
0.0522118
0.0193955
0.00797868
0.013334
0.0546731
0.0281539
0.0142584
0.0464796
0.0121148
0.0405556
0.0232503
0.0102968
0.00989658
0.0384504
0.0223175
0.0419065
0.00172483
0.0369747
0.00405421
0.0394271
0.022789
0.0332628
0.0339036
0.0324123
0.0418525
0.0406534
0.0456555
0.0141696
0.0635069
0.0611898
0.0534866
0.0363425
0.0361838
0.0282573
0.0381293
0.0428679
0.045214
0.0516592
0.000397604
0.0199572
0.021973
0.0689978
0.046152
0.00537613
0.0469866
0.00608095
0.0269618
0.0308628
0.0188948
0.0137343
0.0538217
0.0430704
0.0144455
0.0291496
0.0553568
0.0186259
0.0117175
0.00111463
0.0268605
0.00382517
0.0500276
0.0115284
0.0527364
0.0634311
0.0155064
0.0440025
0.000601736
0.000637189
0.0151616
0.051285
0.0510787
0.0488628
0.0431095
0.00321604
0.0331227
0.0715927
0.032168
0.0428902
0.0410014
0.0425652
0.0433495
0.0341187
0.0476139
0.0416552
0.0143591
0.00344571
0.00374733
0.00384445
0.0399862
0.0448158
0.0250702
0.0447955
0.0104558
0.0108906
0.0124696
0.0387456
0.0521881
0.0515523
0.054225
0.0302758
0.0151725
0.0474836
0.0142627
0.0382021
0.0415583
0.0431319
0.023333
0.0473942
0.0213353
0.0391627
0.0405788
0.0389591
0.0203569
0.0289971
0.0724576
0.018024
0.00459234
0.0373359
0.0316334
0.0392883
0.0258227
0.0302809
0.0321257
0.0341409
0.0281747
0.0413973
0.0606115
0.0311779
0.0468054
0.0213392
0.0380109
0.02905
0.0369355
0.0395983
0.037907
0.0512246
0.00717438
0.0505513
0.0329842
0.00152853
0.0217056
0.0526312
0.0468892
0.0279924
0.00648836
0.0426632
0.0150405
0.0544288
0.0151426
0.0438909
0.0415223
0.0493041
0.0370841
0.0452034
0.0307246
0.00499439
0.0403596
0.00450904
0.0494984
0.000687896
0.00162855
0.0103732
0.00376611
0.0337264
0.00168468
0.0548545
0.0551882
0.0462051
0.0475022
0.052036
0.0519238
0.0502
0.0511746
0.0140455
0.0551557
0.0502751
0.0109493
0.0473132
0.0583345
0.0328336
0.000509747
0.0453164
0.0495953
0.0427175
0.0393442
0.044475
0.053214
0.0051388
0.0469021
0.00221071
0.00137827
0.000472583
0.0405348
0.0287151
0.0123637
0.0236921
0.0463643
0.0689492
0.0323827
0.0425344
0.0438761
0.0528931
0.00397657
0.0721897
0.0487307
0.0139282
0.0346612
0.0169175
0.0362423
0.0448872
0.0171078
0.0483461
0.0374969
0.0202657
0.0318373
0.0194973
0.0392657
0.032106
0.0509202
0.0520335
0.0149079
0.0270096
0.0324808
0.0318809
0.0435117
0.0619103
0.0220738
0.0434148
0.0328521
0.0218739
0.0280602
0.0553681
0.0307085
0.0286451
0.000297427
0.058793
0.0578319
0.00201316
0.0474604
0.00358882
0.0358161
0.0548277
0.00811034
0.0505264
0.0509366
0.0536906
0.0518025
0.041584
0.0424113
0.0465196
0.0125432
0.0445859
0.0149942
0.00394832
0.0235123
0.00632036
0.0422729
0.0461315
0.019494
0.0196921
0.0238324
0.0537961
0.0060163
0.0457731
0.0273821
0.0531091
0.037472
0.0521873
0.0500359
0.0558485
0.0500666
0.00220005
0.0329729
0.0495656
0.0342242
0.0449166
0.0434007
0.00866328
0.0518746
0.0395011
0.0547806
0.000392762
0.0499643
0.0119982
0.0268168
0.00352757
0.0423206
0.0416448
0.0645286
0.0391512
0.0129088
0.0488592
0.0466936
0.00155858
0.00108383
0.0638517
0.0436126
0.0151301
0.0710724
0.0170634
0.0271804
0.0474652
0.000772855
0.00518992
0.0717307
0.0137063
0.020347
0.0203761
0.0337386
0.046585
0.0267696
0.0194047
0.0471771
0.0533326
0.0498458
0.0461777
0.0270061
0.0464912
0.0326425
0.0195438
0.0408815
0.0402541
0.0330102
0.0369897
0.0268036
0.0251104
0.0468719
0.0484995
0.0489655
0.0407359
0.0578498
0.0391929
0.0407255
0.0382416
0.0399593
0.0486192
0.0348074
0.00765977
0.0530041
0.05142
0.0477056
0.00802517
0.0457709
0.0395411
0.0444483
0.0400588
0.0545711
0.0475198
0.00617468
0.01914
0.0538189
0.0545199
0.0589656
0.00486608
0.0264467
0.0180871
0.0500641
0.048414
0.0521093
0.058242
0.058502
0.0504013
0.0576585
0.0496598
0.0490196
0.0315495
0.0518113
0.043948
0.0573957
0.0702477
0.0433516
0.0405688
0.0719854
0.0359045
0.025673
0.0537437
0.029329
0.0573362
0.00177512
0.0448067
0.0273832
0.0667762
0.0427736
0.0405162
0.0549656
0.0261928
0.00181
0.0241844
0.0674768
0.000903736
0.000341902
0.0439943
0.0170149
0.0181435
0.0180094
0.0129663
0.0111184
0.0122573
0.0104275
0.019545
0.0512486
0.057603
0.00595083
0.0516131
0.04595
0.00484262
0.0426276
0.0529812
0.053703
0.0300744
0.0371074
0.028432
0.0521215
0.0296517
0.04587
0.0406169
0.0300749
0.0418985
0.0515687
0.0290324
0.0289572
0.0414484
0.0408177
0.0342573
0.0560472
0.00663509
0.0587246
0.0352365
0.0303561
0.0336698
0.0529823
0.0229909
0.0177495
0.0537103
0.0473369
0.048453
0.0518282
0.0668327
0.0602812
0.0537263
0.0483083
0.0527982
0.0558549
0.0539821
0.0332091
0.0562749
0.0541853
0.0155044
0.0485709
0.0358986
0.0565886
0.0467349
0.0556363
0.0278699
0.04999
0.0351499
0.0408991
0.0520532
0.0565125
0.0153495
0.045814
0.0362213
0.0353425
0.0371115
0.0581074
0.0468841
0.0494421
0.00110714
0.0420417
0.000439934
0.0498498
0.00438045
0.0681465
0.0168207
0.0348986
0.0135772
0.0131955
0.0118651
0.0453558
0.0494527
0.0340947
0.0347537
0.0450353
0.0308292
0.0521145
0.0531893
0.038562
0.0585383
0.0510116
0.0590081
0.0513189
0.0475904
0.0550818
0.0308292
0.0399755
0.0415339
0.0328676
0.00754163
0.0554721
0.0546896
0.0650622
0.0166284
0.0509254
0.0449506
0.0175566
0.0407297
0.0503411
0.0439932
0.057456
0.0544601
0.0520418
0.0570008
0.0419619
0.0544338
0.0561491
0.054678
0.0536624
0.0444104
0.0496969
0.0394507
0.0582081
0.0485268
0.0720116
0.070958
0.0467835
0.0574577
0.0461813
0.045067
0.0442307
0.0370779
0.0532315
0.046797
0.050897
0.053487
0.058494
0.0510923
0.0436727
0.0487812
0.0487708
0.0572834
0.0468757
0.0503967
0.0536364
0.0558236
0.00410153
0.0509053
0.00527759
0.00610515
0.00648649
0.00298002
0.0504597
0.0108397
0.00096634
0.0367707
0.0502203
0.068877
0.0699803
0.0577804
0.0460936
0.0562424
0.0307164
0.0639973
0.0411197
0.0448664
0.0491444
0.0531827
0.034562
0.0526436
0.0545191
0.039187
0.0421962
0.0547712
0.042851
0.0634308
0.0550462
0.0610361
0.0186663
0.00297736
0.05086
0.050281
0.0492755
0.061325
0.0522988
0.0628292
0.0519585
0.0560673
0.033183
0.0584626
0.0421996
0.0565014
0.0444485
0.0569326
0.0584413
0.0350523
0.0515677
0.0383732
0.0538089
0.0378161
0.0541137
0.0469457
0.0450656
0.0545475
0.0520321
0.0472638
0.0517007
0.0359351
0.0628031
0.0488276
0.052198
0.0536088
0.0556115
0.0150174
0.037556
0.0563018
0.00523794
0.00752382
0.0577124
0.0505405
0.000644018
0.0685163
0.0454903
0.0637158
0.0500101
0.0436144
0.0435975
0.0597006
0.049779
0.0426044
0.0450328
0.0485584
0.0501053
0.0496014
0.064469
0.0550419
0.0553746
0.0371846
0.0372056
0.0583225
0.0468351
0.0551856
0.0554176
0.0626924
0.0687733
0.0658844
0.0437919
0.0583989
0.0461346
0.0540908
0.0527949
0.0452684
0.020576
0.0576102
0.0700362
0.0561124
0.0430603
0.0496637
0.0430621
0.0712398
0.0396817
0.051034
0.0431959
0.0453866
0.0542113
0.0573802
0.0459089
0.055094
0.0538484
0.0486908
0.0557691
0.05418
0.054149
0.0483637
0.0581678
0.0586132
0.0575844
0.049511
0.0563463
0.0569856
0.0565357
0.0171045
0.0575914
0.0410069
0.0419476
0.0520511
0.0625545
0.0413943
0.0502564
0.0584248
0.0492378
0.050789
0.0430835
0.0659467
0.0484828
0.0572899
0.0413603
0.0412723
0.0501553
0.0578729
0.0410484
0.0494847
0.0484212
0.0571047
0.0582785
0.0487695
0.0496126
0.0620757
0.0623351
0.0510475
0.0612327
0.0605408
0.0539171
0.0614412
0.0251265
0.0614753
0.0577037
0.0565772
0.0572374
0.05502
0.0574975
0.0638625
0.0518569
0.0575417
0.0453822
0.0526335
0.0468637
0.0540853
0.0541593
0.0660196
0.0552103
0.0655568
0.0658183
0.0467619
0.053723
0.0558519
0.037627
0.0482508
0.0500923
0.0502108
0.0636137
0.055417
0.0430765
0.0492389
0.0404948
0.0590892
0.0410168
0.0428964
0.0490514
0.0506109
0.0511378
0.0573587
0.0564117
0.0574462
0.0475587
0.0420898
0.0446446
0.0561422
0.0585111
0.0386112
0.0576041
0.0656237
0.0607688
0.0482651
0.055947
0.0547234
0.0568094
0.052877
0.052087
0.0643204
0.0481614
0.0519219
0.0610936
0.0476506
0.0552708
0.0566715
0.0459332
0.0565655
0.0369855
0.0545656
0.0587885
0.0521916
0.0604706
0.0596767
0.0250223
0.0504807
0.0633709