/*--------------------------------*- C++ -*----------------------------------*\
| =========                 |                                                 |
| \\      /  F ield         | OpenFOAM: The Open Source CFD Toolbox           |
|  \\    /   O peration     | Version:  2212                                  |
|   \\  /    A nd           | Website:  www.openfoam.com                      |
|    \\/     M anipulation  |                                                 |
\*---------------------------------------------------------------------------*/
FoamFile
{
    version     2.0;
    format      ascii;
    arch        "LSB;label=32;scalar=64";
    class       surfaceScalarField;
    location    "0.004";
    object      phi;
}
// * * * * * * * * * * * * * * * * * * * * * * * * * * * * * * * * * * * * * //

dimensions      [0 3 -1 0 0 0 0];

oriented        oriented;

internalField   nonuniform List<scalar> 
68568
(
-1.31016e-07
1.35854e-07
-2.55562e-08
2.07178e-08
1.26772e-07
-6.43301e-08
-6.79249e-08
5.48298e-09
1.5237e-07
-1.16907e-07
-5.18672e-08
1.64034e-08
-4.17599e-09
2.22606e-09
-1.44077e-07
1.46027e-07
-1.40198e-09
1.22401e-07
1.14806e-09
-1.22147e-07
1.2119e-07
-3.92892e-10
-1.10885e-07
-9.91139e-09
7.27411e-08
-7.96363e-08
1.1574e-07
-1.08845e-07
-3.40813e-08
-2.30819e-08
1.29904e-07
1.13701e-07
-1.37225e-08
-9.61001e-08
-3.87844e-09
1.30317e-07
4.54715e-08
-4.90159e-08
8.6606e-08
1.18859e-07
-5.30949e-08
-5.59745e-08
-1.72706e-07
1.6435e-07
-1.22345e-07
5.98148e-08
-5.39505e-09
1.57339e-07
-1.62312e-07
1.20666e-08
-7.09284e-09
-6.22505e-08
-4.51387e-08
1.06197e-07
1.19224e-09
1.11591e-07
7.89438e-08
-1.16549e-07
-7.39864e-08
-4.42527e-08
-6.86829e-08
1.00413e-07
1.25222e-08
1.01361e-07
-1.05716e-07
-3.98975e-08
9.75494e-08
-4.40788e-09
-1.64626e-10
-9.29769e-08
7.49255e-08
-1.34339e-07
6.67407e-08
-7.32711e-09
1.02054e-07
-3.55746e-10
-1.01795e-07
9.67399e-11
-1.49106e-08
7.74172e-09
1.21173e-07
-1.14004e-07
-3.99442e-08
1.64152e-07
-2.36413e-08
-1.00566e-07
-4.1032e-10
-1.92474e-10
-1.19641e-07
1.20244e-07
-6.79639e-08
-4.28732e-08
1.04687e-07
6.15037e-09
-8.56061e-08
-3.50193e-08
-1.03903e-08
-5.68624e-08
1.23912e-07
7.87583e-09
6.70354e-08
4.10151e-08
-2.60214e-08
-8.2029e-08
-5.94058e-08
-9.05805e-08
1.15905e-07
4.18366e-08
-1.04754e-07
3.51187e-09
1.32227e-07
-7.12616e-08
-1.2447e-07
6.35052e-08
-1.17969e-08
2.43507e-09
1.05933e-07
-9.65708e-08
1.35736e-07
-2.87775e-08
-9.48722e-09
-9.74717e-08
1.07372e-07
-8.32686e-08
-5.15333e-08
2.743e-08
-1.58221e-10
9.94725e-08
-9.92785e-08
-3.58305e-11
1.05361e-07
7.74591e-08
-7.77522e-08
7.62434e-10
-4.69415e-10
3.70837e-08
-1.37649e-07
8.03647e-08
2.02003e-08
-1.41891e-07
1.23898e-07
5.50769e-08
-6.78171e-08
9.65189e-11
-2.43273e-10
-8.11039e-10
1.03555e-07
-6.89451e-10
1.01648e-07
-1.01392e-07
-2.28674e-10
-2.76744e-11
-2.31666e-08
-1.39122e-07
1.04515e-07
1.67882e-07
-1.29023e-07
-1.43374e-07
-5.30235e-08
-9.0034e-08
2.54649e-07
-1.26192e-07
1.43132e-07
-1.20564e-07
1.03624e-07
-1.1008e-07
5.90581e-08
-4.95266e-09
1.00731e-07
-9.83589e-08
-3.14127e-09
7.68803e-10
8.67343e-08
2.24005e-08
9.92289e-09
-1.19058e-07
1.85888e-09
-1.33831e-07
1.29437e-07
3.01629e-08
-2.57688e-08
-7.29504e-09
-8.54387e-08
9.21742e-08
5.5963e-10
-1.82933e-07
1.2086e-07
1.59077e-07
-9.59151e-08
-3.53509e-10
-3.38988e-10
1.61651e-09
-1.30201e-09
9.51999e-08
-9.55144e-08
3.50551e-08
-1.02092e-07
-1.64644e-09
8.35207e-08
-8.93465e-08
3.19257e-09
2.63327e-09
-7.5187e-08
1.24718e-07
-5.53158e-08
5.78493e-09
1.28896e-07
-6.70811e-08
-6.50371e-08
3.22197e-09
8.29334e-08
-8.30056e-08
-3.38174e-10
-9.84497e-08
-1.77558e-09
1.02451e-07
6.61649e-08
6.26719e-08
-6.60694e-09
-1.2223e-07
-4.98397e-09
1.21726e-07
-1.17337e-07
5.94913e-10
7.81894e-08
-1.32034e-07
-3.01773e-09
9.58156e-08
-1.58944e-08
2.91967e-08
-1.09118e-07
1.29448e-07
-1.99938e-08
-1.4744e-07
3.79853e-08
3.69358e-08
7.14573e-08
-1.08437e-08
5.67619e-08
-1.12461e-07
6.19552e-08
-6.25578e-09
1.20954e-07
-1.22404e-07
4.7615e-11
-8.71798e-08
1.24076e-07
-2.74603e-08
-9.43606e-09
-1.79328e-07
-1.3328e-07
2.52836e-07
5.97719e-08
-1.01181e-07
4.88981e-09
1.01814e-07
-6.35759e-09
1.19626e-07
-1.26649e-07
-4.66221e-08
5.36445e-08
-1.10219e-07
5.71089e-08
5.91289e-08
-6.01869e-09
-8.88826e-08
-4.28161e-08
-4.28853e-08
-9.245e-08
9.23787e-08
7.18594e-11
-6.67921e-13
3.44622e-08
1.52283e-07
-5.78493e-08
9.48309e-08
-5.51408e-08
4.38305e-08
-6.43604e-08
-7.11678e-08
1.31588e-07
3.93988e-09
-3.77175e-10
-1.91402e-07
-3.23756e-10
1.92103e-07
6.7724e-08
-4.14647e-08
7.53891e-08
2.0078e-11
5.97889e-08
-5.97349e-08
-7.41005e-11
-1.67781e-08
1.23169e-07
5.77331e-08
-1.64124e-07
1.48915e-07
-7.51124e-08
-7.83241e-08
4.52119e-09
1.06323e-07
3.28876e-08
-3.16227e-08
-1.07588e-07
1.41676e-07
-6.75458e-08
6.69169e-08
-1.41047e-07
3.06205e-08
1.1395e-08
9.9661e-08
-7.80042e-08
7.4489e-08
-1.40561e-07
1.13066e-07
3.02863e-10
-1.0971e-07
-3.65794e-09
-3.435e-08
-2.44695e-07
1.68966e-07
7.40995e-08
7.48893e-08
-5.85637e-09
-5.12032e-10
3.99968e-10
8.24208e-08
-8.23088e-08
-1.11346e-07
1.11525e-07
-3.71165e-10
-5.2995e-08
1.06293e-07
5.76041e-09
6.24079e-09
7.71254e-08
-3.98621e-09
-7.93799e-08
-1.1266e-07
5.01274e-08
7.87982e-08
-1.62654e-08
-3.91756e-08
-7.15383e-08
-8.92699e-09
-7.22972e-08
1.41427e-07
4.9701e-09
6.39773e-08
6.66701e-08
-1.26034e-07
-4.61325e-09
1.03506e-07
6.31102e-10
-1.03681e-07
-4.5564e-10
-4.0862e-09
-1.2012e-07
-1.2024e-08
1.24471e-07
-7.79458e-10
1.02192e-07
-1.05222e-07
5.08946e-08
-6.82194e-09
8.8911e-08
-6.31797e-10
-8.71636e-08
-1.11559e-09
1.09591e-07
-6.0232e-10
1.192e-07
-3.99681e-08
6.96835e-08
-7.30821e-11
-9.38655e-08
-3.15319e-09
1.01434e-07
-4.41513e-09
8.29763e-08
-4.46929e-08
-8.18488e-08
1.58677e-11
8.21019e-08
-2.69066e-10
-3.0706e-08
-1.19943e-07
1.28661e-07
2.19884e-08
-1.22234e-09
1.1734e-07
-1.1579e-07
-3.28447e-10
-7.69302e-08
-3.24292e-08
1.10179e-07
-8.1973e-10
-4.11673e-09
2.29216e-09
-9.66251e-08
-1.43663e-07
7.77334e-08
7.15361e-08
-5.60607e-09
2.57684e-10
-9.20221e-08
9.20441e-08
-2.79643e-10
1.20963e-07
-2.61061e-10
-4.32922e-11
-9.74649e-08
1.03107e-10
9.74052e-08
-9.5762e-08
1.83013e-08
8.95172e-08
1.15647e-07
-6.34083e-08
4.52286e-09
1.23471e-07
-1.22908e-07
-1.236e-08
-1.09831e-07
1.2362e-07
1.63604e-08
-3.01492e-08
6.29792e-08
-6.49238e-08
1.31393e-07
3.71152e-09
9.88788e-08
1.32697e-07
-1.25049e-09
-1.32669e-07
5.99954e-08
-1.24876e-07
-3.82776e-09
6.87086e-08
1.26412e-07
-6.96301e-08
7.1952e-09
9.10436e-08
-8.91077e-08
-1.01797e-07
5.0953e-08
-2.69078e-08
-1.32252e-07
1.26612e-07
-1.68318e-08
2.2472e-08
1.429e-07
3.88446e-08
-3.80751e-08
-1.43734e-07
-6.49439e-08
-2.59329e-08
7.06259e-08
2.0251e-08
-1.143e-07
6.01198e-08
-4.7275e-08
1.01455e-07
-1.33202e-07
-2.66972e-09
1.38344e-07
-2.47231e-09
-9.4776e-08
1.74055e-08
-5.58312e-08
-1.43628e-07
-5.63779e-09
8.62084e-08
-1.4141e-09
-1.01729e-07
-4.45817e-10
-9.48293e-08
1.23297e-07
-6.48279e-08
5.48607e-09
1.37262e-07
-7.26119e-08
-7.05428e-08
5.89311e-09
-1.16383e-07
1.57231e-07
-4.02287e-08
-6.19411e-10
7.31713e-08
-7.28078e-08
-1.16746e-07
8.64498e-08
6.84277e-09
-2.24892e-09
5.76271e-10
9.47227e-08
-9.46656e-08
-6.33383e-10
1.65441e-07
-4.20627e-08
-9.04905e-08
-9.60962e-08
1.20235e-07
1.04225e-07
-9.94259e-08
-2.50669e-09
-1.37799e-09
9.28225e-08
-9.15576e-08
1.1316e-10
-7.94703e-09
-1.18791e-07
1.15574e-07
1.1164e-08
-1.24746e-07
1.40657e-07
-9.43528e-09
-6.47572e-09
1.07193e-07
6.93097e-10
-1.08418e-07
9.56977e-09
-6.78266e-09
-8.58141e-08
8.53018e-08
2.90075e-08
-5.69992e-09
-1.18084e-07
-1.86971e-08
1.00304e-07
-7.55148e-08
-6.09156e-09
1.3802e-07
-5.65324e-09
-1.16759e-08
-1.20691e-07
1.36327e-07
8.43668e-11
-1.66835e-09
-1.34743e-07
1.22443e-07
-1.36627e-09
-1.22625e-10
1.16673e-07
-1.17015e-07
3.64078e-10
-2.18219e-11
-1.10392e-07
-7.4562e-08
1.13416e-07
1.85823e-08
-1.48795e-07
-1.00585e-07
1.0067e-07
-9.37459e-11
8.68681e-12
-1.20436e-07
-6.43968e-09
2.12989e-09
-9.28746e-08
2.60176e-13
9.31369e-08
-2.62537e-10
-1.10832e-07
-2.90517e-10
1.11324e-07
-2.01129e-10
-1.4449e-08
1.17931e-07
-9.41352e-08
-7.03528e-09
-9.31611e-08
9.3124e-08
-6.20649e-12
3.04305e-08
2.46384e-08
6.66923e-08
-1.2175e-07
6.36861e-08
-6.37851e-08
1.24901e-07
-1.24802e-07
9.38946e-08
-7.45039e-08
-2.22097e-08
2.8191e-09
4.50872e-08
5.18067e-08
-9.68418e-08
2.34845e-09
4.84821e-09
-9.53098e-08
1.08484e-07
-1.80229e-08
-4.01782e-10
9.33378e-08
-9.27317e-08
-2.04294e-10
-1.23846e-07
-7.5956e-09
1.44172e-07
1.78607e-07
-7.70327e-08
1.62448e-07
1.35816e-07
-6.82111e-08
5.56667e-09
-4.24389e-08
2.19847e-08
-9.16523e-08
1.13599e-07
7.69056e-08
8.21437e-08
-6.76591e-09
8.2302e-08
6.42174e-08
-1.41206e-07
-5.3131e-09
7.23194e-08
6.99016e-08
-6.40514e-09
1.09219e-07
-6.59954e-08
7.34496e-08
6.56362e-08
-1.10895e-07
5.20117e-08
-6.75325e-09
1.26766e-10
-9.03576e-08
-3.49717e-10
-1.12782e-10
-2.68795e-07
1.59646e-07
1.1887e-07
-9.542e-08
1.38313e-08
8.33898e-09
3.7585e-08
3.92069e-08
-8.51308e-08
-1.15187e-07
1.75515e-09
1.14572e-07
-1.13994e-09
-8.9291e-08
8.90383e-08
8.95834e-11
1.63204e-10
1.11942e-07
-1.44467e-07
1.69919e-07
-1.37394e-07
1.29031e-08
-1.36633e-09
1.10864e-07
-2.81053e-08
6.60783e-09
-6.44078e-08
8.59054e-08
-6.3837e-08
1.22585e-07
4.93839e-09
-1.27806e-07
6.58821e-08
6.71616e-08
-5.23774e-09
-9.69538e-08
-2.27182e-08
1.00975e-07
1.98655e-10
6.71759e-08
-1.07117e-10
-6.72675e-08
1.26827e-07
-5.93034e-08
6.82127e-08
1.05213e-09
-4.10165e-11
6.65167e-12
-8.53551e-08
1.53793e-07
-4.11211e-08
-2.55757e-08
-8.70966e-08
2.0541e-08
2.62481e-08
-1.22303e-07
7.78468e-08
-3.03365e-08
1.94473e-08
1.23023e-07
6.93302e-08
1.44675e-07
-1.66758e-07
-5.56516e-08
-5.94585e-08
5.27872e-09
1.15118e-07
4.97024e-09
-6.34199e-08
-6.32352e-08
1.20117e-07
6.5385e-09
-1.19406e-08
8.59248e-08
-1.16005e-07
-1.36516e-10
6.16475e-08
-6.23292e-09
-6.49897e-10
-1.18e-07
2.28526e-10
1.18421e-07
-1.16123e-07
1.41269e-07
-3.44803e-08
9.47869e-09
-7.91561e-09
4.39218e-08
9.66906e-08
-1.12008e-07
6.52252e-08
-2.33565e-08
7.01397e-08
-1.21906e-07
8.23679e-08
-1.15805e-07
1.14324e-07
2.29918e-10
8.16522e-08
1.94526e-08
-1.43918e-07
-1.87082e-08
1.43174e-07
-1.58383e-07
8.70949e-08
-1.20115e-07
-1.20265e-09
1.43997e-07
2.235e-08
6.0199e-08
-8.68942e-08
4.34527e-09
1.23078e-07
-9.28596e-08
-3.67551e-10
-9.05715e-08
-1.39601e-10
-2.07167e-07
2.07277e-07
-4.33092e-10
-8.3823e-08
-8.6107e-08
-8.45164e-08
9.01015e-08
-9.87462e-08
7.58642e-08
-9.60871e-08
1.49524e-08
5.27053e-09
1.10032e-07
-7.97745e-08
-8.27248e-09
-1.35433e-07
-1.10778e-08
1.87318e-08
1.27779e-07
-2.68699e-07
-2.08878e-10
-1.17424e-07
1.16985e-07
-7.25312e-11
-8.43273e-08
-1.85919e-11
-1.70514e-10
-1.17144e-08
-8.28731e-08
1.32368e-07
-3.77808e-08
9.39127e-08
4.10908e-09
3.83051e-08
-1.21329e-07
1.20153e-07
-3.23233e-09
-5.79313e-08
1.29043e-07
-8.33215e-08
1.48504e-10
-1.14914e-07
-4.2184e-10
8.35776e-08
-8.50753e-08
1.95668e-10
-5.84924e-08
-5.8973e-08
1.10235e-07
7.2299e-09
9.9641e-08
1.55734e-08
-8.57473e-08
-2.94673e-08
-2.80185e-08
1.34318e-07
-1.1385e-07
4.65163e-09
-1.00776e-07
-1.66207e-08
1.13992e-07
1.56529e-11
-1.13927e-07
-8.08461e-11
2.13384e-08
6.59144e-09
4.79495e-08
-7.58793e-08
-1.25445e-07
6.69813e-08
-4.956e-09
-1.02939e-07
9.52551e-08
-6.65263e-09
-2.47678e-10
1.09484e-07
-1.76239e-11
-7.05498e-08
-6.38853e-08
1.28598e-07
5.83693e-09
1.1498e-07
-6.05667e-08
-5.93366e-08
4.92365e-09
1.15835e-07
-1.94656e-09
1.034e-10
-9.21472e-08
-8.05843e-08
8.84043e-08
-1.04066e-07
-4.06248e-08
-1.63407e-08
1.60735e-07
-9.29977e-08
2.53498e-08
-1.1168e-07
2.28806e-10
-9.26503e-08
3.97485e-10
-2.97584e-10
1.18403e-07
2.24771e-08
-2.38342e-08
-1.17046e-07
4.06123e-08
-1.12391e-07
-4.55021e-11
-2.10259e-11
3.32428e-08
-1.6804e-07
-6.91234e-08
1.14637e-07
7.85628e-08
1.78391e-08
-1.27412e-07
-1.57812e-08
1.25354e-07
-7.27148e-08
6.10527e-09
1.192e-07
-1.20698e-07
8.38361e-08
3.74962e-08
-6.34284e-10
-4.33315e-10
1.52786e-10
-8.44524e-08
5.81566e-08
-4.41027e-09
-1.33967e-09
-2.33041e-09
-2.1317e-09
8.32089e-08
-7.87467e-08
7.21536e-08
9.53398e-08
-9.13441e-08
-7.61492e-08
1.3045e-07
-1.44822e-07
-2.0598e-10
5.60843e-10
1.36629e-07
-8.46151e-09
-1.20426e-07
-3.66769e-08
1.34203e-07
9.66663e-09
1.0662e-07
-1.00733e-07
-4.90509e-09
-9.82047e-10
-5.31664e-10
1.00543e-07
1.47814e-07
-5.15349e-08
-1.44776e-09
8.13127e-08
-7.18571e-08
-6.5795e-10
5.54078e-10
1.23575e-07
-1.31136e-07
7.40453e-10
1.19193e-07
1.02683e-08
-1.04718e-08
8.67223e-08
-1.10508e-07
2.38358e-08
1.07929e-09
7.99643e-08
-6.83467e-10
-8.03601e-08
-1.06472e-07
1.06696e-07
-2.16892e-10
1.17775e-09
-3.51474e-10
-1.01855e-07
1.01406e-07
-8.313e-11
-1.00526e-07
-5.18233e-11
-1.97975e-10
6.28345e-08
-8.88749e-08
-6.75081e-08
9.35485e-08
-1.07415e-10
-1.05028e-07
1.05258e-07
-1.22958e-10
-4.99553e-08
1.38098e-07
-6.17711e-08
-1.68191e-08
-1.23646e-07
6.51294e-08
-6.42739e-09
2.48956e-08
-1.42811e-08
9.60053e-08
-1.23333e-07
5.89604e-08
5.73138e-08
7.05919e-09
-1.38659e-07
-9.64543e-08
1.00531e-07
-1.12948e-07
-3.83967e-08
5.08144e-08
1.17221e-07
-1.17357e-07
2.31192e-10
-9.50258e-11
-1.26255e-09
-1.60063e-07
4.19017e-10
1.60907e-07
-9.19692e-08
1.86217e-11
9.19662e-08
-1.1403e-07
1.27109e-10
-2.36256e-11
6.38952e-08
-1.13344e-07
-6.20223e-09
-1.79662e-10
-1.16728e-07
-1.08108e-10
6.78682e-08
6.69508e-08
-5.38195e-09
-6.53866e-08
-6.5547e-08
1.25011e-07
5.92322e-09
-1.05894e-07
1.24892e-09
1.04892e-07
-2.46445e-10
1.11606e-07
2.69924e-08
9.81075e-08
-1.44611e-08
9.8401e-08
-4.67102e-09
-9.12221e-08
4.28464e-08
4.11367e-08
7.2389e-09
9.30927e-08
1.12019e-07
-1.05781e-07
-9.62382e-08
6.37548e-08
-6.19616e-08
-1.14928e-07
-9.15892e-08
1.00258e-07
1.06259e-07
9.92169e-08
-1.77739e-10
1.04302e-07
-1.0539e-07
1.31052e-09
-2.22394e-10
-1.14494e-07
-1.16569e-07
6.55698e-10
1.23738e-10
1.46388e-08
4.06413e-08
-1.44929e-07
1.2783e-08
-3.72635e-08
1.70506e-07
1.17854e-07
-4.94324e-08
-7.29428e-08
3.45396e-09
1.70377e-08
-1.83301e-08
1.15341e-07
-2.8751e-08
-6.82602e-08
9.70409e-08
-5.94063e-10
-9.62186e-08
-2.28283e-10
-3.5583e-08
-1.26446e-07
2.50803e-07
-8.87739e-08
9.51338e-08
-7.19696e-08
-8.14207e-10
4.58846e-10
9.31807e-08
-3.01791e-10
6.37e-08
-6.38361e-08
1.03836e-07
-1.32237e-07
-1.12838e-07
6.88037e-08
1.09916e-07
-1.36234e-09
-2.72701e-08
-7.1046e-08
6.37133e-08
7.53714e-08
8.72889e-09
7.926e-08
-1.14032e-07
2.40008e-09
1.31243e-07
-7.0057e-08
5.97578e-09
1.04008e-07
-1.3392e-07
1.20126e-07
-7.98465e-08
-2.69821e-08
-1.28436e-08
2.00399e-09
8.98633e-08
-9.98143e-08
6.01557e-08
-1.1374e-07
-4.90816e-09
1.32644e-07
1.48561e-08
-3.91645e-08
1.09668e-07
-6.97635e-08
-2.17363e-09
-2.25897e-08
1.22929e-07
-1.37558e-07
3.72191e-08
1.02588e-07
1.76177e-08
-4.87478e-08
1.1299e-09
-1.07702e-07
1.05956e-07
-1.137e-09
-2.60705e-08
2.02361e-08
-8.60379e-08
9.18724e-08
6.72629e-08
-1.2539e-07
-5.10814e-09
-1.19941e-07
1.19967e-07
-2.05869e-10
-6.93695e-08
1.40279e-07
-1.06493e-07
-6.4296e-08
-7.19052e-08
1.62578e-08
-9.18201e-08
-9.8944e-11
1.93975e-07
-3.08138e-08
-7.01253e-08
-9.65423e-08
-6.51882e-08
1.17194e-07
2.00831e-07
-1.45305e-10
-7.91934e-08
-6.38127e-11
7.94025e-08
2.80587e-08
9.97319e-08
-1.10334e-09
1.3136e-07
5.31232e-09
8.63294e-08
5.16425e-08
2.6849e-09
6.49449e-08
-1.25302e-07
-5.02935e-09
-6.47809e-08
-7.32461e-08
1.29356e-07
8.67101e-09
-8.33038e-08
-4.04695e-09
-3.87129e-09
1.1128e-08
-1.15002e-07
9.87014e-08
-9.41983e-11
-1.08036e-07
-2.79539e-09
1.05847e-07
-7.71238e-08
-1.19619e-07
8.39084e-08
1.12834e-07
-1.01611e-07
3.55473e-08
6.94907e-08
-3.42689e-09
6.1951e-08
6.21448e-08
-1.17434e-07
-6.66137e-09
-6.36065e-08
-6.11143e-08
1.18664e-07
6.05695e-09
4.73577e-08
4.35057e-08
-1.0085e-07
9.98671e-09
-5.96587e-08
9.91458e-08
-3.21867e-08
-7.30032e-09
9.62486e-08
-9.64869e-08
-4.11616e-10
-8.28023e-08
2.93363e-10
7.29901e-08
9.20834e-08
-2.50634e-08
-1.4001e-07
-2.69981e-08
7.80041e-08
3.37588e-08
-8.47647e-08
-8.98037e-08
-1.02907e-12
9.12434e-08
-1.43867e-09
-6.53019e-08
-3.74218e-08
8.43935e-08
1.12111e-07
-3.17526e-09
6.23918e-08
-1.16168e-07
5.84319e-08
-4.65534e-09
-4.52789e-08
2.91641e-08
-1.00819e-07
1.05418e-08
1.18656e-07
-9.07239e-08
-3.90491e-08
1.30107e-07
6.93561e-08
-6.48552e-08
6.16701e-10
-1.11429e-07
-1.96881e-11
7.58918e-08
-6.33972e-08
9.02643e-08
-1.07528e-07
5.14367e-08
4.88924e-08
7.19897e-09
6.48884e-08
-4.23553e-09
3.52695e-08
5.75092e-08
7.52486e-09
8.06531e-09
1.10361e-07
-8.50953e-09
-4.35537e-09
-7.23354e-08
7.06805e-08
1.16996e-07
-6.56297e-08
-1.36485e-07
1.37078e-07
1.44646e-07
5.36474e-08
-5.06505e-08
-1.47643e-07
1.24652e-08
-1.13179e-07
1.22052e-07
-6.90862e-08
-6.42643e-08
1.27455e-07
5.89569e-09
-4.04748e-08
-9.25666e-08
1.55076e-09
6.03765e-08
-6.20309e-09
1.17711e-07
-1.25675e-10
-3.64586e-10
1.94091e-08
-7.59969e-08
8.14834e-08
3.52933e-10
4.51901e-11
-1.20339e-07
5.06712e-10
8.2671e-08
-8.1323e-08
1.03293e-08
-7.39783e-08
1.26432e-07
-6.27835e-08
-2.44668e-08
-1.18926e-07
1.26227e-09
1.42131e-07
8.1627e-08
-1.57424e-07
6.20034e-08
1.37936e-08
-1.11376e-07
8.02335e-08
-8.62819e-08
9.18679e-08
-4.44236e-10
-9.0891e-08
-5.32707e-10
-4.05722e-08
-1.17154e-07
4.11826e-08
1.16543e-07
-6.61632e-08
-1.07464e-07
1.33299e-07
4.03282e-08
-2.81371e-09
-1.27237e-07
1.27726e-07
2.32458e-09
-1.13545e-07
1.13488e-07
-1.20573e-09
-1.25197e-07
1.10768e-07
-5.63613e-08
1.20379e-07
6.31888e-08
-5.45323e-09
6.72527e-08
-1.21984e-07
-5.6164e-08
-1.12807e-07
7.65666e-08
-8.92045e-08
-1.26579e-08
1.24396e-07
-7.6612e-08
-3.108e-08
1.10124e-07
-1.08351e-07
-3.04374e-09
1.26992e-09
-8.6725e-08
-2.19274e-09
3.56261e-09
-5.94771e-11
-1.32248e-07
1.29494e-07
-8.35272e-08
-7.82415e-10
1.00582e-09
-8.25271e-08
6.93952e-08
1.34443e-08
-3.12407e-10
-4.89266e-08
-1.17312e-07
1.57709e-07
8.52948e-09
1.05004e-07
-4.72598e-10
5.23035e-08
4.33963e-08
-1.05113e-07
9.4134e-09
-1.00183e-07
-1.51384e-10
1.00428e-07
-9.3097e-11
-9.69987e-08
1.31274e-08
-2.15189e-08
5.73571e-08
-1.11789e-07
4.69857e-08
7.44673e-09
-4.17496e-09
-8.39078e-08
4.25965e-09
1.35095e-09
-1.18124e-07
1.84566e-09
4.9376e-08
6.64605e-08
-1.4174e-07
1.84306e-08
1.13108e-07
1.80573e-08
1.15979e-07
-1.16549e-07
8.59724e-10
-2.89484e-10
-1.81263e-07
1.70683e-07
7.67718e-08
-6.61917e-08
4.93886e-08
-1.28445e-07
9.82712e-08
-1.92145e-08
6.58043e-08
-6.02117e-09
-6.09861e-10
2.28357e-10
5.27889e-08
-5.5699e-08
-1.02656e-07
1.4387e-07
-1.18145e-07
1.00373e-07
-1.39429e-08
4.47737e-10
-1.33047e-07
1.33058e-07
1.1329e-07
-1.38243e-07
-1.11735e-09
-7.6985e-08
-7.35767e-08
1.44712e-07
5.85027e-09
8.6835e-08
1.12667e-10
-8.68658e-08
-8.18386e-11
-1.3061e-07
6.99026e-08
6.52482e-08
-4.54059e-09
-1.75092e-07
1.08631e-07
-1.22082e-07
1.88543e-07
-1.67908e-07
2.26108e-08
-4.07057e-08
-9.99048e-08
-1.43993e-07
8.78952e-08
3.35079e-08
-1.24889e-08
-1.13317e-07
1.23427e-07
2.37906e-09
-2.6902e-09
-9.93408e-08
-8.36119e-09
1.08243e-07
-8.87633e-08
9.89614e-08
-2.79065e-08
1.4825e-07
5.60892e-08
1.69915e-07
-1.1169e-07
-1.07514e-07
4.46523e-10
1.08665e-07
-1.08961e-07
-1.50535e-10
9.09797e-08
-9.90531e-08
3.89826e-09
-7.30033e-08
-7.96299e-10
6.1646e-08
9.53985e-08
-3.93334e-08
5.79639e-08
-1.09862e-07
-4.46338e-09
8.98892e-11
1.0599e-07
-1.0585e-07
-2.29236e-10
-1.09943e-07
-4.09968e-11
1.10366e-07
-3.81778e-10
-1.10462e-07
3.93536e-08
-2.96241e-08
-1.04358e-08
8.80755e-08
7.18966e-08
-1.61474e-09
-1.58357e-07
2.19378e-09
-1.29628e-10
-1.52303e-08
7.35171e-08
-1.31824e-07
7.35369e-08
-1.14596e-07
1.1635e-07
5.95534e-08
-6.07414e-09
2.40154e-08
-1.18343e-07
-3.34567e-08
1.27785e-07
4.0185e-08
1.03034e-08
3.25809e-08
-8.30692e-08
6.28719e-08
6.81989e-08
-1.25194e-07
-5.87706e-09
-9.69389e-08
9.52922e-08
1.77631e-09
-1.29606e-10
-6.16412e-08
6.79759e-09
5.05551e-08
-4.85831e-08
1.12457e-07
-1.14429e-07
-9.36992e-08
1.96692e-07
-4.08252e-08
-6.21672e-08
7.71387e-08
-6.65502e-08
-6.6819e-08
5.62307e-08
6.18467e-08
-5.1032e-08
-1.27498e-07
4.88144e-08
9.31444e-09
5.25833e-08
7.25985e-08
6.84729e-08
6.96869e-08
-1.31941e-07
-6.21883e-09
1.2242e-07
7.26596e-09
-5.25789e-09
-1.24428e-07
9.62901e-08
1.03473e-09
-2.83913e-10
9.07101e-08
-9.21426e-08
2.03605e-09
-6.03463e-10
-6.02343e-08
-7.10026e-08
1.24331e-07
6.90573e-09
-1.12336e-07
1.33978e-09
5.34788e-10
-1.00309e-07
-5.04301e-11
1.76398e-10
1.03258e-08
1.11867e-07
1.04017e-07
1.93748e-09
-9.5065e-10
2.73433e-11
-9.42328e-08
9.40541e-08
9.13525e-08
1.633e-08
2.44186e-09
-1.00781e-08
3.28311e-08
-1.09668e-07
8.69146e-08
1.16826e-07
-1.16611e-07
3.77143e-11
-2.52448e-10
-2.68705e-08
-1.06668e-07
1.56149e-07
-1.09065e-07
-1.78844e-08
1.31168e-07
-4.21844e-09
1.40045e-07
-1.19408e-07
-2.07109e-08
-1.81162e-08
1.15966e-07
1.17552e-07
-1.17726e-07
1.31536e-10
4.21883e-11
1.3699e-07
-4.17178e-08
-1.35396e-07
4.01239e-08
1.12347e-07
-1.12499e-07
1.33984e-07
-1.33832e-07
7.81592e-09
-1.12176e-08
-9.03107e-08
9.37123e-08
2.45613e-08
-9.37511e-08
-3.97903e-08
1.0898e-07
7.80388e-08
7.20559e-08
-1.44082e-07
-6.0123e-09
1.84968e-07
-1.9469e-07
-3.17386e-08
-1.61574e-07
9.67705e-08
-1.18634e-08
1.13829e-08
-1.67615e-07
1.45896e-07
-7.76322e-08
1.20607e-07
-2.05131e-07
1.62156e-07
7.33973e-08
-1.45097e-07
-5.9328e-09
1.92554e-08
8.27088e-08
-1.43715e-08
-8.75927e-08
-9.32943e-10
1.22621e-07
-1.3767e-08
-1.06012e-07
-5.39632e-08
1.40179e-07
-9.75733e-08
1.13576e-08
-2.62276e-08
7.56924e-08
-4.19725e-08
-7.49234e-09
2.06747e-10
-9.45718e-08
9.46489e-08
-2.83865e-10
2.54376e-09
1.13767e-07
-1.1527e-07
-1.04108e-09
-1.02387e-07
-1.1409e-07
1.25151e-07
9.61919e-08
1.12665e-08
8.10947e-08
1.61369e-09
-4.32701e-08
-3.99058e-08
1.17495e-07
-2.17109e-07
6.3669e-08
-1.39532e-07
1.09839e-07
-6.40061e-08
1.12108e-07
-1.09221e-07
-3.43103e-10
-8.9439e-08
1.5806e-09
-2.3204e-09
9.01789e-08
5.68563e-08
-1.71995e-07
-1.38033e-07
-1.56191e-10
1.18175e-07
-1.17895e-07
-1.2363e-10
-9.80973e-08
-3.35271e-08
1.24749e-07
5.2396e-09
-8.11067e-09
1.01604e-07
-9.10583e-08
-1.01783e-08
1.30341e-07
-1.10508e-07
5.29239e-10
3.49762e-11
5.90191e-08
-1.43761e-07
7.84078e-08
6.33458e-09
-1.34936e-09
-9.99725e-08
-1.39222e-09
1.17127e-07
5.29784e-09
-9.91447e-08
5.03713e-08
4.69251e-08
1.84822e-09
-9.63782e-08
2.65882e-08
1.31637e-07
3.92672e-10
1.24965e-07
-6.60282e-10
-1.24698e-07
5.44662e-09
1.105e-07
-2.36386e-08
-9.23082e-08
1.29693e-07
-1.46768e-07
7.6667e-08
-5.95916e-08
4.33398e-08
1.09093e-07
-5.35779e-08
-6.1391e-09
7.7994e-08
7.48464e-08
-1.40604e-07
-1.33292e-08
-5.76083e-09
9.81743e-08
-1.18346e-07
1.08771e-07
4.01212e-11
-1.09215e-07
4.03652e-10
6.65189e-09
9.15688e-08
-4.30798e-09
7.14488e-08
-1.7699e-07
2.8418e-08
-1.20505e-07
2.23724e-09
-6.83347e-08
-5.8735e-08
1.20711e-07
6.35907e-09
-9.72909e-08
-4.51022e-08
3.1008e-08
1.11385e-07
-1.11248e-07
-5.59604e-10
-5.2844e-10
-6.35916e-08
1.34389e-07
-7.61644e-08
5.36713e-09
6.93451e-08
-1.36684e-07
7.0239e-08
-2.89997e-09
-1.05415e-07
-2.50455e-10
9.61025e-08
-9.85413e-08
4.25499e-09
-1.81613e-09
1.38363e-07
-7.72178e-08
8.19966e-09
-1.08172e-07
1.76119e-08
-1.77903e-08
5.4151e-08
-8.93402e-08
-1.99518e-08
1.1703e-07
-1.16382e-07
-2.00429e-10
6.40778e-08
5.56503e-08
-5.70823e-08
-6.26458e-08
7.22816e-08
1.34014e-07
-1.44345e-07
7.20043e-08
6.23734e-08
-1.30012e-07
-4.36596e-09
-1.10173e-07
5.79091e-08
4.46466e-08
7.6169e-09
1.27648e-10
1.17452e-07
-2.81086e-11
7.31566e-08
6.82583e-08
-1.35525e-07
-5.88955e-09
9.53668e-08
1.10463e-07
-9.21604e-09
-9.80453e-08
-3.20114e-09
8.9663e-08
1.55458e-10
1.33729e-07
-1.35477e-07
-7.286e-08
7.46086e-08
4.67819e-08
5.61009e-08
7.57982e-09
-5.86671e-09
-1.50951e-07
1.72376e-08
7.84389e-08
-3.55276e-09
5.40132e-09
1.38499e-07
1.18323e-07
-1.99465e-07
-1.12008e-07
9.91187e-10
-1.27263e-09
1.1229e-07
4.48257e-10
9.44637e-08
-9.48998e-08
-1.21877e-11
-7.23451e-08
1.63572e-07
-1.60313e-07
4.935e-08
1.11825e-07
-6.07802e-08
-1.00395e-07
4.31969e-08
5.55341e-08
-1.05949e-07
7.21802e-09
1.35534e-07
-9.71987e-09
1.88971e-08
-1.22519e-07
-5.63062e-09
3.16346e-08
-1.17533e-07
-1.76955e-08
-8.53605e-08
-1.02493e-07
9.91832e-08
1.88801e-08
-4.9977e-09
-1.84654e-08
9.14396e-08
2.6209e-08
9.09945e-08
-7.12818e-08
-1.1752e-09
1.17346e-07
2.79436e-09
1.55838e-10
-1.79273e-11
-2.01102e-07
-1.53781e-08
-1.10438e-10
1.56502e-07
1.548e-08
-1.64609e-07
-1.10241e-08
2.45956e-07
-1.08679e-07
-1.26253e-07
-1.50469e-07
1.23119e-07
1.04082e-07
-1.30424e-07
-6.12097e-08
6.72112e-08
-6.88788e-08
6.28773e-08
1.08939e-07
-1.11622e-07
-3.17566e-09
5.85894e-09
-3.50139e-09
-5.84463e-08
7.14426e-08
-1.63465e-07
-7.26271e-08
5.89473e-08
3.86527e-08
-1.12112e-07
2.3436e-07
-3.87838e-08
-9.26812e-08
-1.22965e-08
-6.99911e-08
1.40425e-07
1.84754e-09
-3.04219e-08
-6.47591e-08
8.20319e-08
1.3149e-08
3.54976e-08
-1.58774e-07
7.21774e-08
5.10988e-08
-1.00201e-07
1.00178e-07
4.01015e-13
2.31731e-11
8.69627e-08
-2.73047e-10
1.20308e-08
1.1343e-07
1.05671e-07
-6.51939e-09
-7.89155e-08
-1.42129e-07
1.77586e-08
1.05203e-09
1.23527e-07
-7.60714e-08
1.18692e-07
-3.93332e-08
-5.62584e-09
2.67234e-09
1.17422e-07
-2.7488e-09
9.45441e-08
3.5199e-08
-1.39297e-07
-2.65119e-08
-1.13862e-07
-9.77143e-08
-7.66991e-08
3.89807e-08
-1.07894e-08
1.02493e-07
-7.86769e-09
-8.5493e-08
-9.6839e-08
-3.54046e-09
8.64521e-08
-1.10678e-07
9.29925e-08
-4.7039e-10
-9.19196e-08
-6.02639e-10
-2.31e-08
-1.34148e-07
-1.59548e-07
1.5913e-07
1.02907e-07
-4.37448e-08
1.2138e-08
-7.13003e-08
1.05359e-07
-4.99681e-10
-1.04699e-07
-1.60484e-10
1.07084e-09
9.57105e-08
-9.68407e-08
5.93459e-11
2.63081e-08
1.11108e-07
-3.33993e-08
-7.19913e-08
-7.50565e-08
1.03632e-08
6.93947e-09
9.9368e-08
-1.02408e-07
-3.89935e-09
-1.12473e-07
1.21973e-07
-2.5599e-09
-1.22162e-07
-2.85367e-09
-1.32935e-07
1.34503e-07
-5.08105e-08
-7.62062e-08
1.32493e-07
-5.47609e-09
9.66786e-08
-1.376e-08
6.82167e-10
-2.00798e-10
4.11811e-08
1.08996e-08
-1.50256e-10
-5.99883e-10
6.8252e-08
7.48811e-08
-6.14319e-09
-3.0142e-08
9.2266e-08
7.05352e-08
-2.51998e-07
-7.12189e-08
2.05126e-07
1.17741e-07
1.151e-07
-4.83275e-08
-7.30584e-08
5.77846e-09
-4.33355e-10
-1.15796e-07
-3.19995e-10
5.08195e-08
5.95636e-08
-1.08954e-07
-1.42954e-09
-1.0614e-07
1.05792e-07
3.36403e-10
1.09764e-11
9.75245e-08
2.87918e-08
-1.19918e-08
1.02849e-09
1.73643e-07
-3.98864e-09
-4.89036e-08
-7.60037e-08
-2.59114e-09
-9.11564e-08
-2.04386e-08
6.55715e-10
9.64817e-08
-9.61027e-08
6.99527e-08
-1.69369e-07
9.91205e-08
-9.43318e-10
-6.52645e-10
6.4223e-08
5.82393e-08
-1.19301e-07
-3.16172e-09
-1.45412e-07
7.28233e-08
-2.0199e-08
-2.33931e-08
-3.14925e-08
1.11622e-07
-5.67365e-08
-2.58126e-08
6.42953e-08
2.67656e-08
-1.23895e-07
-8.06179e-08
8.43787e-08
1.20134e-07
6.89416e-08
-5.75229e-09
6.00232e-08
1.16823e-07
-4.91546e-08
-1.27692e-07
-3.29462e-09
1.02749e-07
1.30269e-08
-1.12481e-07
9.7874e-08
-8.35578e-08
-1.80308e-08
3.71465e-09
1.26335e-07
-1.68095e-07
1.55528e-07
1.3037e-07
-6.35109e-08
-6.08221e-08
-6.03703e-09
3.74563e-08
-1.50564e-07
-1.06488e-07
-1.10671e-07
-2.58181e-10
-1.66585e-07
1.41176e-07
-1.45236e-07
1.70645e-07
8.00456e-08
-1.32627e-07
-2.4568e-08
1.09925e-07
-1.0924e-07
-5.11894e-10
-1.72539e-10
5.37429e-08
-1.06218e-07
-5.97143e-09
-5.97759e-09
7.93664e-08
-1.59539e-07
6.49545e-08
-1.20971e-07
-3.21703e-10
1.09017e-10
1.21183e-07
-1.68507e-07
1.17867e-07
-6.77332e-08
-7.51427e-08
-2.94085e-08
-6.30527e-09
5.35711e-08
6.24658e-08
-6.1979e-09
-4.90378e-08
-5.58684e-08
-5.26649e-09
-3.20304e-09
-9.07165e-08
-9.25914e-08
-9.60726e-10
-5.59255e-09
6.49998e-08
-6.42429e-08
2.62843e-10
-1.01968e-09
9.88288e-08
-9.71607e-08
-1.10024e-09
-5.67849e-10
-1.02325e-09
1.16416e-07
-1.15061e-07
-3.31462e-10
-1.21103e-07
1.25358e-08
1.02382e-07
6.18553e-09
1.13413e-07
-1.079e-07
-3.74302e-09
-1.76962e-09
-9.87979e-08
-8.89738e-10
1.0023e-07
-5.42676e-10
-9.23372e-08
-5.64112e-08
8.60695e-08
3.01618e-08
-8.54823e-09
-1.07683e-07
7.02834e-08
-7.41666e-08
3.17894e-09
7.04351e-10
3.99661e-08
3.33045e-08
-1.13843e-07
9.97081e-08
-9.70677e-08
-6.89008e-09
4.24962e-09
-4.64664e-08
4.74255e-08
1.35546e-07
4.36911e-09
1.13633e-07
-8.51769e-08
1.08976e-08
-2.4878e-08
-9.86125e-09
-8.91554e-08
-3.06287e-08
1.7088e-07
5.07742e-09
-1.46487e-07
1.1577e-07
-2.96901e-08
-1.75223e-08
1.9971e-08
-7.10223e-08
5.17388e-09
-1.11832e-07
1.12035e-07
5.35438e-08
-6.39453e-08
-2.70202e-08
7.14337e-08
2.48362e-09
6.13977e-08
5.38473e-08
-7.50601e-08
-7.3489e-08
1.01193e-07
-1.13432e-08
-6.25019e-08
5.23907e-09
8.35973e-08
1.01302e-08
1.99735e-08
2.15775e-08
-9.24859e-09
4.70919e-08
5.5023e-08
6.97814e-09
-4.34943e-08
1.41588e-07
-1.4702e-07
-1.53142e-07
7.67963e-08
1.94767e-07
-1.30792e-07
9.41931e-08
-2.8031e-08
5.389e-08
-1.20052e-07
-1.10937e-07
-3.80947e-08
-1.28539e-07
-5.04335e-09
-8.93731e-08
7.15499e-08
-7.8511e-08
9.63344e-08
7.10351e-09
-1.04839e-07
-1.24831e-07
-6.4712e-09
-4.17548e-09
-1.13327e-07
1.02549e-07
1.08652e-07
1.74466e-08
9.44431e-08
1.8821e-09
-1.18047e-07
1.09098e-07
-7.49188e-08
8.38676e-08
-9.39645e-08
1.18508e-08
-1.81953e-08
-3.11185e-08
-4.99768e-08
1.36899e-07
-4.59121e-08
-1.00438e-07
-3.77285e-08
1.17203e-08
-6.37473e-08
-7.58729e-08
7.36772e-09
-6.22932e-08
7.16129e-08
7.13004e-08
2.04462e-08
3.75718e-08
-1.29319e-07
9.19121e-08
-2.04055e-08
-5.87686e-08
-5.55519e-09
-7.16624e-08
-7.86262e-08
4.87623e-09
5.7606e-08
-6.56752e-08
-4.36619e-08
5.17311e-08
-4.62475e-08
-7.93597e-09
1.28537e-07
-1.62531e-07
3.43221e-08
-3.2851e-10
-7.07107e-09
2.38152e-08
7.06394e-08
-8.73835e-08
3.85128e-10
-8.39892e-08
-4.11518e-10
8.40156e-08
-9.22447e-08
9.21178e-08
6.59634e-11
6.09138e-11
1.14893e-07
-6.3896e-08
-1.16544e-07
-5.67621e-08
-3.50651e-08
9.34505e-08
-1.6234e-09
1.35739e-07
1.0201e-08
-1.02935e-07
4.82061e-09
-1.22257e-07
1.62427e-08
-1.61547e-10
-1.77541e-07
-1.05113e-07
1.0508e-07
-2.8937e-10
3.46753e-08
1.0782e-07
-1.29764e-07
-1.00771e-08
-1.48535e-08
2.09391e-07
-1.64886e-10
-1.27202e-07
-3.99712e-09
8.97596e-08
-8.86122e-08
-6.80863e-11
-7.28796e-09
1.59629e-08
2.32363e-08
1.08029e-07
-1.51433e-08
1.04446e-07
-8.41304e-09
-2.97293e-09
1.13313e-07
-1.08948e-07
-1.39111e-09
-9.63643e-08
1.08368e-07
-5.59361e-09
1.08162e-07
4.62265e-09
-2.79626e-08
-8.48213e-08
1.054e-07
1.28636e-09
-1.04974e-07
-1.71242e-09
-6.3194e-08
-4.82417e-08
6.2532e-08
8.2287e-08
1.96815e-09
1.39232e-07
1.72543e-08
-3.14759e-08
-1.31763e-08
3.36379e-09
-6.93808e-08
1.09414e-07