/*--------------------------------*- C++ -*----------------------------------*\
| =========                 |                                                 |
| \\      /  F ield         | OpenFOAM: The Open Source CFD Toolbox           |
|  \\    /   O peration     | Version:  2212                                  |
|   \\  /    A nd           | Website:  www.openfoam.com                      |
|    \\/     M anipulation  |                                                 |
\*---------------------------------------------------------------------------*/
FoamFile
{
    version     2.0;
    format      ascii;
    arch        "LSB;label=32;scalar=64";
    class       volVectorField;
    location    "0.004";
    object      U;
}
// * * * * * * * * * * * * * * * * * * * * * * * * * * * * * * * * * * * * * //

dimensions      [0 1 -1 0 0 0 0];

internalField   nonuniform List<vector> 
31639
(
(0.106575 0.000451029 -0.00046677)
(0.105938 -0.000277921 0.000318404)
(0.106596 -0.000236756 0.000265247)
(0.106814 0.000220385 0.000217181)
(0.106165 -0.000540299 0.000110711)
(0.106334 0.000108731 -0.00014143)
(0.105737 -2.10358e-05 -0.000166514)
(0.105962 -0.000190793 -0.000161279)
(0.10626 0.000325924 8.85839e-05)
(0.106765 -0.000126397 -0.000230784)
(0.107049 0.000179718 -0.000119717)
(0.10652 -0.000349081 -0.000454531)
(0.106196 -8.32603e-06 -1.47395e-05)
(0.106468 2.73174e-05 -1.13837e-05)
(0.105826 -0.000310526 0.000173434)
(0.105738 -8.12145e-05 0.000336571)
(0.105802 5.26533e-05 -0.000357252)
(0.105332 -6.57379e-05 -8.7219e-05)
(0.105649 0.000509223 -8.6079e-05)
(0.106352 0.000127039 -0.000484684)
(0.104914 -0.00019879 0.000306721)
(0.106477 6.39345e-05 0.00010772)
(0.106349 8.84747e-05 0.000199216)
(0.105879 0.00033572 -0.000163652)
(0.10544 -0.000242718 -0.000265908)
(0.106211 7.76808e-05 -0.000357092)
(0.106328 -5.71584e-05 0.00021194)
(0.107923 0.00049089 0.000281355)
(0.105706 0.000181802 0.000679711)
(0.106229 0.00014888 0.00037331)
(0.106778 -0.000112346 -0.000112285)
(0.105345 -2.55572e-05 -0.000223082)
(0.106529 0.000270658 -0.0003603)
(0.105796 3.13672e-05 -0.000298777)
(0.105124 -0.000154398 -7.6908e-05)
(0.106346 0.00046479 -0.000209162)
(0.104328 4.64975e-05 -2.94859e-05)
(0.106776 -0.00021095 1.59495e-05)
(0.106754 -6.53801e-06 -8.00826e-05)
(0.104313 0.000210878 -0.000341403)
(0.105303 4.83881e-05 8.11954e-05)
(0.104855 0.000167999 -1.46736e-06)
(0.106562 4.22483e-05 2.84398e-05)
(0.106997 -0.000700075 -0.000432438)
(0.106421 -0.000277381 0.000281557)
(0.107354 -0.00054988 -0.000249437)
(0.105479 0.000373673 -3.73267e-05)
(0.105901 0.000485784 -0.000198106)
(0.105793 0.000209122 0.000447655)
(0.106612 -0.00035762 -5.49866e-05)
(0.107023 3.17441e-05 -1.20877e-05)
(0.104641 0.000258199 -0.00026293)
(0.10694 4.21938e-05 0.000244767)
(0.104359 -3.45847e-05 7.29401e-05)
(0.106146 -0.000116376 -0.000234215)
(0.105552 0.000283269 -0.000115714)
(0.104844 0.000502867 -0.000316623)
(0.106218 6.58493e-05 0.000234895)
(0.106133 1.75534e-05 0.000410772)
(0.105052 -0.000151408 -1.68442e-06)
(0.106255 8.5317e-05 -6.56111e-05)
(0.106355 0.000113782 -0.000474144)
(0.105575 -0.000102635 -4.87372e-05)
(0.106417 9.39829e-05 -9.50607e-05)
(0.106032 0.000251761 0.000116898)
(0.106829 0.000209158 -0.000173407)
(0.105697 0.000226493 -0.000489718)
(0.106242 3.97664e-05 -0.000163285)
(0.105406 -0.000133933 0.000374122)
(0.106576 0.00037126 -0.000115895)
(0.106983 -0.000240149 0.000407864)
(0.105447 -0.000416948 -0.000234319)
(0.106996 -0.000179988 -0.000311642)
(0.106353 6.23399e-05 -0.000181953)
(0.106275 1.06399e-05 -1.95955e-05)
(0.104633 1.32568e-05 0.000159397)
(0.106995 -0.000336437 0.000262477)
(0.105919 0.000224523 -7.82259e-05)
(0.106109 -4.90026e-05 0.000225516)
(0.106493 0.00021788 0.000112948)
(0.105786 0.000198807 5.55132e-05)
(0.103915 3.60337e-05 9.54486e-05)
(0.106965 -1.09877e-06 -0.000402535)
(0.106555 -0.000159761 -1.6643e-05)
(0.106296 6.58669e-05 -6.49786e-05)
(0.106856 -0.000518099 -0.000146115)
(0.106915 8.73317e-05 0.000151221)
(0.107063 0.000138621 -1.61477e-05)
(0.104993 0.000306787 -0.000503137)
(0.106846 0.00033752 -0.000484962)
(0.106664 7.76492e-05 -5.43998e-05)
(0.105538 -0.000315951 -0.000209066)
(0.105071 0.000122621 -0.000338023)
(0.10609 0.000231335 -0.000170961)
(0.105368 -0.000438167 -0.000118635)
(0.105708 0.000667746 1.9098e-05)
(0.106164 0.000445016 -0.000320333)
(0.106282 -0.000148667 0.000353744)
(0.106336 -5.88646e-06 -0.000141788)
(0.104946 -0.000323996 -0.000541961)
(0.105916 0.000248668 -0.000131216)
(0.106082 0.000352596 0.000422469)
(0.105821 0.000187828 -8.79271e-05)
(0.10448 -0.000190318 0.000195835)
(0.105007 0.000141689 -0.000243814)
(0.10726 -0.000289197 -0.000389101)
(0.104481 0.000318102 -3.01658e-05)
(0.104777 0.000300136 -0.000712215)
(0.105425 0.000176261 0.00021337)
(0.104462 -8.35176e-05 0.00011456)
(0.106612 -0.000259603 0.000109213)
(0.105206 0.000318713 -0.000286883)
(0.106006 -0.000345606 -0.000200239)
(0.105651 -0.000421128 -0.000219879)
(0.106453 3.64079e-05 -0.000310987)
(0.104637 -0.000191246 -0.000294669)
(0.105743 0.000161195 -8.14328e-06)
(0.105577 -0.000406895 -6.86039e-05)
(0.105859 -0.000153895 0.00013573)
(0.106215 -7.73943e-05 0.000224561)
(0.105967 -0.00037163 0.000140472)
(0.106802 -0.000259396 0.000279613)
(0.106888 0.000252153 -6.25174e-05)
(0.106118 0.000216625 -0.000661899)
(0.106378 0.000257777 -0.000593008)
(0.106488 -0.000277794 -8.09235e-05)
(0.106214 0.000143193 0.000354184)
(0.105387 0.000374286 3.65461e-05)
(0.105385 2.96448e-05 -0.000128581)
(0.106775 3.90423e-05 0.000154683)
(0.106494 0.000224111 -4.76092e-05)
(0.106382 0.000316185 -0.000178764)
(0.106572 -7.20247e-05 -4.92556e-06)
(0.106154 1.56029e-05 0.000132367)
(0.106411 3.99552e-05 2.66004e-05)
(0.106538 0.00015611 -6.09575e-05)
(0.10493 0.000219156 -0.000124608)
(0.104747 -0.000256119 -0.000450416)
(0.107052 0.000438084 0.000382659)
(0.106422 -0.000176387 -3.69249e-06)
(0.106393 -0.000164077 0.000137226)
(0.106806 3.72658e-05 0.00037244)
(0.106615 9.06696e-06 -1.48709e-05)
(0.104594 -0.00029548 0.000170766)
(0.104762 -8.32184e-05 -0.000442531)
(0.10622 -6.81786e-05 9.27665e-05)
(0.106498 5.31976e-05 -0.000342129)
(0.104825 -0.00043665 -2.11678e-05)
(0.105204 0.00011705 0.000113437)
(0.106201 -0.000124854 -0.000402802)
(0.105522 -6.70677e-05 -0.000276493)
(0.105753 0.000177735 -0.000232037)
(0.106002 -1.87092e-05 -0.000498132)
(0.106399 -0.000140078 -0.000155788)
(0.105162 8.25897e-05 -0.000439127)
(0.106792 -1.5148e-05 0.000121239)
(0.106265 -0.000159016 0.000101592)
(0.105564 -0.00025506 0.000340601)
(0.105038 -0.000436319 0.000185203)
(0.106039 8.03865e-06 -0.000171761)
(0.107038 2.42748e-06 -0.000168757)
(0.104492 -0.000146744 0.000281837)
(0.10501 -0.000568326 -0.000231072)
(0.104772 -0.000102061 -0.000307489)
(0.104912 -0.000305914 -1.43094e-05)
(0.105645 0.000111658 5.81356e-07)
(0.10477 0.000275956 0.000314184)
(0.106525 -0.000360117 0.000242963)
(0.106997 -0.00042497 8.74595e-05)
(0.104648 -1.94944e-05 0.00013068)
(0.105267 5.47915e-05 0.000111497)
(0.106007 0.000268333 -0.000461108)
(0.104988 -0.000142834 2.84755e-05)
(0.106348 -8.3807e-06 -5.18947e-05)
(0.107086 -0.000256618 -0.000176649)
(0.106358 -0.000109686 -0.000227135)
(0.106345 0.00038709 -0.000154579)
(0.106326 0.000325385 -1.53016e-05)
(0.106579 -0.00018986 -9.07978e-05)
(0.106222 -4.22641e-05 -0.000254604)
(0.106407 9.79701e-05 -0.000109884)
(0.105995 -0.000228169 0.000286452)
(0.105992 0.000527901 3.16189e-05)
(0.104727 0.000577848 -8.51593e-05)
(0.106301 -0.000216745 0.000565814)
(0.106604 0.000680474 -0.000662598)
(0.105903 -0.000151936 0.000206436)
(0.106105 1.9843e-05 -0.000199552)
(0.105127 0.000241637 -0.000141643)
(0.10465 -3.668e-05 0.000568864)
(0.106811 4.39411e-05 -0.000385479)
(0.106553 -0.000144324 0.000427403)
(0.105497 -0.000331728 0.000424328)
(0.106278 5.76312e-05 0.00037605)
(0.106585 0.000148882 -9.94162e-06)
(0.106136 -7.77747e-06 0.000276964)
(0.105535 0.000537656 0.000185617)
(0.106883 0.00018688 0.000239168)
(0.10492 -8.94942e-05 -0.00017523)
(0.105664 0.000326352 -0.000188462)
(0.1067 -9.4589e-05 -4.13798e-05)
(0.106468 0.000157497 -9.43816e-05)
(0.106551 -0.000144395 -1.80029e-05)
(0.106258 -0.000694487 -0.000126532)
(0.106061 -0.000245464 0.000111408)
(0.106116 -2.81645e-05 2.42791e-05)
(0.106355 -0.000185493 0.000259327)
(0.106084 3.6179e-05 -4.28288e-05)
(0.106382 3.18939e-05 -0.000415317)
(0.104467 -0.000117662 -0.000373419)
(0.106378 5.65336e-05 -0.000346974)
(0.105785 0.000486418 -5.6501e-05)
(0.106233 0.000129839 -0.000191655)
(0.106255 0.000286098 -0.000137683)
(0.106169 -0.000174074 -0.000136413)
(0.106476 -1.37432e-05 -4.72969e-06)
(0.105321 -0.000267672 0.00015594)
(0.10547 -6.08371e-05 0.000139189)
(0.106296 -0.000159601 -0.000302798)
(0.107097 -0.000168647 0.000211228)
(0.106683 9.7537e-05 -3.22728e-05)
(0.105971 -0.000163263 -0.000292202)
(0.104267 -0.000136795 0.000406471)
(0.106219 -0.000564276 0.000371993)
(0.1049 -0.000124653 -0.000145248)
(0.105837 -8.22822e-05 0.000121167)
(0.106504 -0.000270616 4.95974e-06)
(0.105872 0.000332103 0.000427166)
(0.104847 -7.09196e-05 1.97563e-05)
(0.105831 0.000342892 -0.000197449)
(0.106522 -9.75947e-05 -0.000116885)
(0.107088 -0.0003314 -0.000358331)
(0.104826 8.01141e-05 -0.000118919)
(0.104594 -0.000161227 -6.84639e-05)
(0.105974 0.000240656 -5.74265e-05)
(0.106491 -0.00017576 -0.000230154)
(0.104912 5.82935e-05 -2.90468e-05)
(0.106555 -0.000520301 0.000129829)
(0.105534 9.55719e-05 -0.000278701)
(0.105018 -5.30559e-05 0.000287204)
(0.106377 -0.000128591 2.60847e-06)
(0.10632 -0.000115644 -0.000119211)
(0.105758 -0.000280177 0.000185041)
(0.105242 0.000535246 0.000563958)
(0.105539 0.000142694 -5.38964e-05)
(0.105476 -7.68594e-05 -0.000280273)
(0.106342 0.000513182 -6.89687e-05)
(0.105502 -6.48151e-05 -0.000230907)
(0.104842 -0.000121173 0.00012423)
(0.106257 -0.000201065 -4.26656e-05)
(0.106161 -8.82127e-05 0.00024204)
(0.105209 5.94245e-05 -0.000264863)
(0.10583 -0.000426688 -0.000172364)
(0.106339 6.35796e-05 -0.000137292)
(0.10665 0.000167181 4.22021e-05)
(0.105973 0.00058092 -9.08938e-05)
(0.105186 -0.000364037 0.000257852)
(0.106866 0.000244482 -0.000159753)
(0.10633 4.63803e-05 -0.000526941)
(0.10581 -0.000263548 -0.000281757)
(0.106841 0.000323131 0.000453379)
(0.107064 0.000338856 -0.000100422)
(0.10632 0.00024607 -0.000169235)
(0.106696 0.000115076 8.53817e-06)
(0.106081 2.61319e-05 0.000116608)
(0.105817 -0.000188652 -0.000529779)
(0.104661 0.000508414 -0.000245451)
(0.105418 -9.10243e-05 -0.000157394)
(0.106473 -0.000279268 8.91631e-05)
(0.105726 -0.000187786 0.000346789)
(0.106018 4.92342e-05 -1.44721e-06)
(0.106175 0.000323329 3.3268e-05)
(0.106042 -0.00020173 0.000244537)
(0.106029 0.000516319 0.000112624)
(0.106795 0.000379549 -0.000144418)
(0.106577 0.000245575 0.000588475)
(0.104776 -0.000193544 4.86422e-05)
(0.105695 -7.01835e-05 -0.000130821)
(0.105654 -0.000189928 -0.00012332)
(0.107219 -0.000183606 -0.000367242)
(0.10555 -0.000310457 -0.000204481)
(0.106195 -1.74715e-05 -0.000492031)
(0.105863 -7.3904e-05 -0.000218259)
(0.105304 0.000280307 -0.000455225)
(0.104888 -3.53322e-05 0.000137385)
(0.105151 -6.8137e-05 -0.000134716)
(0.105046 0.000103481 -9.00339e-05)
(0.104722 0.000388422 -0.000167677)
(0.107067 -0.000283329 0.000103284)
(0.104915 9.33392e-05 -0.000134538)
(0.105865 -0.000129909 -5.61411e-05)
(0.106622 0.000312371 0.000120516)
(0.10574 0.000106727 3.99746e-07)
(0.105451 0.000373806 -4.56564e-05)
(0.106786 -0.000618213 0.000446423)
(0.105796 1.35232e-05 -0.000344555)
(0.105259 0.000203776 5.54956e-05)
(0.106572 9.11089e-05 -5.17943e-06)
(0.105963 -0.00025248 -0.000113609)
(0.104968 5.02676e-05 0.000194218)
(0.105989 9.41282e-05 -0.000231431)
(0.104877 -0.000275476 0.000161028)
(0.106385 0.000414439 -0.000104332)
(0.106228 0.000207929 0.000119227)
(0.105116 2.01172e-05 6.43755e-05)
(0.105825 -5.9673e-05 1.32941e-05)
(0.105762 0.000268117 0.000260926)
(0.104053 0.000387485 -0.000360204)
(0.104533 0.00087519 0.0004061)
(0.106375 -0.000307077 6.05673e-05)
(0.106495 3.73645e-06 -8.2771e-05)
(0.106961 -0.000254643 -7.54727e-05)
(0.104738 0.000143503 -0.000356699)
(0.105199 -0.000173594 0.000501686)
(0.10678 -3.08119e-05 -5.60315e-06)
(0.105556 -0.000105269 5.27296e-05)
(0.104987 0.000647246 7.42713e-05)
(0.106121 0.000195069 0.000192896)
(0.106485 -0.000369424 2.77512e-05)
(0.10552 -0.00056007 -3.28945e-05)
(0.106572 -0.0011399 -0.00038016)
(0.106768 -2.65324e-05 -0.000267483)
(0.104878 -9.7529e-05 -0.000234636)
(0.106793 -0.000466208 -5.62933e-05)
(0.104598 0.000208778 -0.000204329)
(0.104733 0.00043867 -0.000230476)
(0.106975 -0.000381034 -7.05565e-05)
(0.106581 -0.000178163 7.50162e-05)
(0.107093 -3.44368e-05 -0.000210963)
(0.106652 0.000353234 -0.000279485)
(0.106128 -0.000172282 -2.25116e-05)
(0.105384 0.000887244 -0.000156906)
(0.105468 -0.000243397 8.41568e-05)
(0.106267 -0.000341226 0.000220456)
(0.106379 -0.000435026 0.000228448)
(0.106545 0.000580309 0.000142669)
(0.106201 -0.000318625 0.00019556)
(0.106398 0.00035066 -2.18943e-05)
(0.105666 -0.000435643 0.00059015)
(0.105756 0.000102241 -0.000216071)
(0.106816 0.000107035 -0.000266224)
(0.106228 -0.000292106 -0.000490416)
(0.105767 -5.57328e-06 -0.000263399)
(0.106279 -0.00021393 -0.000187287)
(0.106372 0.000476181 -0.000145164)
(0.105564 -0.000357821 -0.000134469)
(0.106273 -0.000151346 -0.000345813)
(0.105908 -0.000304349 0.000433593)
(0.105038 2.38702e-05 -5.68223e-05)
(0.105866 0.00031575 0.00012916)
(0.106894 -0.000182797 -7.58136e-05)
(0.105356 0.000320356 -0.00024261)
(0.106196 -0.000186221 0.000139136)
(0.106704 -0.000223727 -5.94656e-05)
(0.106545 -9.1118e-05 0.000183301)
(0.105081 0.00100776 -0.000137074)
(0.106381 3.63973e-05 -0.000360069)
(0.10614 0.000182749 0.000118544)
(0.104846 -5.96395e-05 -0.000241392)
(0.106034 -0.000584322 -7.22932e-05)
(0.104587 -0.000124214 0.000162309)
(0.106226 6.09679e-06 -0.000132803)
(0.106597 1.17361e-05 -9.46266e-06)
(0.105093 -0.000366323 -0.000658113)
(0.106336 0.00030641 4.48263e-05)
(0.106194 0.000213149 0.000419124)
(0.10498 -0.000152676 4.6973e-05)
(0.106051 -0.00014514 -0.000141472)
(0.105147 -0.000260875 -0.000325671)
(0.10551 0.000276707 0.000370353)
(0.106796 0.000236543 -0.000267501)
(0.105958 0.000119454 -3.58257e-05)
(0.104688 0.000405998 0.000206509)
(0.106407 0.000144202 -0.000108999)
(0.104979 -9.2645e-06 5.0262e-05)
(0.106524 -0.00020282 -0.000100978)
(0.106156 7.97707e-05 0.000296995)
(0.10601 -0.000285497 -1.61238e-05)
(0.106593 -5.14126e-05 -0.000482388)
(0.104865 4.879e-05 0.000282012)
(0.106588 -0.000458169 7.23113e-06)
(0.104909 0.000443775 -0.00035885)
(0.106349 0.000354761 -6.88264e-05)
(0.105096 0.000559405 -0.00024496)
(0.106737 -0.000158044 3.29127e-05)
(0.106978 -0.000190974 2.30399e-05)
(0.107089 -9.02211e-05 0.000188268)
(0.106842 -0.00045027 -0.000390816)
(0.106409 1.13056e-05 1.41769e-05)
(0.105906 -4.976e-05 8.1741e-05)
(0.1064 -0.000217129 4.19714e-05)
(0.106082 3.26486e-05 -5.52974e-05)
(0.106476 0.000210394 -0.000329342)
(0.105096 0.000336265 -0.000507901)
(0.106404 -0.000265335 -3.13688e-05)
(0.105808 -0.000293551 0.000223905)
(0.105955 -8.82961e-05 -0.000222356)
(0.106483 -7.48588e-06 -0.000246678)
(0.106362 -0.000230831 -0.000590051)
(0.106339 -7.84853e-06 0.000296339)
(0.105907 -9.85674e-05 6.65154e-05)
(0.10478 -0.000121443 5.66976e-05)
(0.105759 -0.000163338 0.000440831)
(0.106463 1.17556e-05 -0.000219808)
(0.106403 3.90442e-05 7.08444e-05)
(0.104907 -7.42414e-05 -0.000415681)
(0.106839 0.000191221 -7.3366e-05)
(0.106912 5.40901e-05 -0.000386718)
(0.105921 4.34107e-05 -0.000457675)
(0.106889 -5.98344e-05 -0.000392532)
(0.107171 -0.000124998 -0.000369758)
(0.10624 0.00015154 4.71993e-05)
(0.106002 8.20669e-05 -7.68337e-05)
(0.104871 0.000296377 -0.000297875)
(0.10618 -7.5764e-05 0.000127231)
(0.106119 -0.000149656 0.000158073)
(0.104398 -0.000492006 -0.000260622)
(0.106018 -0.000124945 9.87896e-05)
(0.106667 -0.000363264 -0.000291422)
(0.105501 -8.61304e-05 0.000296231)
(0.104752 -9.61293e-05 -0.000218489)
(0.104841 -0.000308344 -0.000143985)
(0.105573 -0.000599152 6.34034e-07)
(0.104924 0.000381506 -9.75594e-06)
(0.105834 -4.59165e-05 8.36655e-05)
(0.106184 -0.000161383 7.7513e-05)
(0.105475 0.000265707 1.86034e-05)
(0.106207 0.000244223 -6.40156e-05)
(0.105051 -0.000138083 -0.000489294)
(0.106471 8.60432e-05 0.000277931)
(0.10699 -0.000222077 -3.54928e-05)
(0.106334 1.10888e-05 -0.000213266)
(0.106016 7.2155e-05 0.000283849)
(0.105763 -2.0142e-05 -0.000143592)
(0.106653 0.000310495 -0.000426037)
(0.106465 0.000335822 -9.5975e-05)
(0.105972 0.00017977 -0.000458589)
(0.107091 -3.43738e-05 -0.000192231)
(0.106415 -0.000418419 -0.000184974)
(0.104852 -8.08347e-05 0.000154512)
(0.106495 -0.000224126 9.88222e-05)
(0.107262 -0.000287922 -0.000262194)
(0.10676 7.94237e-05 5.67635e-05)
(0.106282 -8.07419e-05 0.000283283)
(0.106501 0.000175078 -0.000354561)
(0.106275 -0.000290165 -6.66203e-05)
(0.106225 -8.49534e-06 2.71559e-05)
(0.106136 3.46017e-05 -1.32661e-06)
(0.105958 7.85623e-05 -0.000163035)
(0.106382 -0.000516792 -3.10243e-05)
(0.104659 -5.8399e-05 -0.000220744)
(0.105779 -0.000125667 0.000143013)
(0.104224 -3.59355e-05 1.28771e-05)
(0.105486 0.000494081 0.000235707)
(0.106136 0.000339598 -0.000145204)
(0.104792 -4.17047e-05 -0.000249196)
(0.104756 -9.47801e-05 -0.000366702)
(0.105794 -0.000177172 -0.000229189)
(0.105983 -0.000469506 -0.000184178)
(0.106646 -0.000108925 3.39735e-05)
(0.10493 8.23594e-05 -0.000121121)
(0.105899 -9.88687e-05 8.13818e-05)
(0.105948 2.14683e-05 0.000124029)
(0.106291 -1.84992e-05 -0.000421242)
(0.106103 -5.02073e-05 -0.000279282)
(0.106201 0.000782622 0.000739409)
(0.106419 8.35725e-05 -0.000527229)
(0.104834 -0.000218119 -0.000134623)
(0.106191 -0.000402525 0.000180584)
(0.106429 3.93629e-06 -5.72341e-05)
(0.106625 0.000483004 0.000298979)
(0.106687 8.35045e-05 -7.28149e-05)
(0.105951 0.000611896 -0.000214258)
(0.104997 0.000266698 0.000107621)
(0.10616 -5.91742e-05 0.000158654)
(0.106447 -2.15032e-05 -0.000241882)
(0.106791 -0.000471805 -0.00017228)
(0.104559 0.00042433 -0.000203486)
(0.105183 -4.95866e-05 9.7746e-05)
(0.106107 0.000254693 0.000279945)
(0.1051 -9.25913e-05 -0.000230525)
(0.104804 5.91296e-05 6.83291e-05)
(0.106332 0.000421318 -0.000286378)
(0.105111 4.47595e-05 -0.000357961)
(0.105462 0.000376511 -6.03932e-05)
(0.104722 -0.000342201 4.57907e-05)
(0.10611 -2.44823e-06 -0.000201835)
(0.105164 0.00048204 1.33738e-05)
(0.106648 -1.93535e-05 6.26848e-05)
(0.106733 -9.00749e-05 -2.63259e-05)
(0.107205 -0.000236237 0.000384991)
(0.106605 6.58648e-05 0.000306544)
(0.104787 0.000161618 0.000123119)
(0.106858 -0.000119426 0.000139535)
(0.107252 -7.53738e-05 -0.00028005)
(0.106041 -0.000276834 -0.000177402)
(0.106346 4.93564e-05 5.02843e-05)
(0.106762 0.000184219 -8.42728e-05)
(0.107202 2.23055e-05 0.000336881)
(0.106251 0.000475155 9.87322e-05)
(0.105286 8.73653e-06 -0.000373343)
(0.107327 -0.000108487 0.000258573)
(0.107055 -0.000106642 0.000366584)
(0.106637 5.46848e-05 0.00016649)
(0.106087 -0.000407252 -5.4136e-06)
(0.106263 -0.000223463 -2.31324e-05)
(0.106466 0.000544232 -0.000242321)
(0.104477 0.000347845 0.00027231)
(0.104577 -3.09109e-05 -0.00044767)
(0.105912 0.000102663 3.23826e-05)
(0.106626 4.78958e-05 0.000190662)
(0.106851 0.000178335 4.22599e-05)
(0.105325 -0.000104834 -0.000132139)
(0.106044 0.000232757 0.000186063)
(0.105908 -0.000454395 -8.08106e-05)
(0.106947 0.000338082 0.000636468)
(0.106011 2.45461e-05 -1.74719e-05)
(0.105592 0.000528031 -0.000183687)
(0.106257 -0.000228423 0.00023901)
(0.104812 8.03012e-05 -0.000182868)
(0.10589 0.00010209 0.000245108)
(0.105899 0.000162496 -1.74713e-05)
(0.106469 8.20102e-05 -0.000178364)
(0.105229 -0.000193843 0.000200433)
(0.105517 0.000176202 -0.000293303)
(0.1054 0.000110098 -5.91721e-05)
(0.105632 -7.35293e-05 -0.000104534)
(0.106281 -7.65953e-05 8.50005e-05)
(0.104749 -0.000360027 -0.000884691)
(0.106571 0.000435363 -0.000365775)
(0.105884 3.76818e-05 2.4126e-05)
(0.1062 -9.46101e-05 0.000132907)
(0.105561 -0.000207486 -0.000132185)
(0.106949 -0.000375473 8.03541e-05)
(0.105777 5.73072e-05 -0.000159953)
(0.104857 -0.000579138 -0.0002128)
(0.106316 0.000302232 -0.000232667)
(0.106687 -9.79194e-05 -0.000741419)
(0.104843 1.22963e-05 5.78108e-05)
(0.106228 -0.000373174 5.0556e-05)
(0.10666 -0.000311118 -7.37252e-05)
(0.106188 -0.000239563 9.56501e-05)
(0.10626 0.000179331 0.000189863)
(0.107944 9.49387e-05 6.70359e-05)
(0.105496 0.000219361 -3.40722e-05)
(0.106346 -0.000536661 -0.000275842)
(0.106308 0.000301807 -7.31398e-05)
(0.10507 0.000323221 0.000213008)
(0.105024 -0.000120132 -0.00028955)
(0.105809 0.000379971 0.000221216)
(0.105255 0.000606763 0.000229764)
(0.106505 -9.48537e-05 -2.92574e-05)
(0.105426 -0.000260294 0.00023102)
(0.105875 6.29701e-05 4.16289e-05)
(0.107041 -6.66876e-05 0.000326815)
(0.106137 -0.000252907 -0.000168029)
(0.104929 0.00053423 0.00018287)
(0.105368 0.000140472 -3.78704e-05)
(0.106653 0.000160299 -8.38341e-05)
(0.106686 -9.82578e-05 0.000124355)
(0.104812 -0.000152029 6.01995e-05)
(0.104493 0.000322359 -5.47662e-05)
(0.107245 0.000153291 0.000238144)
(0.105018 0.000391708 0.000445348)
(0.10665 6.35667e-05 -0.000107444)
(0.106109 -1.20623e-05 -0.000190703)
(0.104911 6.73058e-05 -0.000336039)
(0.106374 -0.000197654 0.000263146)
(0.10674 0.000115251 0.000127829)
(0.105855 -2.99412e-05 0.000580587)
(0.104425 0.000104668 0.000649105)
(0.106968 -4.31317e-05 -0.000136003)
(0.106254 -0.000174112 -0.00015336)
(0.105076 0.000301949 3.27865e-05)
(0.107018 -0.00017203 -9.63562e-05)
(0.106055 4.3011e-05 -4.62749e-05)
(0.105953 0.000529073 -0.000370703)
(0.106341 -0.000507227 5.48635e-05)
(0.104809 0.000475948 -0.000577364)
(0.105713 -0.000108152 -0.000457688)
(0.105425 -0.00031148 0.000176332)
(0.105715 0.000312649 -3.83638e-05)
(0.104795 -0.00018609 0.000177642)
(0.105564 -1.21143e-05 2.86525e-05)
(0.106238 0.000287192 0.000151595)
(0.106991 -0.000279848 -0.00070247)
(0.107056 -0.000282728 3.25662e-05)
(0.106489 -6.55667e-05 0.000183309)
(0.106784 -0.000209829 -0.000102026)
(0.106269 -0.000564425 -4.32766e-05)
(0.1053 -0.000194307 0.000335781)
(0.106778 -0.000324989 -0.000500275)
(0.106164 0.000106079 9.91476e-06)
(0.106433 4.40094e-05 0.000141877)
(0.105174 -0.000550521 -6.30595e-05)
(0.106439 -0.000343397 -0.000279734)
(0.106252 0.000247704 -4.17565e-05)
(0.106649 0.000455981 0.000131472)
(0.104821 0.000220833 0.000171626)
(0.104289 -0.000252279 -0.00023351)
(0.106716 0.000110384 0.000152326)
(0.105391 -0.000539802 -0.000164224)
(0.10632 4.36729e-05 -0.00012952)
(0.105653 -0.000171851 -7.11704e-05)
(0.105222 6.44847e-05 0.000243564)
(0.106109 -5.16207e-06 6.39716e-05)
(0.107059 0.000439799 9.69738e-06)
(0.106038 2.6244e-05 2.61925e-06)
(0.106709 0.000372344 4.94907e-05)
(0.104997 1.67723e-06 -0.000268859)
(0.106771 0.00053669 0.000543725)
(0.106258 3.52765e-05 -0.000150029)
(0.104526 0.000669803 0.000137467)
(0.106308 -9.49054e-06 -8.17644e-05)
(0.10692 -0.000327184 0.000106927)
(0.1077 0.000166764 -2.23752e-05)
(0.104934 -0.000410946 -0.000178399)
(0.104808 0.000112224 -2.48199e-05)
(0.105638 0.000621058 -0.000288081)
(0.106313 -0.000179655 7.4705e-05)
(0.10607 -8.58703e-07 0.000152053)
(0.106027 3.3244e-05 5.09306e-06)
(0.106145 1.92224e-05 -5.79307e-05)
(0.10691 7.99268e-05 -8.22827e-05)
(0.106249 -0.000242775 -0.000135849)
(0.106468 0.000336318 -6.02197e-05)
(0.105 0.000148733 0.000270086)
(0.10674 -5.95431e-05 -0.000661039)
(0.104656 -0.000257643 -0.000648463)
(0.106404 0.000356231 -5.54433e-05)
(0.105763 0.000326704 -0.000371425)
(0.105786 -0.000199936 1.44632e-05)
(0.106648 0.000213764 -0.000193721)
(0.105743 -0.000184987 7.16214e-05)
(0.105132 7.57702e-05 -0.000453582)
(0.104822 0.000112668 0.000256151)
(0.104987 0.000326759 -2.02505e-05)
(0.105632 -7.98903e-05 0.000112732)
(0.106355 0.000272427 0.000354817)
(0.105343 -0.000335458 -0.000359664)
(0.106114 -0.00041422 -0.000101241)
(0.105528 0.000223291 -0.000498245)
(0.106911 -0.000377999 -0.000170358)
(0.104691 -0.000280901 -0.000114197)
(0.105952 1.31971e-06 1.43202e-05)
(0.107045 -0.000647367 -2.06498e-05)
(0.10618 -9.91835e-05 7.00241e-05)
(0.106304 -0.000259889 -3.06183e-05)
(0.106901 0.000160515 6.3826e-05)
(0.106525 0.000106329 0.000238451)
(0.106485 -6.77821e-05 1.55428e-05)
(0.106259 2.67019e-05 0.000136796)
(0.106254 8.4503e-05 3.75753e-05)
(0.106833 -8.25554e-05 6.94848e-05)
(0.105486 -0.000225864 1.6139e-05)
(0.106965 -0.000507121 -6.26549e-05)
(0.104598 -2.75885e-05 8.29905e-05)
(0.107317 0.000120895 -7.33492e-05)
(0.105902 0.000292099 5.78513e-05)
(0.106039 0.000239097 -0.000376719)
(0.104845 -0.000164297 1.07512e-05)
(0.105907 0.000467503 -0.000344684)
(0.104669 -0.000326185 2.27108e-05)
(0.106037 3.11148e-05 -0.000129143)
(0.105862 5.01573e-05 -0.000434681)
(0.106884 8.41879e-05 -0.000376932)
(0.105426 0.000371176 -6.89649e-05)
(0.106024 0.000599549 -0.000297303)
(0.105124 -0.000456039 -0.000190737)
(0.106375 1.76403e-05 5.75521e-05)
(0.104863 -0.000240717 0.000115989)
(0.104581 -0.000176595 0.000287767)
(0.105013 -0.000230349 0.000186113)
(0.105223 0.000154951 1.8531e-05)
(0.105306 0.000281473 -1.01715e-05)
(0.106107 -0.000387267 -7.56028e-05)
(0.104602 0.000367581 0.00020132)
(0.106487 -0.000536237 -0.000224283)
(0.106309 -0.000114491 -0.000143667)
(0.104068 0.000111771 0.000269145)
(0.106099 -0.000127847 -3.34092e-05)
(0.104664 0.000469834 7.33364e-05)
(0.105791 0.000295969 0.000132741)
(0.105976 -0.000110421 0.00025421)
(0.105915 -0.000275844 -0.000421896)
(0.106351 -0.00029103 -2.59777e-05)
(0.106951 2.75144e-05 -0.000156017)
(0.10651 8.56687e-05 9.13241e-05)
(0.10599 0.000172891 -5.95994e-05)
(0.106388 -0.000658495 0.000166875)
(0.106732 0.000490352 -0.000113185)
(0.105573 0.000178311 -0.000167716)
(0.105733 6.84391e-05 5.11272e-05)
(0.104512 -3.77676e-06 -0.000199921)
(0.105808 0.000825315 0.0011264)
(0.106627 0.000163232 -0.000132358)
(0.106371 -0.000355945 -0.000136359)
(0.106283 -0.000278606 0.000256323)
(0.10654 0.000165252 7.27235e-05)
(0.10489 -2.37741e-06 6.44947e-05)
(0.106696 -0.000129664 -0.000168603)
(0.10682 0.000516847 -5.87438e-05)
(0.106986 -6.34967e-05 0.000320554)
(0.106653 -0.000102254 0.000112625)
(0.106585 0.00016799 1.40231e-05)
(0.106402 -1.45455e-05 -0.000127222)
(0.106754 -0.000116217 -1.68637e-05)
(0.106678 -0.000307594 0.000291094)
(0.106736 -3.99578e-05 0.000189825)
(0.106863 -9.58689e-05 0.000109375)
(0.10627 -0.000171695 7.17119e-06)
(0.105346 -8.59398e-05 -9.05547e-05)
(0.106698 -1.98974e-05 4.00831e-07)
(0.105331 0.000167323 0.000108911)
(0.10564 -5.06803e-05 8.46535e-05)
(0.106224 -0.000225675 -0.000259111)
(0.106311 -0.000443744 0.000111062)
(0.10565 0.000316029 -1.04912e-05)
(0.106441 6.76722e-05 6.72154e-05)
(0.105307 0.000190875 0.00037621)
(0.106358 -0.000372936 8.58838e-05)
(0.105737 0.000247257 -0.00024411)
(0.104941 -0.000439678 -8.05559e-05)
(0.107245 0.000179763 -0.00019294)
(0.106175 0.000311839 -3.21381e-05)
(0.105276 -0.00020895 0.000425758)
(0.104663 -0.000339426 0.000343315)
(0.106928 -0.000576577 4.3791e-05)
(0.1048 -0.000331641 -0.000160521)
(0.106824 4.92135e-05 -0.000113728)
(0.106061 4.40277e-05 0.000198645)
(0.105666 0.000211276 -0.000110605)
(0.106379 -6.4439e-06 8.94852e-05)
(0.106645 -0.000219687 -0.000437918)
(0.106381 -8.70438e-05 0.000152388)
(0.104724 -0.000147413 -0.000298817)
(0.106035 -0.000148022 -0.000387334)
(0.105451 9.62288e-05 0.000126048)
(0.106128 0.000120815 -2.36326e-05)
(0.104806 -0.000385437 -0.000220973)
(0.105931 -0.000130015 -0.000434385)
(0.106437 -0.000183209 7.71905e-05)
(0.10547 3.56914e-05 -0.000186861)
(0.106085 2.83485e-05 -1.64526e-05)
(0.105554 9.17605e-06 0.00020244)
(0.106355 -0.000183663 -6.72398e-05)
(0.105319 -0.000392167 0.000147402)
(0.105897 -6.60965e-05 -9.13699e-05)
(0.105104 -0.000297467 0.000750713)
(0.107001 3.84814e-05 0.000256399)
(0.105832 -0.000132304 -0.000255091)
(0.107026 0.000657328 0.00042345)
(0.10551 0.000331599 -0.000224507)
(0.106683 3.51788e-05 0.000103175)
(0.106542 0.000208824 -6.28941e-05)
(0.105765 0.000182938 0.000448808)
(0.106157 -0.000202047 -0.000365128)
(0.106035 0.00029086 9.9507e-05)
(0.107062 -0.000256793 -1.0711e-05)
(0.10613 -9.78199e-05 -0.000120852)
(0.10467 9.18371e-05 0.000185367)
(0.104503 -0.000590498 -0.000180551)
(0.106762 -7.24244e-05 -0.000110254)
(0.10483 0.000270975 -0.000466453)
(0.105565 -0.000232436 -0.000243324)
(0.105934 0.000311858 -0.000160683)
(0.106082 0.000344426 -0.000176428)
(0.106665 0.000245955 -0.000320854)
(0.104829 -0.000223374 4.65053e-05)
(0.106429 5.16446e-05 -0.000208976)
(0.106846 -4.95538e-05 -1.22243e-05)
(0.105267 0.000476658 0.000405441)
(0.105028 0.000156246 0.000538379)
(0.106236 -0.000425546 -1.16741e-05)
(0.105056 -0.000115903 0.000206996)
(0.106359 -0.000330037 9.32164e-05)
(0.10505 -0.000572695 8.06452e-05)
(0.106666 -0.000318191 -3.00556e-05)
(0.10518 0.000113619 0.000571327)
(0.105386 7.83689e-05 0.000116958)
(0.106781 0.000110369 0.000116768)
(0.104531 0.000208791 0.000366303)
(0.105953 0.000195854 0.000183025)
(0.105986 -5.33824e-05 5.23909e-05)
(0.107108 6.47181e-05 -0.000395122)
(0.106668 0.000100482 4.54896e-05)
(0.106427 0.000315528 -1.26725e-05)
(0.105072 6.38815e-05 0.000212144)
(0.106387 -9.46564e-05 -0.000290549)
(0.106768 4.28518e-05 0.000399651)
(0.105234 -0.00059218 3.60059e-05)
(0.106712 -0.000132141 -0.000156363)
(0.106503 -9.70518e-05 -3.35867e-05)
(0.106498 0.000248441 -4.90505e-05)
(0.106512 0.000233989 -0.000267356)
(0.106587 -3.04811e-05 -0.000202615)
(0.106995 0.000317121 5.73435e-06)
(0.106384 0.000315024 0.000489464)
(0.107046 5.23067e-05 0.000247567)
(0.106303 0.000132185 0.000165028)
(0.106247 -1.81545e-05 -0.000108766)
(0.106553 -0.000264218 1.93989e-05)
(0.1063 0.000145476 0.000231179)
(0.104919 -0.000262356 2.0675e-05)
(0.106191 -0.000459439 0.000160174)
(0.106431 4.2197e-05 0.000229114)
(0.106428 9.99237e-05 -3.70542e-05)
(0.106731 -0.000199209 -0.000325727)
(0.106488 -8.72966e-05 0.000247664)
(0.106956 0.000228238 0.000407823)
(0.10694 0.000310775 -0.00024799)
(0.105752 -5.33536e-05 0.00057626)
(0.105848 0.000403667 -0.00032209)