/*--------------------------------*- C++ -*----------------------------------*\
| =========                 |                                                 |
| \\      /  F ield         | OpenFOAM: The Open Source CFD Toolbox           |
|  \\    /   O peration     | Version:  2212                                  |
|   \\  /    A nd           | Website:  www.openfoam.com                      |
|    \\/     M anipulation  |                                                 |
\*---------------------------------------------------------------------------*/
FoamFile
{
    version     2.0;
    format      ascii;
    arch        "LSB;label=32;scalar=64";
    class       surfaceVectorField;
    location    "0.004";
    object      Uf;
}
// * * * * * * * * * * * * * * * * * * * * * * * * * * * * * * * * * * * * * //

dimensions      [0 1 -1 0 0 0 0];

internalField   nonuniform List<vector> 
68568
(
(0.106319 0.000256906 -0.000390807)
(0.106238 0.000520094 -0.000265135)
(0.106018 0.000205532 -3.80376e-05)
(0.106692 0.000562535 -0.000107671)
(0.106311 -0.000196876 5.50447e-05)
(0.106246 -0.000301432 -0.00014489)
(0.106028 -0.000165952 6.61581e-05)
(0.105341 -4.70059e-05 9.05324e-05)
(0.106682 6.16514e-05 1.55208e-05)
(0.106465 -0.000351126 0.000187841)
(0.10623 -2.73966e-05 -0.00016509)
(0.106268 -0.000554649 0.00026633)
(0.106707 -0.00010485 4.5997e-05)
(0.106485 0.000162119 2.70111e-05)
(0.106946 0.000167925 0.00011174)
(0.106849 0.00011459 8.08384e-06)
(0.105787 -0.000270274 0.000283441)
(0.106332 -0.000343927 0.000268417)
(0.105499 -0.00035082 -6.97662e-05)
(0.105987 -0.000390299 -5.69522e-05)
(0.106576 -8.06316e-05 -1.09679e-06)
(0.106322 0.000142232 -1.22742e-05)
(0.106507 0.000157983 -7.15608e-05)
(0.105858 7.44488e-06 -0.000283226)
(0.105846 -9.94711e-05 -0.000169349)
(0.104893 -1.40631e-05 -7.18862e-06)
(0.105372 -4.36966e-06 -0.000167575)
(0.106014 -2.69236e-05 -8.22287e-05)
(0.10582 -7.3399e-07 0.000274818)
(0.106148 0.000158303 -0.00018606)
(0.105916 -0.000121606 2.23611e-05)
(0.106175 -5.5636e-05 0.000112112)
(0.105909 5.25704e-05 -0.000103303)
(0.105966 0.00014275 -0.000293239)
(0.106536 -3.88063e-05 0.000114721)
(0.106545 -3.17573e-06 -0.000212465)
(0.106591 9.51423e-05 -0.000243843)
(0.10679 -0.00014025 -0.000100955)
(0.106675 0.000335873 -0.000158867)
(0.1067 0.00016449 -0.000132277)
(0.106822 2.00055e-05 -9.20177e-06)
(0.105927 8.35885e-05 -0.000212961)
(0.106777 -0.000148103 -0.000336313)
(0.106607 -0.000220125 -0.000257841)
(0.10634 3.13924e-06 1.80253e-05)
(0.106218 -4.65466e-05 0.000119903)
(0.105533 6.31403e-05 -8.38999e-05)
(0.106737 -0.000119712 -0.000115992)
(0.106627 -3.59122e-05 2.61671e-06)
(0.106525 -4.37199e-05 4.40158e-05)
(0.105884 -3.30491e-05 -3.19844e-05)
(0.105788 -9.38218e-05 -1.42344e-05)
(0.1062 -0.00019244 -9.3425e-05)
(0.106113 -0.000211714 9.79434e-05)
(0.105222 -0.000185559 5.12382e-05)
(0.105961 -0.000169368 0.00030449)
(0.104904 -9.18074e-05 0.000144973)
(0.105336 3.93286e-05 0.000302234)
(0.105826 7.91717e-06 0.000130513)
(0.105588 8.19136e-06 -0.000224836)
(0.105639 0.000175502 -0.000177166)
(0.105773 -2.86142e-05 -0.000239227)
(0.105928 -0.000221349 -0.000261551)
(0.104896 -6.26502e-05 5.14823e-05)
(0.104906 -0.00019164 9.58789e-05)
(0.105573 -0.000185215 6.33817e-06)
(0.105582 0.000309837 -0.00018803)
(0.10532 9.73618e-05 -7.51105e-05)
(0.10486 0.000458329 -0.000177801)
(0.105865 0.000253954 -0.000125069)
(0.106307 -2.4237e-05 -0.000123232)
(0.106586 -0.000175774 -0.000122654)
(0.106555 -0.000169832 -0.0003819)
(0.105888 -8.41026e-05 -0.000182217)
(0.105061 -3.70099e-05 0.000194486)
(0.105517 6.96556e-05 0.000296934)
(0.105056 0.000240637 0.000245449)
(0.10284 3.68273e-05 3.36815e-05)
(0.106281 -8.35755e-05 4.48113e-05)
(0.106632 0.000203974 -5.33243e-06)
(0.106269 0.000155573 4.27205e-05)
(0.106442 0.000156877 -5.86175e-06)
(0.106444 5.65168e-05 6.32681e-05)
(0.106447 0.000152807 0.000263461)
(0.10587 0.000201495 0.000317664)
(0.106655 8.03813e-05 0.000121573)
(0.105393 7.06351e-05 -8.19522e-05)
(0.105462 0.000246381 -0.000216895)
(0.106075 0.000406608 -0.000238789)
(0.106073 0.000275292 -4.88823e-05)
(0.104723 6.34608e-06 -0.000181214)
(0.105702 -8.40688e-05 -0.000249253)
(0.105213 -2.45383e-05 -0.000209976)
(0.105776 -8.639e-05 8.34313e-05)
(0.105819 0.000191122 -0.000174054)
(0.105972 3.23477e-05 -0.000236132)
(0.106446 5.2614e-05 6.24702e-05)
(0.106373 1.61787e-05 5.75778e-05)
(0.106499 -0.000154584 6.33919e-05)
(0.105774 -5.41645e-05 0.000212353)
(0.107579 0.000309376 0.000522547)
(0.107357 0.000525088 0.000432993)
(0.107993 0.000226079 0.000244078)
(0.107602 -3.78278e-06 -7.8836e-05)
(0.105978 0.000221676 0.00036679)
(0.104937 0.000241116 0.000152231)
(0.105272 3.42303e-06 0.000367038)
(0.106236 0.000235371 5.3751e-05)
(0.10623 -1.26909e-05 0.000414222)
(0.106339 0.000329482 -2.85673e-05)
(0.106686 -0.000237663 -8.87404e-05)
(0.106624 8.98759e-05 -5.96989e-05)
(0.106773 -0.000108762 -0.000128983)
(0.106537 -0.000139938 1.63353e-05)
(0.105633 -0.000175544 -8.12605e-05)
(0.105631 5.42386e-05 -0.000134524)
(0.10491 -9.74561e-05 -1.83201e-06)
(0.104871 4.18583e-05 3.06602e-05)
(0.106569 6.8232e-05 -9.69788e-06)
(0.106483 4.21793e-05 -0.000111401)
(0.106289 -6.16887e-05 -0.000307866)
(0.106479 -3.434e-05 -0.000332375)
(0.105369 7.65786e-05 -0.000278582)
(0.104983 -9.14464e-05 -0.000277681)
(0.106115 4.72781e-05 -0.000161269)
(0.106064 0.000201181 -0.000206775)
(0.105405 -6.02466e-06 1.23308e-05)
(0.104909 -1.5445e-05 -0.000221245)
(0.104761 -0.000299864 -1.18442e-06)
(0.103078 -0.000128258 -3.93246e-05)
(0.106522 0.000401603 -0.000362329)
(0.10487 9.15952e-05 4.73547e-05)
(0.104807 4.73396e-05 -5.5485e-05)
(0.104275 1.67208e-05 -6.97802e-06)
(0.102627 1.88862e-05 -2.39204e-05)
(0.106758 -9.39435e-05 -8.55121e-06)
(0.106595 -0.000339075 0.000254809)
(0.10671 -0.000144558 6.91288e-05)
(0.1066 -0.000212704 1.05477e-05)
(0.106483 -0.000138111 2.82318e-05)
(0.106421 -3.35681e-06 -2.12314e-05)
(0.106721 -8.76255e-07 0.000113205)
(0.104464 0.000310486 -0.000210831)
(0.104779 -8.99473e-05 -0.000147136)
(0.102855 9.8807e-05 -6.15251e-05)
(0.105669 -4.50704e-05 -3.46206e-05)
(0.10506 0.000101648 -0.000149017)
(0.103026 9.91673e-05 -9.99022e-06)
(0.105287 0.000190851 7.35193e-05)
(0.105172 7.53061e-05 -9.15167e-05)
(0.105449 -8.6943e-05 -8.17313e-05)
(0.10274 5.44999e-05 7.13873e-05)
(0.106564 -0.000100618 7.14014e-05)
(0.106357 -0.000143023 0.000113903)
(0.10635 -0.000324335 -3.70113e-05)
(0.106629 -0.00084669 -0.000230279)
(0.10645 -0.000619857 -0.000418221)
(0.106607 -0.000340228 -0.000552979)
(0.106465 -0.000254149 0.000101919)
(0.106551 -0.000298572 0.000126449)
(0.106403 -0.000166413 0.000167199)
(0.10688 -0.000418493 7.21396e-06)
(0.106837 -0.000347807 -8.98513e-05)
(0.10669 -0.000284464 -0.000199349)
(0.106822 -7.20187e-05 -0.000329837)
(0.105984 0.000233097 -0.000162612)
(0.105783 0.000279988 -0.000117986)
(0.105015 0.000165175 -2.81834e-05)
(0.105868 0.000262326 -0.000328138)
(0.106037 0.0001685 -0.000228919)
(0.10558 0.000156785 -0.00032028)
(0.105227 0.000464592 -0.000296821)
(0.105582 7.29068e-06 0.000290522)
(0.105537 4.33028e-06 0.000155051)
(0.106056 0.000215175 -3.34279e-05)
(0.10585 8.89743e-05 0.000234333)
(0.106336 -0.000104853 -0.000317198)
(0.106676 -4.05126e-05 -3.37098e-05)
(0.106755 0.000248182 -8.479e-05)
(0.106813 0.000204854 -0.000173576)
(0.107051 9.41984e-05 -4.75847e-05)
(0.105351 0.000113206 -0.000385711)
(0.104837 0.000116588 -0.00021153)
(0.104828 5.56232e-06 -9.62098e-05)
(0.10241 7.37208e-05 -1.41475e-05)
(0.106461 0.000122567 0.000136533)
(0.106265 0.000119592 7.84123e-05)
(0.106709 -7.23574e-05 9.8442e-05)
(0.106586 -7.1594e-05 0.000205012)
(0.104611 -7.58658e-05 -2.72358e-05)
(0.102711 2.27776e-05 2.68559e-05)
(0.105616 5.67256e-05 -0.000236976)
(0.105552 -8.86247e-05 2.54668e-05)
(0.106109 0.000103889 -0.000159729)
(0.106191 -5.41748e-05 -8.828e-05)
(0.105349 0.000204523 0.000214981)
(0.105439 0.000270298 0.000139955)
(0.1058 -3.85828e-05 -9.74131e-05)
(0.10531 0.000379622 -0.000213999)
(0.105018 0.000412102 -0.000128556)
(0.105201 0.000342571 0.000110575)
(0.102949 0.000256711 1.82287e-05)
(0.106417 2.92919e-05 0.000218943)
(0.106471 -4.75538e-05 7.15198e-05)
(0.106184 3.33868e-05 8.48405e-05)
(0.105719 7.62544e-05 0.00021817)
(0.106489 -0.000155337 0.000217953)
(0.10622 -3.90471e-05 0.000158405)
(0.106459 -0.000159418 9.67425e-05)
(0.105586 2.69277e-05 0.000192922)
(0.10471 -0.000115553 -0.000157655)
(0.104854 4.0248e-05 0.000145017)
(0.103044 -8.78982e-05 -5.4986e-05)
(0.105818 -0.000209845 -0.000117306)
(0.105798 0.000128725 -1.62393e-05)
(0.105841 0.000283115 7.20195e-05)
(0.106047 0.0002007 -0.000175337)
(0.106203 -6.20341e-05 -3.92302e-05)
(0.106469 -3.98397e-05 -0.000306804)
(0.106107 0.000147007 -0.000423359)
(0.10592 -4.16448e-05 -8.9534e-05)
(0.105304 7.73652e-05 -5.04403e-05)
(0.105317 -0.0002332 -0.000108692)
(0.103074 -8.80321e-05 -3.50997e-05)
(0.106662 6.42147e-05 -3.23317e-05)
(0.106693 0.000152402 0.000224277)
(0.105696 3.93725e-05 -6.83447e-05)
(0.105802 2.7513e-05 -4.72687e-05)
(0.105722 0.00021782 2.23915e-05)
(0.106034 0.000186333 0.000115619)
(0.105698 0.000218283 0.000266003)
(0.106846 0.000228315 -0.00011011)
(0.106946 5.84638e-05 -0.000168332)
(0.106796 0.000163682 -7.57435e-05)
(0.106523 0.000212738 2.84755e-05)
(0.105357 0.000418724 -0.000235061)
(0.105958 -3.91401e-06 -0.000443626)
(0.106014 -0.000150416 -0.000205242)
(0.106231 -2.30186e-05 2.65621e-05)
(0.106483 -2.63904e-06 -0.000101232)
(0.106291 -4.88172e-05 2.00694e-05)
(0.105671 5.62059e-05 -0.00013369)
(0.105612 -0.000261247 0.000315419)
(0.105455 0.000151984 0.000321768)
(0.102933 -7.5756e-06 0.000110386)
(0.106743 0.000343017 -1.08038e-06)
(0.106827 0.000360431 -0.000125697)
(0.10646 0.000201393 1.54121e-05)
(0.106579 0.000182686 -0.000295276)
(0.106651 6.23791e-05 0.000260432)
(0.106455 -0.000137861 0.000175415)
(0.106704 -0.000232858 0.000162194)
(0.106332 0.000152709 3.10535e-05)
(0.105565 -0.000259438 -0.000200806)
(0.105509 -0.000152061 3.19687e-05)
(0.105869 -0.000365617 -0.000153808)
(0.104504 -0.000496748 -0.000296033)
(0.106657 1.8246e-05 -0.000196404)
(0.106613 -0.000256889 -0.000333074)
(0.106803 -0.000182675 -7.78107e-05)
(0.10688 2.81243e-05 -9.35046e-05)
(0.10667 2.01484e-05 -0.000150709)
(0.106352 -5.52822e-05 3.60205e-05)
(0.106351 -2.40176e-05 1.01772e-05)
(0.105762 8.22656e-05 -0.000186773)
(0.106488 2.79379e-05 9.89963e-05)
(0.106356 6.15163e-05 3.82033e-05)
(0.105889 -6.34177e-05 -5.24386e-05)
(0.104785 -0.000107958 6.91157e-05)
(0.104842 -9.98652e-05 6.84011e-05)
(0.105147 3.48354e-05 -1.03651e-05)
(0.102758 1.4681e-05 4.4503e-05)
(0.106634 -6.28029e-05 -2.42777e-05)
(0.106817 -0.000277997 0.000122592)
(0.106927 -0.000268424 0.000184506)
(0.105718 2.65258e-05 -0.000150006)
(0.106269 3.34379e-05 -5.07458e-05)
(0.106153 0.000269446 4.10847e-05)
(0.106245 -5.88208e-05 9.65011e-05)
(0.106364 4.98611e-05 7.62546e-05)
(0.106538 0.000151441 0.000170328)
(0.105515 -3.20262e-05 0.000170181)
(0.105358 -3.81469e-06 -0.000165124)
(0.106683 -5.06062e-06 0.000123228)
(0.106179 0.000121375 9.91817e-05)
(0.106738 0.000259604 0.000155829)
(0.105 0.000291023 -1.46738e-05)
(0.105943 7.17413e-05 -0.000110594)
(0.105906 2.90566e-05 3.49993e-05)
(0.10418 0.000114674 -8.61481e-06)
(0.104613 0.000121728 6.38345e-05)
(0.104409 1.96068e-05 0.000159112)
(0.102689 2.38476e-05 4.251e-05)
(0.106846 8.73147e-05 -0.000249024)
(0.106512 4.58582e-05 -0.000329535)
(0.106833 -3.595e-05 -0.00030354)
(0.106796 -0.000176006 -1.4433e-05)
(0.106935 -0.000239784 -0.000259111)
(0.106502 -3.09337e-05 -2.51308e-05)
(0.106703 2.18104e-05 -4.54171e-05)
(0.10575 -9.01979e-05 0.000102179)
(0.106007 8.94597e-05 -5.94724e-05)
(0.106281 -0.000108981 -3.60931e-05)
(0.106396 4.10996e-05 -8.60484e-05)
(0.106009 -7.88355e-05 0.00015503)
(0.106743 -0.000160099 -4.89407e-05)
(0.106465 -0.000122117 -0.000317457)
(0.106521 -0.000141163 0.000158032)
(0.106685 -0.000243044 -0.000116851)
(0.106924 4.73993e-06 6.26122e-05)
(0.106609 5.20483e-05 -1.27228e-06)
(0.106773 5.64747e-05 -0.000105236)
(0.10675 0.00013312 -0.000113926)
(0.106709 -3.01656e-05 -8.88054e-06)
(0.106733 0.000158765 -0.000189385)
(0.104914 0.000420736 -0.000548301)
(0.105604 6.6384e-05 -0.00026418)
(0.105372 0.000322937 -0.000386844)
(0.102165 7.37726e-05 -0.000276372)
(0.106391 0.000228243 -0.000106029)
(0.106689 9.40056e-05 -9.31883e-05)
(0.106892 0.000320649 -0.000322368)
(0.106443 -8.0386e-05 0.000107219)
(0.106794 7.34379e-05 -8.18889e-05)
(0.105818 0.00015362 -9.40815e-05)
(0.105245 -3.16341e-05 -9.41839e-05)
(0.105114 -0.000229647 -2.43738e-05)
(0.105782 -0.000121282 3.51953e-05)
(0.105575 -0.000224966 -4.02013e-05)
(0.10511 -1.21093e-05 -0.000382904)
(0.105148 7.27979e-05 -0.000106185)
(0.102591 -3.27451e-05 -5.02917e-05)
(0.106022 0.000303851 -0.000124667)
(0.106441 0.000161691 -0.000315642)
(0.105475 3.07572e-06 -7.09865e-05)
(0.104965 -6.9951e-05 -9.03776e-05)
(0.105663 -0.000262541 -2.23803e-05)
(0.104861 -0.000331805 0.000172157)
(0.105654 -0.000242384 2.14391e-05)
(0.105995 0.000494584 -0.00023968)
(0.105994 0.000493354 -0.000181316)
(0.105708 0.000411622 0.000116411)
(0.105517 0.000525013 5.03941e-05)
(0.105767 0.000243073 -3.54727e-05)
(0.106009 0.000272896 -0.000169768)
(0.106437 0.000430296 -8.86156e-06)
(0.106644 -0.000223692 0.000110568)
(0.10658 -0.000155552 0.000219563)
(0.105604 -3.39997e-05 0.00020965)
(0.106245 0.000119368 6.60409e-05)
(0.106224 3.42758e-05 -1.1134e-05)
(0.106489 5.54232e-05 -9.3113e-05)
(0.105618 -1.01073e-05 -0.000186353)
(0.105171 -0.000212133 -0.000270153)
(0.105353 9.90388e-05 -0.000324613)
(0.104947 -0.00027839 -0.000255306)
(0.10281 -0.000155463 -0.00020217)
(0.105998 0.000300044 8.47815e-05)
(0.106152 0.000192156 -0.000117162)
(0.105552 -6.42608e-06 -0.000269587)
(0.106161 0.000173661 -0.000112314)
(0.105957 2.78841e-05 0.000238323)
(0.105917 0.00015031 0.000121042)
(0.105874 0.000230027 0.000211836)
(0.105812 -6.5829e-05 -9.40408e-05)
(0.105247 9.62543e-05 -3.81346e-05)
(0.104588 2.86101e-06 -3.96185e-05)
(0.105024 -0.000348651 -2.02527e-05)
(0.104718 -8.91909e-05 -0.00011689)
(0.102604 -2.66634e-05 3.68974e-06)
(0.105341 6.01772e-05 -0.000126227)
(0.102623 8.12793e-05 -0.000138512)
(0.106708 -0.00016443 -0.000208902)
(0.107024 9.13234e-05 7.20984e-05)
(0.107062 -7.95371e-06 -0.000285759)
(0.102966 0.000182891 0.000118089)
(0.1049 0.000186671 -0.000377818)
(0.105211 0.000356442 -0.000199649)
(0.105031 0.000228768 -0.00040235)
(0.102416 0.0001781 -0.000472286)
(0.104917 0.000251984 0.000166861)
(0.105843 0.00024951 6.92027e-05)
(0.104839 -6.34382e-05 0.000149887)
(0.104624 5.54218e-05 0.000105638)
(0.105158 0.000143772 0.000158633)
(0.102738 -6.88951e-05 -4.12534e-05)
(0.10654 -0.000279198 4.52449e-05)
(0.106254 -0.000260047 0.000245958)
(0.10642 -9.21795e-05 0.000152094)
(0.106604 -0.000222217 7.57967e-05)
(0.105759 0.00022458 -0.000471388)
(0.105322 2.63725e-05 -0.000287489)
(0.105299 6.31015e-05 -0.000143837)
(0.102848 0.000110951 -0.000177265)
(0.106296 -6.15152e-05 -0.000295626)
(0.106212 -8.67711e-06 -0.000197414)
(0.106263 -0.000320951 -9.00211e-05)
(0.105568 -0.000117378 -0.000272966)
(0.105268 -8.97249e-05 -0.000169568)
(0.105246 -0.000429465 -0.000135727)
(0.105684 -0.00019826 -0.000128635)
(0.106696 -9.12136e-05 -0.000133111)
(0.106603 3.50745e-05 -0.000105577)
(0.10638 -4.82274e-05 3.69066e-05)
(0.105675 0.000139026 -0.000236517)
(0.105172 8.97741e-05 -0.000234644)
(0.104863 -9.7393e-05 -0.000181145)
(0.105017 -0.000106873 -0.000106417)
(0.102788 -0.000101324 -0.000105772)
(0.106287 0.000116422 8.84487e-05)
(0.105283 3.01371e-05 4.88632e-06)
(0.105166 -7.16143e-05 0.00011733)
(0.106079 -0.000486209 0.000110096)
(0.105301 -0.000244216 4.4681e-06)
(0.106085 -0.000318113 0.000118624)
(0.106263 -0.000133851 7.44676e-05)
(0.10557 -0.000244448 -7.64734e-05)
(0.10617 -0.00021543 -1.28005e-05)
(0.106517 0.000221425 0.000208021)
(0.106468 3.01445e-06 0.000139953)
(0.105663 -6.42879e-05 0.000143145)
(0.105604 -0.000209257 -3.15429e-05)
(0.105885 -6.64493e-05 -9.1933e-05)
(0.106105 4.56587e-05 -5.42477e-05)
(0.106413 -0.000152793 0.000109427)
(0.10655 -0.000133202 8.54451e-05)
(0.106703 -8.20226e-06 2.55957e-05)
(0.106803 -8.0316e-05 0.000197299)
(0.106606 3.05719e-05 0.000103489)
(0.106564 0.000100569 -0.000264756)
(0.106796 1.73436e-05 -3.16218e-05)
(0.105734 0.000314903 -0.000238789)
(0.106033 -2.53731e-05 -0.000279596)
(0.106265 0.000225804 -0.000367097)
(0.105816 -4.15425e-05 -0.000121648)
(0.106688 0.000455734 -0.000458037)
(0.106046 -0.000127518 2.45047e-06)
(0.106516 -4.14932e-05 4.18405e-05)
(0.106524 5.45888e-05 -1.58855e-05)
(0.106517 -0.00011675 4.91932e-05)
(0.106395 0.000137021 9.96293e-05)
(0.106575 0.0001927 0.000182904)
(0.105557 6.10071e-05 0.000136682)
(0.104784 1.68745e-06 -2.12432e-05)
(0.104815 0.000288908 -0.000242883)
(0.105017 -0.000143753 -0.000248969)
(0.105785 -2.2588e-05 -0.000156339)
(0.105837 -0.000130485 -0.000138981)
(0.106554 -0.000248535 0.000133592)
(0.1064 8.4065e-06 5.73253e-05)
(0.106685 -9.11704e-05 -0.000190943)
(0.106802 3.07821e-05 4.41301e-05)
(0.106457 0.000157494 -0.000196791)
(0.106142 -0.000140039 -0.000156702)
(0.106282 0.000210041 -0.000211549)
(0.106284 0.000213181 -1.03385e-05)
(0.106457 0.000284762 -0.000100207)
(0.10652 0.000131611 -0.00042784)
(0.106463 0.000269387 -0.000160542)
(0.106487 -0.000118805 -0.000105846)
(0.106288 3.77809e-06 -4.011e-05)
(0.106476 5.31267e-05 0.000142033)
(0.106308 -8.43761e-05 1.94156e-05)
(0.106571 -0.000165702 2.30713e-06)
(0.10625 2.56055e-05 6.47792e-05)
(0.105516 -9.26357e-05 -8.20353e-06)
(0.106667 -4.35983e-05 0.000211413)
(0.105448 0.000160513 -0.000255774)
(0.106387 -3.64158e-05 -7.11413e-05)
(0.106624 5.50668e-05 -0.000135788)
(0.106327 0.000128491 -0.000236525)
(0.106801 0.000193562 0.000291651)
(0.105695 0.000120661 -9.43423e-05)
(0.104795 0.00031265 -0.00033125)
(0.102882 0.000157166 -0.000142764)
(0.104947 -0.000127877 -0.000356993)
(0.102639 -0.000158262 -0.000129969)
(0.106884 0.000286885 0.000444554)
(0.106714 0.000309822 9.90266e-05)
(0.106387 8.33831e-06 -8.84108e-05)
(0.105673 -8.69486e-05 -1.88473e-05)
(0.106708 -7.1281e-05 -0.000216162)
(0.10664 -6.88912e-05 -7.00893e-05)
(0.106365 -2.61294e-05 -9.02718e-05)
(0.105647 -7.97697e-05 7.94673e-05)
(0.106714 2.16252e-05 0.000191105)
(0.106866 1.23252e-05 0.00016868)
(0.106854 3.50196e-05 0.000161827)
(0.106416 5.31291e-05 6.14096e-05)
(0.106463 0.000229608 -6.65296e-05)
(0.106413 6.03077e-05 -0.000126388)
(0.106641 6.67432e-05 -8.72086e-05)
(0.104587 -9.18681e-05 -4.98987e-06)
(0.105105 0.000111112 0.000215811)
(0.102396 -7.70674e-06 -0.000120556)
(0.105376 0.000237088 -0.000271127)
(0.105126 -1.41398e-05 -0.000259806)
(0.104939 2.86598e-05 -0.000159501)
(0.102774 -4.37389e-05 -0.000253706)
(0.106572 -0.00012637 8.45258e-06)
(0.106 -0.000134903 -0.000222171)
(0.10653 -0.000138445 -4.66273e-05)
(0.105788 -6.43662e-05 -0.000196899)
(0.106289 8.38092e-05 -0.000286419)
(0.104968 -0.000186416 -0.000141121)
(0.10498 -0.000234795 -0.000242949)
(0.102607 -0.000157606 -0.000129236)
(0.105508 -9.76051e-05 -6.34584e-05)
(0.105103 0.000311404 6.6954e-06)
(0.104797 -6.27726e-05 0.000178658)
(0.1032 5.00727e-05 6.71556e-05)
(0.1062 -0.000231895 -9.18042e-05)
(0.106099 -6.3856e-05 -0.000133733)
(0.106096 -9.97448e-05 -0.000229618)
(0.106306 2.6781e-05 -0.000241104)
(0.105154 -0.000257127 -0.000203035)
(0.105087 0.000391805 -0.000231568)
(0.1059 4.5171e-05 -9.14264e-05)
(0.10286 -7.42131e-05 -0.000231239)
(0.10603 8.53193e-05 0.000146334)
(0.105889 -0.000203442 -0.000152727)
(0.105818 -0.000109763 -0.000135477)
(0.105202 7.56666e-05 0.000203367)
(0.10552 1.77237e-05 -0.000133379)
(0.106124 0.000120896 -0.000324486)
(0.105908 0.000122155 -0.000372364)
(0.106128 -4.58982e-05 2.72215e-06)
(0.106542 -0.000119703 -1.03236e-05)
(0.106275 0.000134908 -0.000129707)
(0.105647 2.96253e-05 -0.000127364)
(0.105052 0.000293663 -0.000343342)
(0.105386 0.000374838 -0.000296222)
(0.102502 -6.96541e-05 -0.000357434)
(0.106819 -2.47184e-05 8.77023e-05)
(0.106868 -0.000110727 0.000133184)
(0.10639 -2.56369e-06 0.000152929)
(0.10687 1.94717e-05 3.02094e-05)
(0.106273 -0.000168728 -2.86477e-05)
(0.105796 -1.55983e-05 1.49892e-05)
(0.105689 -9.613e-05 2.39919e-06)
(0.106181 4.13667e-05 0.000147849)
(0.105727 -0.000290819 0.000204403)
(0.105901 -0.000118449 7.46537e-05)
(0.103073 -2.70025e-05 0.000129171)
(0.10541 -0.000330614 0.000311404)
(0.105089 -0.000357397 0.000253523)
(0.105315 -0.000137993 0.00021676)
(0.1027 -4.41211e-05 -1.47522e-05)
(0.106066 3.0639e-05 -0.00011292)
(0.105028 -1.92521e-05 -6.67667e-05)
(0.105573 -9.77406e-05 -0.000350133)
(0.10698 -1.43314e-05 -2.36327e-05)
(0.106799 -1.08498e-05 -9.49735e-05)
(0.104792 -6.60072e-05 0.00028983)
(0.104669 2.77375e-05 0.000147607)
(0.104999 -0.000308151 3.21364e-05)
(0.102587 -5.72186e-05 0.000109596)
(0.105502 -0.000374901 -8.93202e-05)
(0.105345 -7.10445e-05 0.000146535)
(0.102864 -0.000338673 -0.000189914)
(0.1048 -9.29729e-05 4.55918e-05)
(0.105312 0.000134485 -6.66004e-05)
(0.104946 -9.80701e-05 -0.000143196)
(0.102863 -8.3834e-05 -0.000110282)
(0.104949 -0.000160619 0.000126677)
(0.105501 -0.000161101 9.35388e-05)
(0.105242 -0.00028454 -0.000226584)
(0.102749 -0.000115404 -0.000106031)
(0.105573 5.21685e-05 -0.000102353)
(0.105834 0.000116212 -2.41452e-05)
(0.105953 5.17802e-06 -1.71102e-05)
(0.105144 0.000140868 -6.49022e-05)
(0.105175 0.000342134 0.000291071)
(0.105011 8.34195e-05 0.000344737)
(0.102824 0.000172148 0.000110672)
(0.106562 -0.000235839 9.93394e-05)
(0.106335 -0.000162195 0.000189911)
(0.106393 -0.000138178 3.3799e-05)
(0.106232 -0.000410104 4.73122e-05)
(0.106621 -0.000144359 0.000257702)
(0.106661 -0.000124989 -0.000177526)
(0.106849 -0.000255222 0.000118817)
(0.106959 -0.000127111 2.01969e-05)
(0.104325 0.000186928 -0.000106798)
(0.104425 -0.000132451 0.000339201)
(0.104892 -0.000132987 0.000196043)
(0.102792 -0.00027328 0.000165916)
(0.105503 -0.000124315 0.000108878)
(0.105729 -0.000321541 -4.71378e-06)
(0.105702 -3.01175e-05 5.99922e-05)
(0.104222 -8.51354e-05 0.00019952)
(0.105881 0.000290834 -0.000159509)
(0.106314 0.000235218 -0.00039824)
(0.106434 0.000289633 -0.000383487)
(0.105613 0.000299541 -0.000569025)
(0.10533 -0.000108694 -4.32842e-05)
(0.104784 0.000102312 -0.000133675)
(0.104667 -0.000325325 7.24862e-05)
(0.102988 -1.5568e-05 -7.41573e-06)
(0.10659 -3.95851e-05 2.84721e-05)
(0.105721 2.93726e-05 -8.48959e-05)
(0.106434 -0.000218122 -0.000239246)
(0.106731 -0.000135441 -5.84485e-05)
(0.10663 3.50796e-05 -8.87781e-05)
(0.106504 0.00012084 -0.000203161)
(0.106515 0.000251765 -0.000130471)
(0.10589 0.000225737 -0.000175175)
(0.10567 0.000284557 8.10362e-05)
(0.106364 0.000154784 -0.000200406)
(0.106055 0.000327742 -0.000133527)
(0.106209 0.00022695 7.24185e-05)
(0.106338 0.000107386 1.76078e-05)
(0.106524 -6.24462e-05 -9.01341e-05)
(0.106658 -5.07926e-05 -3.5707e-05)
(0.105756 -7.91278e-05 -0.000132395)
(0.106394 1.7164e-05 -9.93605e-05)
(0.106119 -7.95402e-05 3.86942e-05)
(0.106443 -7.33774e-05 -1.76453e-05)
(0.105454 3.74477e-05 -0.000200883)
(0.106494 4.07802e-05 -0.000124352)
(0.106566 7.83618e-05 -8.86805e-05)
(0.105711 0.000103855 -0.000111731)
(0.105337 -0.000103081 0.000200555)
(0.106026 -0.000348087 0.00010793)
(0.106018 -0.000234788 0.000204474)
(0.105776 9.27903e-05 6.65e-05)
(0.106296 6.47995e-05 -0.000138816)
(0.106319 0.000191463 -0.000180304)
(0.105526 0.000312047 0.000132032)
(0.105462 0.000192832 0.000233814)
(0.104733 0.000188463 -7.26842e-05)
(0.102813 0.000201626 -7.23532e-05)
(0.106523 -0.000208984 0.000153636)
(0.106656 0.000178968 -0.000504955)
(0.106717 0.000682396 -0.000316682)
(0.106232 -0.000143528 8.04573e-05)
(0.10608 -0.000217246 0.000149053)
(0.105181 -0.000310654 0.000245243)
(0.105991 0.000180368 -5.01341e-05)
(0.106297 -0.000139689 2.76883e-05)
(0.106245 2.02564e-05 -0.000297283)
(0.106329 0.000113886 -0.000258935)
(0.105406 0.000191394 -0.000167606)
(0.105539 0.000144452 1.63792e-05)
(0.105244 9.58669e-05 -0.000248475)
(0.102678 0.000154842 -3.93985e-05)
(0.104738 0.000230194 0.000404536)
(0.104889 2.22496e-05 0.000411551)
(0.105156 1.70288e-05 0.000577514)
(0.102808 1.34303e-05 0.00024682)
(0.106151 -0.00010596 -0.000345997)
(0.106164 0.000102545 -5.78706e-05)
(0.106505 -0.000180065 -4.18067e-05)
(0.106384 0.000185992 -0.000238306)
(0.106309 -0.000154045 0.000297637)
(0.106633 4.70001e-05 0.000280125)
(0.10604 5.34879e-05 0.000330597)
(0.105349 -3.26455e-05 0.000477153)
(0.105728 -8.71691e-05 0.000106363)
(0.105675 -0.000288639 0.000181552)
(0.105538 -0.000107734 0.000477993)
(0.106268 -4.32507e-05 9.24922e-05)
(0.106625 -0.000141515 0.000133243)
(0.105665 3.60982e-05 0.000202794)
(0.106823 -8.92419e-05 -0.0001826)
(0.106823 0.000100149 -9.32589e-05)
(0.106394 -0.000106053 3.00225e-05)
(0.105797 0.000161734 -3.73821e-05)
(0.105999 -3.48795e-06 6.43998e-05)
(0.105591 2.9271e-05 0.000162729)
(0.106163 5.96446e-05 0.000190069)
(0.105061 0.000250586 -5.89101e-05)
(0.105798 0.000398756 7.94746e-05)
(0.105276 0.000152065 0.000285656)
(0.10591 0.000342037 0.000171312)
(0.106824 0.000129541 0.000195687)
(0.106419 0.000292699 2.73717e-05)
(0.106507 -0.000208565 -0.000140928)
(0.105251 1.72093e-05 0.000108509)
(0.102678 5.70865e-07 -0.000103495)
(0.10532 0.000140496 -1.7621e-05)
(0.105895 9.75484e-05 -3.4978e-05)
(0.106774 6.75835e-05 -2.17519e-05)
(0.106716 -0.000180681 4.01174e-05)
(0.10652 -5.17382e-05 9.2061e-06)
(0.10684 -0.000179354 3.35615e-05)
(0.106421 -7.32839e-05 5.2079e-05)
(0.106324 -6.34678e-05 -0.000187332)
(0.106343 -0.00012425 -9.42855e-06)
(0.106303 -6.71001e-05 -0.000202539)
(0.106627 -0.000188805 -2.10118e-05)
(0.106495 -0.000212876 -7.44613e-05)
(0.10618 -9.24725e-05 3.64114e-05)
(0.105948 -0.000550056 0.000273062)
(0.106189 -0.000500192 -5.01292e-05)
(0.106116 -0.000434647 -8.16036e-05)
(0.106078 -2.0487e-05 -0.000117002)
(0.106024 1.11513e-05 -0.000212449)
(0.105588 -1.92335e-05 9.61972e-05)
(0.106701 7.51475e-05 0.000172476)
(0.105792 -0.000104985 0.000122199)
(0.106202 0.000261747 -7.21348e-05)
(0.106216 0.00024751 -7.29838e-05)
(0.106425 -0.000214768 -1.15577e-05)
(0.105556 -0.000102305 -1.1179e-05)
(0.106368 0.000109001 -0.000339639)
(0.105991 0.000170713 -0.000415631)
(0.106339 -6.14878e-05 -0.000404432)
(0.102671 -2.80364e-05 -0.0001671)
(0.106376 3.30593e-05 -0.000133372)
(0.105739 2.24611e-05 -0.000157419)
(0.105434 0.000108509 -0.000199099)
(0.105988 0.000236209 8.48235e-05)
(0.105409 0.000417809 6.06258e-06)
(0.106148 0.000496872 -5.24002e-05)
(0.106095 3.06595e-06 2.9527e-05)
(0.106116 2.37219e-06 -7.68709e-05)
(0.106036 0.000103311 2.44191e-05)
(0.105837 -4.24637e-05 -5.49803e-05)
(0.106373 0.000129925 -6.76598e-05)
(0.106012 4.97284e-05 -0.000331016)
(0.106264 8.45925e-06 -5.01895e-05)
(0.105943 -0.000233855 -0.000184847)
(0.105944 -0.0002234 -0.000192874)
(0.106333 -0.000165741 -8.34563e-06)
(0.106132 -0.000168358 0.000163253)
(0.106342 6.13167e-05 -0.000273792)
(0.106413 0.000165116 -4.12478e-05)
(0.105293 -0.000332163 0.00018974)
(0.105322 -0.000240452 6.63274e-05)
(0.102868 1.06729e-05 -2.52612e-05)
(0.105844 -0.000206129 -5.04696e-05)
(0.106268 -0.000291998 -5.48114e-05)
(0.106369 -0.000133272 -0.000223897)
(0.106098 9.6309e-05 -0.000227141)
(0.106462 -0.000234379 -0.000195553)
(0.106834 -2.07812e-05 -1.45502e-05)
(0.106697 0.000109477 -1.72467e-05)
(0.10638 2.42087e-05 -7.75956e-05)
(0.105559 -0.000275719 -0.000206673)
(0.106526 -0.000224253 -0.000219934)
(0.104464 0.00013393 4.80832e-05)
(0.104727 -0.000170663 0.000297207)
(0.104778 -0.000131912 0.000351564)
(0.102125 -0.000155313 0.000400748)
(0.106351 -0.000281656 -4.30311e-05)
(0.106046 -0.000445974 0.000128499)
(0.10585 -0.000277988 0.000440055)
(0.104797 -0.000367239 -0.000263165)
(0.102965 -4.01712e-05 -0.000119806)
(0.106035 5.68575e-05 -2.36558e-05)
(0.105975 -0.000106 0.000129902)
(0.102255 -9.21494e-05 -8.73546e-05)
(0.106176 -0.00018493 1.19862e-05)
(0.106517 -0.000213152 3.88867e-05)
(0.105131 3.19718e-05 0.000113554)
(0.105476 0.000289109 0.000153371)
(0.105777 6.97115e-06 7.34371e-05)
(0.105363 -0.000127751 -7.59055e-05)
(0.10532 3.18933e-05 -0.000143447)
(0.105391 3.63614e-05 -0.000269655)
(0.102642 2.57027e-05 8.25867e-05)
(0.105827 0.000133388 -1.21156e-05)
(0.105585 6.99182e-05 -0.000290038)
(0.105614 0.000105029 -0.000215824)
(0.106518 0.000141487 -4.42676e-05)
(0.106726 1.38369e-05 -0.000104421)
(0.105811 -7.65587e-05 -0.000198312)
(0.106328 -0.00022657 -0.000164478)
(0.106581 -0.000738915 -0.000367818)
(0.106539 3.84043e-05 0.00018616)
(0.105264 -2.06643e-05 -0.000125274)
(0.105217 -6.3465e-05 -0.000139505)
(0.102561 1.53977e-06 -4.94047e-05)
(0.105125 -0.00027983 -0.000124557)
(0.104727 -0.000117978 0.000105222)
(0.102812 -8.45853e-05 -8.2006e-05)
(0.106278 -0.000168755 4.61908e-05)
(0.1056 0.000138781 0.000179662)
(0.106095 -5.50187e-06 8.04643e-05)
(0.105785 0.000128123 4.22913e-05)
(0.106239 -0.000151822 -6.79711e-05)
(0.106681 -0.000163266 -8.55867e-05)
(0.106202 6.55203e-05 -0.000208265)
(0.105168 8.82687e-05 2.388e-05)
(0.105331 0.000173622 -7.35775e-05)
(0.102188 0.000243702 -0.000245909)
(0.106541 -0.000302007 0.000141479)
(0.106564 -0.000356298 5.68678e-05)
(0.106384 -0.000390479 3.58632e-05)
(0.105773 -4.1728e-05 -3.6901e-05)
(0.105283 3.1223e-05 -0.000174686)
(0.102968 4.91224e-05 -0.000174412)
(0.104686 9.66457e-05 0.00010705)
(0.104744 -9.07642e-05 0.00039853)
(0.102931 -5.75088e-06 6.92259e-05)
(0.106384 0.000105839 -3.12027e-06)
(0.106352 8.8879e-05 -5.39107e-05)
(0.106683 -3.33348e-05 0.000172026)
(0.105747 -0.000154925 -1.34957e-05)
(0.105907 -0.000141756 -0.000269234)
(0.106433 -0.000217204 1.48564e-05)
(0.105867 -8.09547e-05 0.000258948)
(0.106226 4.58783e-06 -3.37504e-05)
(0.105587 -0.000204089 0.000148406)
(0.105959 -0.00025446 8.98414e-05)
(0.10601 -0.000208664 0.000138049)
(0.105121 -0.000177515 0.000151186)
(0.104791 0.000300129 0.000223404)
(0.105515 0.000312297 1.82562e-05)
(0.105416 7.84405e-05 -0.00017086)
(0.105774 -7.61635e-05 -8.7373e-05)
(0.105296 0.000118476 8.40348e-05)