/*--------------------------------*- C++ -*----------------------------------*\
| =========                 |                                                 |
| \\      /  F ield         | OpenFOAM: The Open Source CFD Toolbox           |
|  \\    /   O peration     | Version:  2212                                  |
|   \\  /    A nd           | Website:  www.openfoam.com                      |
|    \\/     M anipulation  |                                                 |
\*---------------------------------------------------------------------------*/
FoamFile
{
    version     2.0;
    format      ascii;
    arch        "LSB;label=32;scalar=64";
    class       volScalarField;
    location    "0.014";
    object      epsilon;
}
// * * * * * * * * * * * * * * * * * * * * * * * * * * * * * * * * * * * * * //

dimensions      [0 2 -3 0 0 0 0];

internalField   nonuniform List<scalar> 
31639
(
4.13374
4.17486
4.23078
4.24693
4.09242
4.13401
4.09933
4.1793
4.12323
4.24761
4.25497
4.23365
4.1983
4.22163
4.14318
4.04936
4.14161
4.05888
3.9744
4.17286
3.96923
4.19082
4.24045
4.0089
4.0214
4.11818
4.18102
3.67704
4.08184
4.23439
4.24017
4.0489
4.24036
4.00279
3.98803
4.24829
3.88755
4.26396
4.25081
3.89637
3.98603
3.94044
4.2383
4.19771
4.23106
4.24172
4.14254
4.04575
4.12628
4.2408
4.23011
3.84674
4.26222
3.95707
4.01777
4.13683
3.93258
4.18884
4.17843
3.92985
4.089
4.16719
4.04133
4.15366
4.12737
4.2343
4.07266
4.19252
4.01797
4.2367
4.2549
4.0414
4.21617
4.17956
4.26452
3.99483
4.24753
4.06647
4.15809
4.19516
3.99599
3.90497
4.26002
4.21393
4.18586
4.24709
4.24815
4.25429
3.91851
4.27836
4.20037
4.06393
3.92079
4.16101
3.94134
4.13213
4.0733
4.18176
4.19505
3.95384
4.25092
4.25802
4.1475
3.91264
3.91333
4.24769
3.92175
3.88528
3.99119
3.96825
4.16228
3.96342
4.16602
4.03549
4.18146
3.92742
4.10616
4.0942
4.2516
4.17027
4.15183
4.23264
4.20161
4.10716
4.11882
4.23292
4.17301
3.9828
3.97887
4.22385
4.22668
4.18392
4.19254
4.05191
4.14975
4.19181
3.92071
3.92452
4.22349
4.18444
4.16957
4.22595
4.25033
3.88016
3.91388
4.23464
4.19613
3.95638
3.95176
4.25287
4.0048
4.19842
3.97767
4.14434
3.94261
4.23495
4.07125
4.01999
3.90955
4.00577
4.24574
3.97396
4.017
3.93628
3.97313
4.11573
3.98672
4.24148
4.22432
3.86884
4.01673
4.12345
3.97595
4.19859
4.25106
4.2115
4.20466
4.24181
4.20287
4.17587
4.16
4.00986
4.09901
3.89938
4.13552
4.2548
4.05766
4.24313
3.97316
3.91052
4.24368
4.17542
4.10562
4.16343
4.16439
4.0179
4.04934
4.22035
3.88686
4.04425
4.21097
4.27399
4.12099
4.13343
4.12027
4.18222
4.1366
4.14877
4.23172
3.89657
4.16734
4.06861
4.2087
4.18792
4.14217
4.22659
3.97855
4.05653
4.26223
4.21178
4.2118
4.10537
3.91317
4.23491
3.93372
4.13443
4.25484
4.02418
3.95983
4.14577
4.14609
4.24906
3.9385
3.94325
4.0916
4.11666
3.8872
4.1845
4.04382
3.88933
4.1555
4.08899
4.11273
4.01535
4.08634
4.13466
4.134
4.09849
3.89262
4.17742
4.08131
4.00526
4.0298
4.23627
4.22197
4.05914
3.98354
4.2135
4.18956
4.09188
4.25123
4.23501
4.17274
4.24902
4.14744
4.10393
3.89895
3.99708
4.16504
4.11379
4.13229
4.00806
4.11007
4.21297
4.25192
4.18864
3.91889
4.05814
3.99543
4.22444
4.06794
4.25326
4.23843
4.04596
3.9443
4.05989
3.9451
3.92729
4.21152
3.96866
4.25361
4.11978
4.01126
3.99513
4.25089
4.04396
4.08269
4.1753
4.14554
4.09815
4.17409
3.92619
4.17156
4.1445
3.97052
4.04468
4.13499
3.82704
3.92797
4.2277
4.26685
4.22276
3.94021
4.01705
4.22101
3.98775
3.95143
4.24205
4.24702
4.12986
4.22694
4.25116
3.96005
4.26774
3.92055
3.96374
4.23079
4.20129
4.22039
4.23159
4.13363
3.96846
4.09702
4.1407
4.25865
4.27122
4.27168
4.15681
4.06147
4.21143
4.22835
4.09643
4.08565
4.04346
4.14717
4.02935
4.18845
4.0779
3.97213
4.18226
4.2882
4.04029
4.24462
4.17636
4.1547
3.94844
4.14902
4.1579
3.94236
4.25099
3.95773
4.11439
4.26274
3.90118
4.18467
4.15986
3.94924
4.09279
3.98759
4.02394
4.24146
4.15178
3.9117
4.13594
3.96996
4.13185
4.22999
4.2354
4.29012
3.97923
4.16931
3.93234
4.13752
3.90223
4.21936
4.21717
4.25526
4.24172
3.99036
4.2077
4.19119
4.22066
4.15742
4.01737
4.06776
4.0934
4.15332
4.12956
4.09561
4.15658
4.0394
3.98637
4.11868
4.19977
4.20507
3.90078
4.25753
4.22388
4.16571
4.15563
4.19064
4.09401
4.1995
3.96796
4.1266
4.22018
3.9285
4.11849
4.2145
3.99247
3.88119
3.94821
4.09159
3.97907
4.19468
4.16905
4.06724
4.25697
3.96951
4.21177
4.23976
4.16738
4.11774
4.06086
4.2561
4.18858
4.15155
4.22512
4.18211
3.92996
4.1678
4.24839
4.25165
4.15585
4.25646
4.10266
4.12001
4.19431
4.22537
4.25267
3.94626
4.17961
3.86898
4.09109
4.1419
3.96208
3.97188
4.04561
4.09863
4.17438
3.94145
4.14102
4.04136
4.15302
4.15461
3.55555
4.1435
3.93321
4.1229
4.2307
4.27591
4.19657
4.0619
3.90091
4.13644
4.15636
4.22667
3.94398
3.96045
4.15122
3.9575
3.98493
4.10189
3.93986
4.04041
3.96578
4.13793
3.9276
4.24529
4.22601
4.24036
4.20464
4.10451
4.25869
4.25574
4.11117
4.17907
4.19614
4.23453
4.26363
4.04578
4.20206
4.24212
4.14995
3.94985
4.23298
4.18041
3.86331
3.95163
4.19237
4.2849
4.2294
4.10767
4.23938
4.26627
4.22851
4.2071
4.07788
4.07705
3.96325
4.14975
4.14282
4.24675
4.06029
4.01866
3.97071
4.07982
4.1446
3.84761
4.13354
4.01915
4.09391
4.04032
4.17274
4.08081
3.97853
4.20542
4.19514
3.97614
4.13793
4.28302
4.18809
4.14479
3.73063
4.00366
4.16396
4.18599
3.97817
3.92351
4.19435
4.0019
4.14479
4.04524
4.07525
4.2477
4.161
3.91346
4.10488
4.18983
4.22807
3.94138
3.8436
4.22976
3.92136
4.2081
4.23168
3.94827
4.17763
4.24164
4.12065
3.98757
4.26917
4.13501
3.95741
4.25191
4.21401
4.11813
4.20516
3.86204
3.9632
4.1635
4.03311
4.11878
4.16139
4.25342
4.2206
4.17127
4.22452
4.2199
4.09096
4.02114
4.19966
4.22815
4.32179
4.02804
4.18981
4.10159
4.31557
3.99703
3.89114
4.23941
3.93771
4.24413
4.11876
3.90231
4.0316
4.23097
4.13761
4.13884
3.88759
4.14853
4.0655
3.92759
4.22901
4.22706
3.66211
3.97629
4.03993
4.07885
4.18443
4.18571
4.16913
4.17337
4.21717
4.18103
4.16416
3.99513
4.22644
3.9747
4.18474
4.08837
4.08942
4.28861
4.17068
4.00105
3.88814
4.01835
4.07995
4.21945
3.9377
4.23232
4.12771
4.22015
3.96292
4.12172
4.22146
4.24063
4.23278
4.18888
4.20809
4.13248
4.27281
4.25774
4.25782
4.07373
4.16479
3.92602
4.2581
4.21768
4.15024
3.96935
4.13043
3.86953
4.20834
4.1265
4.25597
4.16916
4.11481
3.92194
4.22207
3.89229
3.91671
4.04207
4.06615
3.91515
4.17955
3.94912
4.13375
4.10969
3.86721
4.23763
3.98129
3.95418
4.11581
3.9888
4.15002
4.21292
4.22903
4.22899
3.99491
4.14622
4.04103
4.05687
3.86037
3.3921
4.23755
4.16266
4.13647
4.24324
3.93405
4.24718
4.24831
4.21693
4.20496
4.21539
4.20461
4.24969
4.24033
4.18484
4.24441
4.17982
3.97811
4.23802
4.04201
4.218
4.09838
4.16153
3.9853
4.26327
4.15741
4.18006
4.12421
4.02192
4.22349
4.09161
4.01785
3.95817
4.20514
3.8575
4.18541
4.18658
4.11729
4.24268
4.24233
4.24043
3.94881
4.16233
4.13942
4.22906
3.96835
4.18609
4.12364
4.09863
4.17617
4.05503
4.11657
4.06802
4.02861
3.88735
4.21355
4.12807
4.20413
4.04906
4.16209
4.18802
4.1474
4.02478
4.184
4.21901
4.16413
3.86886
3.91234
4.12783
3.86838
3.88801
4.22225
4.21693
4.20044
3.85932
4.12992
4.21949
3.92323
3.85652
4.12367
3.97518
4.20029
4.02489
4.24103
4.03383
4.01031
4.22674
3.87943
4.13462
4.14072
4.223
4.25167
4.23006
3.99442
4.20563
4.24023
4.05533
4.24445
4.21644
4.14648
4.25448
4.17117
4.28971
4.25275
4.27022
4.19018
4.07559
4.18181
4.16023
3.96514
4.08858
4.222
4.22022
4.25888
4.15993
4.27598
4.23311
4.08529
4.18349
4.24234
4.17531
4.16362
3.94239
4.00534
4.27663
3.88882
4.10836
4.14885
4.04942
4.12094
4.20607
4.10348
4.22082
4.07524
4.14108
4.06578
4.23475
4.18147
4.05473
3.9678
4.22965
4.00138
4.12481
4.05257
4.12193
4.08096
4.27662
3.98893
4.26556
3.99284
4.19355
4.0951
4.15724
4.15077
4.22242
3.96026
4.2229
4.24354
4.22271
4.21554
4.13835
3.89812
4.25087
4.24472
4.17283
4.21664
4.23742
4.16652
4.16107
4.19839
3.91005
4.06941
4.24411
3.91931
4.05074
4.31417
4.25299
3.99542
4.00891
4.25112
3.99136
4.13197
3.93874
4.21456
4.23065
3.8782
4.09567
4.22003
4.16592
4.23323
4.12107
4.22885
3.98634
3.98587
4.27403
4.25675
4.12877
3.93077
4.11201
4.26651
4.02657
4.25813
4.1546
4.18804
4.117
4.17919
4.20895
4.1714
4.12217
3.98594
3.88593
4.09079
4.19413
3.92263
4.21979
3.90512
4.12457
4.01584
3.95879
4.15518
3.99771
4.14403
4.10202
4.18453
3.97352
3.98067
4.05274
3.92832
4.11025
4.22715
4.14405
4.25914
4.10948
4.17339
4.27929
4.06099
4.11895
4.15404
4.16169
4.11867
4.03147
4.19438
4.22761
4.22391
4.28073
4.00334
3.87493
4.15585
4.2284
3.96891
4.12427
4.18063
4.17254
4.29203
4.02054
4.12803
4.16295
3.93062
4.23992
4.23226
3.9547
3.99496
4.15971
4.04127
4.25287
4.26452
4.13702
3.99605
4.25325
3.90219
4.17666
4.23243
4.06961
4.2715
3.92655
4.16483
4.14911
4.15917
3.96333
3.89306
4.18633
4.25707
4.02169
4.21016
4.22786
4.14667
3.97466
4.03571
4.2359
4.06569
4.17509
4.25022
4.23359
4.28186
4.21914
4.09689
4.11671
4.20481
4.00935
4.20495
4.20379
4.19539
4.22686
4.28502
4.08721
4.21145
4.1637
3.90849
4.25011
4.05639
4.25521
4.03337
4.22316
3.99862
4.18358
4.3029
4.16856
4.19244
3.97252
4.21992
4.25284
4.17666
3.90425
4.34884
4.0597
4.16784
4.21095
4.24126
4.21468
4.15839
4.09353
4.27431
3.99938
4.04277
3.99482
4.01205
4.21206
3.93743
4.24935
4.23763
4.25045
4.14835
4.03704
4.18707
4.25485
4.19467
4.15438
4.25655
4.24807
4.12415
4.22371
4.16404
4.15771
4.13875
4.04395
4.24288
4.27966
4.22247
4.23402
4.20591
4.01903
4.30082
4.13146
4.13642
4.14907
4.20837
4.27189
4.18777
4.20888
3.99213
4.167
4.12397
4.00731
4.00558
4.16314
4.1111
4.27028
4.04817
3.87412
4.10787
4.23979
4.07198
4.04031
4.17644
4.25261
4.23628
4.11298
4.07527
4.17579
4.1951
4.05446
4.11172
4.17704
3.96462
4.09535
4.06738
4.15142
4.2557
4.1864
4.24875
4.16027
4.18262
4.1682
3.87947
3.92273
3.98588
4.24963
4.19857
4.28018
4.35334
4.18289
3.92416
4.22306
4.07564
4.14426
4.13665
4.20008
3.91424
4.2547
3.95728
4.16869
4.09434
4.11805
4.28621
4.19851
4.23666
3.91827
4.17954
4.13929
4.21006
3.95354
4.07697
4.1846
4.19471
4.1103
4.1825
4.26646
3.94056
4.09335
4.04311
4.04217
4.16954
4.26058
4.26461
4.2198
4.24451
3.98729
4.00349
3.95831
4.30311
4.01992
4.18624
4.07077
3.96892
4.04926
4.24129
4.27014
4.01324
4.07234
4.13956
4.18279
4.25628
4.11621
3.92807
4.18141
4.25748
4.23409
4.27546
4.23859
4.33068
4.24325
4.1728
4.0476
3.96111
4.20046
3.96132
4.26098
4.03549
4.2136
4.03947
4.20801
4.02701
4.16848
4.23539
4.24189
4.07399
4.0013
4.26816
4.0891
4.25219
4.1026
4.32029
4.25574
4.19482
3.9837
3.97952
4.14552
4.12983
4.05964
4.29981
4.02073
4.21192
4.14905
4.07262
4.19216
4.25378
4.25247
4.24488
4.29196
4.21661
4.08849
3.93692
3.98536
4.22143
4.02745
4.12888
4.16103
3.99391
4.16285
4.12524
4.15134
4.20591
4.24954
4.03039
4.15729
4.19209
3.98283
4.00406
4.13168
4.09309
4.1601
3.98488
3.9554
4.16998
4.04105
4.24484
4.26354
4.19954
4.12921
4.13531
4.15708
4.10919
4.26044
3.99537
4.16754
4.0515
4.23829
4.19401
4.11412
4.16882
4.24906
4.00773
4.19104
4.2499
4.15539
3.81564
4.03048
4.04557
4.11142
3.95017
4.28217
4.28062
4.24017
4.21544
4.01473
3.93297
4.24069
4.29545
4.25156
4.1939
4.14796
4.21512
4.29479
4.20463
3.94251
4.1414
4.18568
4.2039
4.07146
4.19053
3.88118
4.23538
4.23217
4.09227
4.19701
4.14246
4.18131
4.2428
4.23812
4.01152
4.16208
4.2421
4.15299
4.09268
4.15806
3.9609
3.90224
4.24861
4.25554
4.23483
4.23778
4.16411
4.18265
4.08263
4.19204
4.18618
4.24406
4.04634
4.09084
4.09968
4.18906
4.2558
3.91922
4.09419
3.87564
4.24343
3.89376
3.96904
4.15656
3.82849
4.14333
4.2218
4.23223
4.22611
3.99857
4.09938
4.28966
4.11061
4.06557
4.13741
3.98911
4.23391
4.2288
4.10311
4.01183
4.23132
4.29657
4.2151
3.97325
4.01543
4.16969
4.24631
4.27245
3.94185
3.97395
4.19992
4.15312
4.26108
4.15415
3.90056
4.14013
4.23898
3.95249
3.9107
4.24227
3.97715
3.97208
4.24925
4.23023
4.19549
4.30171
4.1373
4.10732
4.26634
4.02637
4.19831
4.01359
4.15151
4.1764
4.13238
3.94076
4.20326
4.20377
4.02876
4.15743
4.0446
4.00406
3.904
4.10159
4.19138
4.26035
4.02353
4.2163
3.94502
4.20866
4.24834
3.98886
4.23855
4.19349
3.81789
3.93148
4.1988
4.16774
4.22848
4.02802
3.98579
4.20676
4.25537
4.23599
4.11671
4.22344
3.92574
4.26054
4.17979
3.96634
3.94184
3.83901
3.89047
4.22306
4.06762
4.21527
4.19312
3.92441
3.94298
3.88566
3.88085
4.30799
4.28543
4.0307
4.26401
4.1857
4.02497
4.13745
4.10812
4.03498
4.04438
4.20824
4.07789
3.95958
4.21885
4.30707
4.01791
4.24159
4.15226
4.02883
3.96465
4.11076
3.9642
3.98436
4.20132
4.1883
4.06244
4.2339
4.21766
4.16253
4.26842
3.45601
4.11446
3.9333
4.17844
4.24616
4.14708
4.02155
4.15708
3.93502
4.21205
4.15749
3.99616
4.01086
3.85903
3.87569
4.02374
3.92207
4.08228
3.93033
4.06767
4.183
4.15534
4.08852
4.20961
4.14954
4.17565
4.20791
3.92377
4.04864
4.23729
4.23529
4.14098
4.28446
3.97855
4.22125
4.15719
3.9423
4.18673
4.25564
4.1264
4.21745
4.24172
4.1423
3.86123
3.84562
4.14618
4.25908
4.12124
4.20087
4.05731
4.0666
3.95369
3.9312
3.90844
3.94732
4.13714
4.20304
4.2589
4.09725
4.06277
4.26488
3.97471
4.19172
4.23448
4.24694
4.08996
4.12927
4.24398
4.29941
4.22997
3.73869
4.12101
4.24782
4.15292
4.19716
4.30667
4.19998
4.26592
4.20355
4.00489
4.17287
4.26396
4.1716
4.19162
3.94783
4.21944
4.24526
4.279
4.22869
3.9045
3.88194
4.15007
4.16563
4.14443
4.18479
4.20869
4.20626
4.19622
4.01347
4.13777
4.18554
4.24435
4.02641
4.03326
4.09962
4.24771
3.97545
4.25318
3.95625
4.03723
4.18478
4.24603
4.05094
4.2241
4.23974
4.21295
4.12742
4.19449
4.19555
4.05509
3.87181
4.24405
3.91236
3.99489
3.77201
3.88337
3.93392
4.03581
4.19838
3.92379
4.02984
3.82673
4.01328
4.14365
4.2527
3.89072
3.9963
4.21524
3.90159
4.02159
4.20862
4.14508
4.17514
4.01009
3.9606
4.01041
4.23755
4.07752
3.9769
4.10877
4.04181
4.21136
4.15392
4.02987
4.25379
3.93636
4.00953
4.12222
4.24819
4.04134
4.09299
4.12715
4.18699
3.88967
4.03276
4.14956
4.24407
4.2035
3.97993
3.90288
4.07109
4.23692
4.1503
4.17212
4.04739
4.09521
4.15704
3.92157
4.24884
4.01619
3.9245
3.91388
4.22285
4.14958
4.23843
4.07818
4.23821
3.92231
4.10517
3.88392
3.93164
4.23683
4.00815
4.09808
4.18916
4.12966
3.94692
4.24158
4.21909
4.23795
4.13902
3.89506
4.20155
3.83091
4.26372
3.97672
4.24944
3.85561
4.21054
4.19645
4.06177
4.06486
3.85915
4.01636
4.16095
4.19814
4.14559
4.24839
4.2527
3.9542
4.25067
3.8538
4.20973
4.22027
4.24163
4.19461
4.16044
4.2379
4.06238
3.96882
3.95603
4.20804
4.27286
3.92083
4.0347
4.20731
4.1346
4.1767
4.31919
4.22386
4.13191
4.20364
4.17578
4.24754
4.09751
4.10441
4.25092
4.19511
3.84981
4.13225
4.01599
4.26036
4.19721
4.22052
3.98485
3.94755
4.18465
4.22286
4.21957
4.24022
4.26526
4.08314
4.12117
3.9707
4.14659
4.19822
4.22635
4.25381
4.25412
4.10091
4.23334
4.0393
4.21502
4.00414
4.14665
4.01238
4.19266
4.10263
4.23299
3.95537
4.25278
4.24573
4.0851
3.9473
4.32784
4.12354
4.21429
4.17817
4.18996
4.17067
3.92576
4.23811
4.10334
4.21188
3.94532
3.972
4.04141
3.91293
3.98818
4.24531
4.18322
3.8724
4.19258
3.94636
4.09962
4.19848
3.85463
3.90643
4.00805
4.06824
4.18163
4.0115
4.1803
4.06835
3.81145
4.01316
4.22307
4.22538
4.26326
4.2058
4.21233
3.97259
3.89875
4.23131
4.05934
4.13712
4.23107
4.30262
4.19441
4.16732
3.89759
4.20876
4.26706
4.03154
4.2123
4.20546
4.20868
4.10395
4.17247
4.05523
3.89212
4.17966
3.99629
3.94627
4.10582
4.19489
4.23432
4.23234
4.20889
4.22129
3.90522
4.02159
4.28985
4.26955
3.95846
4.13578
3.94751
4.0826
4.22613
4.05492
4.12134
4.25922
4.11585
3.9073
4.21654
3.92839
4.20371
4.18222
4.18964
4.23349
4.20909
4.2199
3.93753
4.22652
4.23758
4.00014
4.22507
4.15359
4.07818
4.25157
4.08469
4.21802
4.27026
4.23046
4.20089
4.25272
4.18103
4.12495
4.0543
4.08057
3.96749
3.85241
4.08496
4.22263
4.17032
4.25612
4.12859
4.23081
3.88337
4.25814
4.26219
4.22812
4.20554
4.01648
3.91826
4.17111
3.94881
4.20147
4.19648
3.89143
4.02876
4.25055
4.22045
3.84536
3.9845
3.88817
4.27685
3.92995
4.23774
4.05334
3.99504
4.21444
4.2204
4.26554
4.20846
3.90518
4.11264
4.27576
3.98054
4.24569
4.17961
4.2371
3.90252
4.17941
4.05591
4.15957
4.08525
4.13675
4.02344
4.0649
4.10474
4.03398
4.19191
4.14981
4.24911
4.04559
4.16297
4.20594
4.23843
4.23339
4.04288
4.1922
3.93393
4.10728
4.24468
4.26603
4.1346
4.07401
4.18939
4.00127
4.12324
4.09114
3.95744
3.9217
4.20999
4.25789
4.04582
4.04876
4.26448
3.92927
4.21295
3.97324
4.12137
4.25284
4.20581
3.93219
4.25808
3.94686
4.23183
4.20152
3.91699
4.25456
3.98646
4.02221
4.07502
3.87263
3.99255
4.09528
3.86977
4.20886
4.26965
3.91073
3.99952
4.21782
4.16645
4.20231
4.29975
4.22298
4.1449
3.95589
3.94357
3.85787
3.68883
4.23953
4.20273
4.10155
4.17699
3.91726
3.92008
4.13352
4.20489
3.82453
4.17256
4.15956
4.11127
4.18435
4.09082
4.24029
4.03418
4.05335
4.28515
3.85313
4.1313
4.22738
4.25188
4.1013
4.24194
4.21116
3.92594
4.28106
4.30394
4.15121
4.19332
4.08115
4.15264
4.22389
4.20146
4.19349
4.17781
4.10721
3.90606
4.05378
4.26548
4.19065
4.26362
4.21773
4.14678
4.27077
4.00105
4.25047
3.92915
4.26266
4.13763
4.02324
4.28121
4.01342
4.06777
4.27332
4.04392
4.2766
4.21102
4.17788
3.98403
4.1904
4.15515
4.04887
4.23534
4.11538
4.14462
4.27681
3.96021
4.21859
4.19817
4.22537
4.02401
4.1951
3.96016
4.03292
4.32138
3.95998
4.19161
4.25117
3.96306
4.09067
4.25646
3.98879
3.99816
3.96916
4.07022
4.0021
4.26017
4.04082
4.24031
4.17068
4.26686
3.93647
4.00032
4.2364
4.15953
3.96395
3.98689
4.05098
3.61682
3.88546
4.1541
4.14756
4.2334
4.10709
4.24378
4.23496
4.23824
4.21782
4.20129
3.97585
4.09358
4.19966
4.13937
4.08928
4.23008
4.16038
3.89801
3.91714
4.05017
3.7414
4.15092
4.23833
4.07876
4.16175
4.23904
4.2234
4.27745
4.05473
4.00571
4.11111
4.07887
4.24845
4.06895
4.1729
4.24726
4.03871
4.04175
4.2133
4.27447
4.24724
4.34335
4.23255
4.12601
4.15786
4.03456
4.08051
4.25705
4.03405
4.23177
4.10247
4.22468
3.91615
4.23481
4.16661
4.24695
4.14223
4.1151
4.16997
4.21323
3.89715
4.04191
4.14232
4.04979
4.05836
4.20948
4.18189
4.2533
4.14047
3.95185
4.00968
3.95131
4.08642
4.1935
3.98967
4.31758
4.17302
4.06679
4.16745
3.94923
3.98573
4.24329
3.96976
3.85731
3.78617
3.82698
3.89985
3.97788
4.25234
4.22612
4.05804
4.22051
4.23787
4.15534
4.16052
3.88718
4.24943
3.33528
4.23498
3.92462
3.9006
4.19269
3.91307
4.09072
4.14915
4.24435
4.01473
4.1503
4.03692
4.15668
4.0646
4.1185
4.06786
4.18576
4.16378
3.95762
4.20065
4.12518
4.09958
3.82657
3.98375
4.03998
3.93131
3.90856
4.17284
4.06582
3.97171
4.05052
4.22946
4.22175
4.23118
3.42345
3.96001
4.25924
3.96921
4.20043
3.88463
4.25272
4.19316
4.27595
3.92798
4.11939
4.26109
4.2517
4.13907
4.25617
4.1593
4.12221
4.14373
3.90404
4.11634
4.02751
4.16889
4.17457
3.99591
4.14358
4.21214
3.97623
3.92787
3.94654
4.17656
4.1847
3.94122
4.18123
4.16879
4.16513
3.98596
4.2064
4.06303
4.27976
3.63331
4.09229
4.16329
3.94352
4.23849
4.05266
4.00241
4.12058
4.25793
3.86593
4.20106
4.21368
3.93856
3.91033
4.2496
4.23373
3.93465
4.17243
3.89375
4.06867
4.25141
4.07517
4.19034
4.22708
4.25808
4.09299
4.01322
4.13392
4.12194
4.07285
4.00359
4.17971
3.92107
4.08622
4.08249
4.0945
4.1987
4.12477
4.21712
4.18161
4.17228
4.22361
4.13648
4.0618
3.98856
4.17637
4.09912
4.07322
4.17534
4.23345
4.14124
4.19685
4.05102
4.2011
3.98211
3.96136
4.14415
4.19009
3.97513
4.13537
4.10565
3.84744
3.85858
4.22585
3.79107
4.14221
4.21501
4.12234
3.96722
4.15098
4.30225
3.92578
3.95988
4.02338
4.21993
4.17396
4.17144
4.27169
3.91902
4.2336
4.15805
4.25049
4.26819
3.33282
4.16046
4.18806
4.2147
4.1092
4.11471
3.6996
4.22887
4.22695
3.96839
3.92087
4.05676
4.2054
4.16264
3.91361
4.11012
4.20558
4.23605
4.13702
4.12281
3.9037
3.92886
3.94195
4.18683
4.13834
4.08736
4.2385
4.22909
3.7203
4.22963
4.23179
4.22122
4.01937
4.22899
4.05868
3.93379
3.97796
4.10512
4.0589
3.96449
4.11182
4.07731
4.20284
3.97471
3.87803
4.1103
4.22909
4.18732
4.04243
4.05782
4.2202
4.25644
4.12984
3.99548
4.19271
4.21861
4.15695
4.24924
4.2151
4.15234
3.88866
4.03532
3.93152
4.17063
4.21418
4.02614
3.94327
4.26407
3.97221
4.07457
3.98492
4.06803
3.88742
4.17544
4.16934
4.15918
4.06906
4.008
4.24884
3.96069
4.15345
4.06422
4.16071
3.90727
4.19287
4.18325
3.87465
4.01257
4.10403
4.09096
4.142
3.58946
4.21632
4.02525
4.15141
3.98263
4.03711
4.03204
3.62733
4.21811
4.01663
3.19962
3.91036
4.14594
4.2223
4.18082
3.99616
3.67527
4.16851
3.92504
4.21284
4.24805
4.09213
4.00673
4.20415
3.88862
3.9389
3.88822
4.18857
4.15658
4.02895
4.22403
4.13631
4.19932
4.01916
3.83601
4.25054
4.17207
4.26376
4.22173
3.94893
4.15955
4.14153
4.01459
4.1692
4.01359
4.08182
4.36001
4.192
4.05735
3.93988
4.12574
4.13962
4.15809
4.05652
3.88254
3.97311
4.10692
4.16483
4.05253
4.22487
3.98796
4.1785
4.03778
4.09552
3.72991
4.23184
4.16017
4.08574
4.25986
4.15099
3.99849
3.95058
3.72457
4.20209
3.98198
4.15308
4.1246
4.20915
4.15288
4.24904
4.02524
3.21372
3.97004
4.24504
3.31879
4.09859
4.24777
4.1646
4.23354
4.00097
3.99631
4.02411
4.26385
3.60567
4.25928
3.98787
3.82209
4.22332
3.98524
4.23601
3.21405
3.90912
4.1406
4.23814
4.24831
4.09238
4.20299
4.15862
4.15276
4.17827
4.14082
4.13012
4.13049
3.7513
4.19657
4.12827
4.10384
4.24697
4.24625
4.20394
3.91327
4.2457
4.20822
3.99424
3.98206
3.89687
4.20363
4.22208
4.221
4.25404
4.1961
4.18252
3.87039
4.17789
4.08628
4.09493
4.10395
3.93174
3.78132
4.11269
4.3098
4.1802
4.137
3.95938
4.08821
3.99321
3.94722
4.22535
4.14679
3.33736
3.65091
3.8991
3.93687
4.2118
4.14604
4.15898
4.03337
3.87521
4.1771
4.24325
3.86014
4.26557
3.90156
4.24211
4.08808
4.22531
4.21211
4.17619
4.22813
4.13904
3.9962
3.90879
4.04467
4.20039
4.08653
3.99173
4.04195
4.1943
3.91708
4.08403
3.99706
4.22569
4.11395
4.15806
3.42938
4.2474
4.24863
4.03626
4.17676
4.08629
4.13837
4.24553
4.10799
4.18666
4.25206
4.17096
3.94657
3.93847
4.29872
3.97764
3.93728
3.86676
4.19537
4.25635
4.18623
4.24275
4.29744
4.24223
4.19825
4.12526
4.02113
4.16649
3.69883
4.06132
4.20267
4.05067
3.96999
4.00821
4.17983
4.27744
3.84503
4.11938
4.18089
3.83941
4.24433
3.79829
3.89108
3.93972
4.2676
3.9968
3.90992
4.00601
3.9471
4.18168
3.64538
3.69965
4.0785
4.01533
3.85853
4.15773
3.97641
4.00412
4.16257
4.01718
3.89846
4.1898
4.02385
3.99878
3.95721
4.14808
4.00558
3.79555
4.23627
4.16612
4.18742
4.04135
3.97492
3.90016
4.15183
4.07696
4.23487
4.1012
4.20809
3.93788
4.15938
4.19528
4.21487
3.5436
3.68657
3.89378
4.22933
3.91638
4.15255
3.43065
4.04932
4.19569
4.0446
4.15725
4.00486
4.1333
4.13295
4.20594
4.00625
4.12889
4.31378
3.82358
4.13253
3.94657
4.18571
4.00733
3.93765
4.17797
3.91727
3.65331
3.84019
3.82995
3.97285
3.79495
4.22265
3.98683
3.90983
4.07222
4.22813
4.11325
3.78314
4.2604
4.18347
3.97205
4.03402
4.14554
3.93633
4.14415
4.1627
4.11961
3.89257
3.88296
4.14508
3.96989
3.65209
3.85592
3.93291
4.12599
3.93071
4.2099
4.13755
4.13234
4.01973
4.21944
3.98975
4.07854
4.00743
3.19541
4.2758
3.71756
4.08345
4.19564
4.22973
3.69633
4.212
4.26401
3.93755
4.07601
4.05742
3.99074
3.62846
4.10024
3.99129
4.14685
4.2594
4.0522
4.24646
4.04467
4.04038
3.8012
3.56608
3.68886
4.22143
3.82025
4.17082
3.99845
3.83122
3.97919
4.21918
3.7883
3.26424
3.97577
4.20352
4.20997
4.18445
3.2771
4.04053
4.23161
4.19883
4.25917
4.12436
3.79741
4.22407
3.84657
4.17476
3.9824
4.00947
4.07854
4.19636
3.93395
3.98423
3.73679
4.02829
4.20739
4.15901
4.10719
3.85034
3.88955
4.05221
3.95853
4.13142
3.85033
3.83131
4.18927
4.21999
3.8193
4.20952
3.95799
4.28556
3.69087
4.22813
4.0832
4.19057
4.10639
3.95821
3.89647
4.32796
4.04678
4.14537
4.09648
3.85396
4.1485
4.23637
3.80547
3.87927
3.98127
3.80744
3.94922
4.17631
3.5865
4.24877
3.65806
4.05966
4.1337
3.82737
4.09224
4.09861
3.81781
4.07194
3.9994
4.08502
3.83794
4.20086
3.82452
4.09706
3.30427
4.14423
3.64402
3.76593
4.08954
3.90474
3.94619
4.25513
4.16127
4.09725
4.21673
3.70835
4.15057
3.9653
4.14642
4.07437
4.03756
4.18488
4.17806
3.86955
3.88673
4.21854
4.10486
4.13703
3.74184
4.24349
4.31272
4.23089
4.14174
3.9637
3.96319
4.07958
3.74616
3.89433
4.19175
4.06539
3.97791
4.09152
4.11403
4.13574
3.7396
3.96658
3.94265
3.67885
4.27457
4.10991
3.94664
4.23008
4.12218
4.0002
4.21587
3.74279
3.95185
3.71008
3.80982
4.25396
4.181
3.52144
4.24167
3.80491
4.14397
4.15077
4.1207
4.21982
4.0518
4.15612
4.00531
4.09018
4.07572
4.20616
3.80067
3.77739
3.99794
3.64012
3.98494
3.79911
3.83587
4.21767
4.04267
3.53989
3.58026
3.88022
3.82335
3.967
3.95023
4.04735
4.19479
3.69754
4.10676
3.96713
3.99869
3.77032
4.0396
3.76712
3.44695
3.82594
3.86741
3.79429
3.99739
3.95486
4.04703
3.80683
4.21672
3.88381
4.09967
3.89891
4.0647
3.93313
3.87503
4.10633
4.1138
3.63291
3.96552
4.00978
4.26762
4.18522
4.09945
4.23252
4.18628
4.15947
4.18575
3.94009
4.21247
4.28634
4.09025
4.20061
4.17772
4.13636
3.41356
3.96078
4.1382
4.07339
3.91825
4.2338
3.62594
3.6554
3.51374
4.18707
3.88191
4.03299
4.21909
3.62426
4.23677
3.73784
4.23974
4.24023
4.28275
4.27954
3.49842
4.13579
4.27361
4.00219
3.59597
3.95848
3.72172
3.69515
4.08616
3.72018
4.06378
4.15796
3.86099
3.99425
3.88169
3.87399
4.23537
4.15443
3.92821
3.99912
3.97098
4.13324
4.18312
4.25265
3.81867
3.27914
3.85446
3.81691
3.85396
3.81617
4.25882
4.21524
3.84367
4.15429
3.59885
3.4977
4.05509
3.61505
4.16536
4.13059
3.83613
3.79133
4.10446
4.24652
4.097
4.18074
3.99792
3.45987
3.49926
3.98183
3.80368
4.19759
3.73872
4.06974
4.04971
3.87362
3.9227
3.86989
4.23738
3.51658
3.95311
4.01905
4.01709
4.09337
4.27656
3.94673
3.90369
4.02077
3.90469
3.86441
3.67614
3.67642
3.85564
3.65776
3.69231
3.95394
3.89113
3.52455
4.08657
3.63404
4.06215
3.63674
3.62895
3.72845
3.94562
4.04461
3.90338
4.06961
3.71228
3.72554
3.90452
4.21347
3.83891
4.20796
4.14284
4.04189
3.86023
3.94826
4.15165
3.73338
3.95585
3.99836
4.14211
3.95222
3.95038
3.63207
4.22087
3.39775
3.39718
3.34973
4.14423
4.18512
3.9455
3.9092
4.13668
3.58737
4.21166
3.99778
3.87398
3.85714
4.01545
4.26225
3.57116
4.12231
4.18174
3.45201
3.57101
3.86346
3.86122
3.53335
3.9673
3.82013
4.04494
3.8473
4.168
3.92327
3.75999
3.97569
4.09786
3.96137
4.04947
3.87236
4.00574
3.55817
3.92353
3.87935
3.99387
3.38618
3.81304
3.3571
3.51022
4.1681
4.04849
3.6344
3.69714
4.04321
3.73334
3.78746
4.17244
3.86936
3.61021
3.83029
3.79182
3.69441
3.87166
4.0857
3.61927
3.39299
4.01636
3.62352
3.82189
4.2349
3.44117
4.13144
4.17866
4.14929
3.48111
3.79399
3.53164
4.01201
4.24471
4.05882
3.90039
3.26338
3.84339
3.87045
3.90184
4.03655
3.9103
3.74934
3.69741
3.5164
3.73599
3.62331
3.64643
3.73875
3.85885
3.9772
3.41631
3.99248
3.71622
3.69163
4.06805
3.89766
3.53531
4.06581
4.03453
4.19903
3.25995
4.19643
4.02908
4.07502
3.72115
3.31832
4.07241
3.9861
3.49642
4.00084
3.63572
4.00819
3.84427
3.61773
3.57976
4.07502
3.74559
3.71356
4.08693
3.90171
3.83959
3.91996
3.4974
3.65351
3.74006
4.02274
3.97955
4.20013
3.76738
4.22581
3.37545
3.62421
4.01267
3.75546
3.21996
3.96238
3.9346
3.47931
3.33655
3.72822
4.01088
4.12514
3.94737
3.44752
4.17388
3.82195
4.18743
3.52957
3.73749
3.68496
3.79724
3.76764
3.7848
3.61269
4.23894
4.1055
3.87776
3.97846
3.43862
3.71836
3.9209
4.1275
3.57245
3.70998
3.76209
3.5667
4.11277
4.01599
3.47376
4.15468
4.23764
3.70832
4.09563
3.89778
3.36622
4.18142
3.57697
4.16144
4.17243
4.03572
4.20065
3.96155
3.86011
4.13933
3.9632
3.74972
3.65387
4.18449
4.15938
3.85749
4.0693
3.36852
3.91056
4.17536
3.95741
3.50169
3.59856
4.22879
3.83089
3.46307
4.07956
3.39104
3.34527
4.00808
3.90664
3.99005
3.87233
3.65714
4.12572
3.84522
3.7183
3.96485
3.2371
3.78231
3.83822
3.65295
3.51349
4.05009
3.79047
4.04521
3.57988
3.27623
3.61428
3.86161
3.61637
4.11806
4.06624
4.03944
3.40969
3.83832
3.63724
3.47448
3.77826
3.6994
3.7332
3.67484
3.58179
3.38845
3.58278
4.05898
4.25465
3.89641
4.05258
3.57156
3.81427
3.57043
3.67829
3.68364
4.02207
3.93384
4.10493
4.13575
4.0106
4.02079
3.60334
4.13684
3.52352
3.66093
4.16826
3.17122
3.71451
4.19855
3.5409
3.72838
4.00529
3.91181
3.78529
3.65514
3.96628
4.05359
3.73882
4.10928
3.98548
3.83534
3.5005
4.1243
3.71012
3.76889
3.8419
3.62982
3.69413
3.88271
3.81725
3.74482
3.81688
3.35203
3.90431
4.03991
3.35748
3.83361
4.19187
3.68848
3.79272
3.93071
3.9022
4.17361
3.31717
4.1865
4.17774
3.66386
3.57629
3.36764
3.84148
3.5132
3.37818
4.18829
3.77255
3.74111
3.38537
3.69816
3.55268
3.72195
4.06368
3.86302
3.68596
3.81201
3.76966
3.65958
3.57272
3.66157
3.86877
3.50916
3.66925
3.4497
3.92573
3.52136
3.9055
3.60155
3.97477
3.64948
3.97657
3.5511
3.66564
3.5314
3.50478
4.08163
4.14479
3.52526
4.1274
3.46552
4.03925
3.75186
4.2456
3.83244
3.90253
3.74175
3.94253
3.69141
3.56132
3.61172
3.76465
3.81059
3.78061
3.70499
3.55119
3.65526
3.78439
3.70638
3.88259
3.31982
4.21175
3.74602
3.75526
3.50316
3.60105
3.59666
3.17272
3.8578
4.20341
3.86059
4.25753
4.21101
3.70527
4.05944
3.70067
3.21803
4.11584
4.12999
4.06053
3.67438
3.53917
3.33772
3.646
4.09591
3.78867
3.52945
3.88375
3.85352
3.69145
3.69581
3.59679
4.03648
4.11609
3.5902
3.44586
3.85795
3.4672
4.16548
4.05094
4.19289
3.6292
3.48611
4.06126
3.74452
3.59759
3.77129
3.46676
3.58202
3.89389
3.62663
3.57074
4.1555
4.01896
3.41247
3.74181
3.89346
3.75384
3.75732
4.08491
3.72773
3.97427
3.62594
3.99525
3.46406
3.38292
3.40291
3.87095
3.86007
3.81711
3.63632
3.79539
3.70221
3.93726
3.7265
4.13055
3.54548
4.17637
3.7313
3.89581
3.41182
3.64023
4.19619
3.77726
3.44876
3.59775
3.77937
4.06937
3.97244
3.80092
4.03358
4.00226
3.67841
3.36939
3.16758
3.77762
3.56342
3.70974
3.5825
4.11999
3.47371
3.62311
3.76092
4.16707
4.01183
3.6349
3.64514
3.92535
3.85321
3.85668
3.80523
3.64732
3.35205
3.77342
3.68835
3.86684
3.47348
3.91332
3.41405
3.59202
3.99927
3.95553
3.54067
3.72131
4.02944
3.71742
3.9048
3.74865
3.53708
3.55904
4.26415
4.21722
3.66737
3.74119
4.19391
3.34756
4.01772
3.53097
3.4331
4.01594
3.94746
4.3341
3.94102
3.57674
3.9994
3.85426
3.56009
4.16823
3.6458
3.48917
3.63327
3.71727
3.48059
3.57112
3.4944
3.77597
3.40934
3.68506
3.95658
3.92193
4.02026
3.70284
3.48283
4.00342
3.82414
3.71074
3.61654
3.72906
3.9315
3.80201
3.73862
3.57743
4.04747
3.86886
3.88014
3.75515
3.25724
3.57295
3.76991
3.55229
4.22495
3.5308
3.53414
3.79705
3.51734
3.46455
3.62437
3.31938
3.72215
3.64435
4.02261
3.71152
3.47594
4.22831
3.88187
3.54663
3.37515
3.60394
3.6917
3.31207
3.97985
3.37851
3.30993
3.25255
3.49461
3.49476
3.72561
3.20488
3.83184
3.507
4.13352
4.16521
3.96382
3.70924
3.5031
3.65845
3.4628
3.80421
3.26706
3.55442
4.10482
4.17128
3.97252
3.87164
3.72685
3.68246
3.22188
3.84543
3.70819
3.40692
4.16541
4.08724
3.62541
3.8063
3.33396
4.02491
3.48504
3.48384
3.71805
3.77088
3.77924
3.79158
3.38653
3.61999
3.79246