/*--------------------------------*- C++ -*----------------------------------*\
| =========                 |                                                 |
| \\      /  F ield         | OpenFOAM: The Open Source CFD Toolbox           |
|  \\    /   O peration     | Version:  2212                                  |
|   \\  /    A nd           | Website:  www.openfoam.com                      |
|    \\/     M anipulation  |                                                 |
\*---------------------------------------------------------------------------*/
FoamFile
{
    version     2.0;
    format      ascii;
    arch        "LSB;label=32;scalar=64";
    class       volScalarField;
    location    "0.014";
    object      k;
}
// * * * * * * * * * * * * * * * * * * * * * * * * * * * * * * * * * * * * * //

dimensions      [0 2 -2 0 0 0 0];

internalField   nonuniform List<scalar> 
31639
(
0.0617257
0.0613459
0.0625322
0.0641234
0.0604289
0.0603949
0.0599069
0.0624306
0.0615545
0.0637018
0.0637309
0.0632992
0.0620218
0.0637673
0.0605903
0.0589041
0.0618259
0.0596462
0.0579958
0.0614201
0.0554231
0.06293
0.0640037
0.0584842
0.0583859
0.0613643
0.061639
0.0538228
0.0598698
0.0638396
0.0635909
0.0592715
0.0638007
0.0582152
0.0564172
0.0638906
0.0538879
0.064497
0.063854
0.0532792
0.0567587
0.0556663
0.063526
0.0631044
0.0637778
0.0636493
0.0604403
0.0595528
0.0615908
0.0640084
0.0633334
0.0532206
0.0643663
0.0550024
0.0589003
0.0616011
0.0552409
0.0617251
0.061411
0.0550925
0.0607031
0.0624122
0.0581298
0.0609495
0.0614579
0.0638458
0.0606531
0.0617801
0.0572395
0.0638827
0.0642579
0.0584749
0.0629452
0.0614806
0.0643964
0.056222
0.0638058
0.059944
0.0609769
0.0630324
0.0579608
0.0532632
0.0640527
0.0623626
0.0622917
0.0636943
0.0641235
0.0639562
0.0556394
0.0646783
0.0620627
0.0600578
0.0553451
0.0610621
0.0569389
0.0603349
0.0603357
0.0616039
0.0619501
0.0555883
0.0644232
0.063685
0.0608271
0.0546003
0.0551866
0.0637606
0.0546133
0.0539615
0.0576058
0.0551761
0.0621417
0.0559043
0.0609791
0.0589397
0.0616957
0.0547629
0.0600717
0.0599404
0.063999
0.061194
0.0621178
0.0632719
0.0626723
0.0612814
0.0609282
0.0638796
0.0613763
0.0576523
0.0574286
0.06319
0.0633777
0.0625037
0.0627899
0.059262
0.062098
0.0618512
0.0551707
0.054721
0.0631058
0.0615995
0.0613289
0.0635305
0.0637726
0.053944
0.0540651
0.0639906
0.0631505
0.0556683
0.0556304
0.0638312
0.0574629
0.0616272
0.0580132
0.0620923
0.0556437
0.0639669
0.0601925
0.0575079
0.0556439
0.0583711
0.0637184
0.0560385
0.0574041
0.0551511
0.0560595
0.060254
0.0561582
0.0638597
0.0631441
0.0542577
0.0578831
0.060198
0.0564367
0.0620162
0.0642694
0.0633543
0.0621114
0.0639659
0.0621973
0.0615925
0.0610492
0.0590164
0.0597902
0.0537556
0.061578
0.0642051
0.0593459
0.0638897
0.0560642
0.054591
0.0642479
0.0626012
0.0612195
0.0611174
0.0612704
0.0588427
0.0592854
0.0630531
0.0545253
0.0593471
0.0634411
0.0644618
0.0614166
0.0616191
0.0610946
0.0615173
0.0604853
0.0607766
0.0632794
0.0537185
0.0611343
0.0597287
0.0622324
0.0628919
0.0618185
0.0635852
0.0566174
0.0589442
0.0636212
0.0634424
0.0628544
0.0601693
0.0546427
0.0620781
0.0549451
0.0610561
0.0636417
0.058346
0.0558573
0.0620747
0.0617817
0.064298
0.0559038
0.0552306
0.0611683
0.0616165
0.0549934
0.062858
0.0580294
0.0542445
0.0608906
0.0609375
0.0604753
0.0583523
0.0585678
0.0616893
0.060458
0.0597943
0.0549727
0.0613814
0.0594591
0.0566375
0.0585857
0.0639138
0.063663
0.0594349
0.0564107
0.0629293
0.0623454
0.0600314
0.0641679
0.0635411
0.0624622
0.0638255
0.0607219
0.0606424
0.0544308
0.0581722
0.0625519
0.0600785
0.0619236
0.0585653
0.0608351
0.0633821
0.064117
0.0616463
0.0550503
0.0596197
0.0572362
0.0633234
0.0598754
0.0637395
0.0640537
0.0590311
0.0557108
0.0578871
0.0559035
0.0547772
0.0630615
0.0564579
0.064066
0.0603243
0.0584596
0.0569451
0.0642636
0.0590455
0.0587072
0.062771
0.0610977
0.0582961
0.0612103
0.0556475
0.0613664
0.0607044
0.0562238
0.0594939
0.0605603
0.052518
0.0545578
0.0632372
0.0642609
0.0631837
0.0552463
0.0568488
0.0630418
0.0569759
0.0570703
0.0639216
0.0638493
0.0602685
0.0634894
0.06415
0.0560402
0.0647236
0.054341
0.0552809
0.0633838
0.0627233
0.0632233
0.0637827
0.0617651
0.0564562
0.060101
0.0606627
0.0637998
0.0643163
0.0645236
0.0608393
0.0592095
0.0622926
0.0632046
0.0611707
0.0593506
0.0599047
0.0606656
0.0592778
0.0629221
0.0595771
0.0561369
0.0625248
0.0650004
0.0592205
0.0640079
0.0628193
0.0610219
0.0559454
0.0608174
0.0610115
0.0552172
0.0638674
0.0560495
0.0609846
0.064008
0.0541905
0.061508
0.0609628
0.0554965
0.0607424
0.0567321
0.0593685
0.0640572
0.0620599
0.0543755
0.0616015
0.0562133
0.0616139
0.0634035
0.0637424
0.0641211
0.056386
0.062118
0.0550643
0.0604413
0.0543474
0.0635874
0.0631289
0.0639347
0.0635543
0.0578262
0.0633187
0.0615949
0.0623692
0.0609418
0.0570604
0.0601699
0.0611075
0.0616206
0.0617147
0.0609666
0.0621535
0.0595462
0.0560283
0.0607655
0.0631216
0.0627393
0.0541166
0.06388
0.0631863
0.0610378
0.0618189
0.0624114
0.0605446
0.0632514
0.05582
0.0614881
0.0634357
0.0544962
0.0611374
0.0624095
0.056821
0.0545212
0.0555104
0.0597604
0.055769
0.0616068
0.0614161
0.0591939
0.0641908
0.0559849
0.0630267
0.0638883
0.0612273
0.0615189
0.0596137
0.0637783
0.0615054
0.0611876
0.0637968
0.0615179
0.0552191
0.0612952
0.0642152
0.0637817
0.0620574
0.0643022
0.0598498
0.0614069
0.0625174
0.0636914
0.0641338
0.0558222
0.0612057
0.0532263
0.0600634
0.0606022
0.0560056
0.0552728
0.0592491
0.0612643
0.0626084
0.0555103
0.0617435
0.0588147
0.0609193
0.0621316
0.0507563
0.0606165
0.0548267
0.0601439
0.0633947
0.0648763
0.0626032
0.0599085
0.054425
0.0618268
0.0611764
0.0632367
0.0551674
0.0557728
0.0608637
0.0557474
0.0564166
0.0612594
0.0552251
0.0590991
0.0559884
0.0618045
0.0553926
0.0640027
0.0632555
0.0635688
0.0632742
0.0585088
0.0638711
0.0640011
0.0611793
0.0625879
0.061861
0.0634241
0.0643738
0.0589962
0.0632537
0.0641591
0.0609813
0.0571001
0.0639917
0.0615526
0.0533211
0.0548802
0.0616752
0.0641094
0.0637677
0.0600171
0.0640046
0.0645101
0.0631587
0.0620435
0.059973
0.060776
0.0564364
0.0607409
0.0616542
0.0640686
0.0580313
0.0576261
0.0566852
0.0591653
0.0607726
0.05327
0.0618405
0.0585151
0.0610968
0.0595576
0.0623775
0.0602461
0.0560939
0.0622523
0.0631308
0.0567535
0.0620054
0.0648682
0.0617908
0.0606364
0.0547144
0.0572342
0.0611835
0.0617166
0.0562134
0.0554628
0.0618329
0.0582517
0.061909
0.0582005
0.0599775
0.0637286
0.0611671
0.0549996
0.0590002
0.0616802
0.063633
0.055243
0.0530727
0.0633884
0.0550283
0.0622456
0.0640352
0.0553117
0.0615674
0.0638588
0.0608992
0.0556402
0.0640765
0.0608638
0.0556657
0.0637729
0.0622289
0.060127
0.0633027
0.0535486
0.0576267
0.0609233
0.0591421
0.0588846
0.0614589
0.0639411
0.0636694
0.0625589
0.063776
0.0632323
0.0611094
0.0582925
0.0625764
0.0637486
0.0657153
0.0577058
0.0617698
0.0609029
0.0654441
0.0564359
0.0539809
0.0638793
0.0567842
0.0641351
0.0600545
0.0550967
0.0595517
0.063475
0.0607569
0.0618163
0.0546079
0.0622725
0.0603859
0.0546473
0.0637307
0.0631185
0.053328
0.0564097
0.0570233
0.0599998
0.0616234
0.0616148
0.0611287
0.061469
0.0630999
0.0616498
0.061234
0.0566398
0.0637813
0.0554768
0.0615541
0.0601487
0.0598687
0.0649723
0.0613428
0.0573437
0.054326
0.0566239
0.0600379
0.0635295
0.0560638
0.0638648
0.0605305
0.0630918
0.0557339
0.0601287
0.0630091
0.0640692
0.0634386
0.0626415
0.0621106
0.0606886
0.0644645
0.0642046
0.0639189
0.0583935
0.0626375
0.0556076
0.0640922
0.063333
0.0608134
0.0563108
0.0601759
0.0535517
0.0631925
0.0608901
0.0642638
0.0612807
0.0599162
0.0556285
0.0636184
0.0545887
0.0535722
0.0574821
0.0580221
0.055675
0.0613698
0.0553935
0.0616339
0.0612655
0.0530236
0.0639601
0.0560385
0.0575062
0.0601402
0.0583195
0.0621
0.0634482
0.0639296
0.0637913
0.0585354
0.0609778
0.0591332
0.0595464
0.0535888
0.0466983
0.0637509
0.0610062
0.0619489
0.0635726
0.0554257
0.0637615
0.0642977
0.0629509
0.0629485
0.0630017
0.0622139
0.0639139
0.0640228
0.0615776
0.0636165
0.0627188
0.0565152
0.0635822
0.0591408
0.0633154
0.0598304
0.0611262
0.0578158
0.0644898
0.0605577
0.0615579
0.0607028
0.0566909
0.063654
0.0607517
0.0586756
0.0556263
0.0627263
0.0537706
0.0628578
0.0625478
0.0601244
0.0638887
0.0640965
0.063875
0.0554921
0.0610694
0.0607999
0.0619865
0.0562857
0.0624347
0.0619222
0.0595959
0.0613728
0.0588263
0.0614713
0.0596051
0.05939
0.0539825
0.063048
0.0614236
0.0634302
0.0582472
0.0612409
0.0619685
0.0608485
0.0585053
0.0616519
0.0631136
0.0609462
0.0538197
0.0543536
0.0604259
0.0537611
0.0555502
0.0623834
0.0622915
0.0628991
0.0536902
0.0605555
0.0636125
0.0555713
0.0539255
0.0610674
0.0565748
0.06255
0.0573994
0.0640457
0.0584782
0.0584652
0.0636717
0.0541259
0.0604352
0.0604811
0.0632191
0.0638365
0.0636495
0.0568035
0.062817
0.0638302
0.0593426
0.0639873
0.0629256
0.0620196
0.0641819
0.0614357
0.0650123
0.0641416
0.0646002
0.0623657
0.0596762
0.0615418
0.061135
0.0559847
0.0598732
0.0625112
0.0632942
0.0642591
0.0606428
0.0647307
0.0631534
0.059436
0.0626454
0.0636653
0.0624952
0.0622761
0.0557537
0.0587469
0.0644906
0.0538483
0.0603861
0.0607868
0.0595392
0.0604291
0.0634055
0.0614261
0.0632799
0.060459
0.0617961
0.0603647
0.0634718
0.0617052
0.0594927
0.0560315
0.0635178
0.0566139
0.060123
0.0597593
0.0600421
0.0605752
0.0645552
0.0562179
0.0645036
0.056387
0.0618345
0.0599613
0.0609718
0.0609664
0.0636518
0.0558338
0.063154
0.0635689
0.0636564
0.0620756
0.0617378
0.0538916
0.064228
0.0635973
0.0626758
0.0630214
0.0635706
0.0611828
0.0612702
0.0619034
0.0557259
0.0600046
0.0639953
0.0548403
0.0578327
0.0654226
0.0637341
0.0579797
0.0587167
0.0624579
0.0580901
0.0604665
0.0562837
0.0629363
0.0638621
0.053695
0.0608081
0.0634734
0.062317
0.0637203
0.0601585
0.0633593
0.0566741
0.0564565
0.0645227
0.0638009
0.060653
0.0557659
0.0615832
0.0639481
0.0577165
0.063939
0.0623257
0.0628724
0.0613881
0.0629506
0.0619834
0.06167
0.0604335
0.0581851
0.0543659
0.0607638
0.0618088
0.0558203
0.0634439
0.0543412
0.0601405
0.0592528
0.0560165
0.0608205
0.0584188
0.0621796
0.0608553
0.0627512
0.0558063
0.0562588
0.0594364
0.0554575
0.0598739
0.0634878
0.0606015
0.0639729
0.0606129
0.0613712
0.0641519
0.059405
0.0608085
0.060978
0.060985
0.0614543
0.0574491
0.0617956
0.0631416
0.063638
0.0648282
0.0560328
0.054575
0.0609474
0.06366
0.0565587
0.0603012
0.0619113
0.0613221
0.065042
0.0593132
0.0603583
0.0622628
0.0552896
0.0636915
0.063736
0.0561211
0.0580361
0.0609657
0.0589849
0.0641997
0.0640577
0.0615494
0.056826
0.0637826
0.0551071
0.060831
0.0633991
0.0589886
0.0646611
0.0549505
0.0611938
0.0617392
0.0612666
0.0554069
0.0545769
0.0630504
0.0640463
0.0590227
0.0634572
0.0625835
0.0608228
0.0560813
0.0574509
0.0624712
0.0600907
0.0613006
0.0641759
0.0635482
0.0648545
0.0635882
0.0608904
0.061245
0.0629076
0.0563651
0.062977
0.0626328
0.0619015
0.06243
0.0643874
0.0600624
0.0634845
0.0609919
0.0541103
0.0642609
0.0589732
0.0641958
0.0591655
0.0632918
0.0565777
0.062425
0.0652912
0.0612012
0.0617735
0.0558485
0.0631875
0.0643552
0.0620226
0.0551651
0.0662231
0.0601496
0.0620085
0.0635359
0.0634837
0.0630385
0.0608854
0.0602813
0.0647877
0.0564963
0.0573032
0.0567137
0.0576728
0.0623321
0.0549031
0.0641788
0.0636111
0.0641985
0.0606332
0.0596576
0.0617333
0.0641594
0.061727
0.0613428
0.0640474
0.0639562
0.0608097
0.063298
0.0612114
0.0608626
0.0621415
0.0591659
0.0641845
0.0646349
0.0637523
0.0639166
0.0635295
0.0584192
0.065214
0.0610931
0.0615913
0.0606693
0.06229
0.0647212
0.061644
0.0630142
0.058521
0.0612717
0.0617092
0.0572184
0.0562224
0.0610077
0.060282
0.0644748
0.0590669
0.0542986
0.0611975
0.0634063
0.0581992
0.0590656
0.0615606
0.0642237
0.0640325
0.0600634
0.0585008
0.0614128
0.0626862
0.0593899
0.0613054
0.0615223
0.0555252
0.0598673
0.059339
0.0620879
0.0639271
0.0616463
0.0639969
0.0622746
0.0617298
0.0618637
0.0553892
0.0563757
0.0554867
0.0638581
0.0619083
0.0644421
0.0661643
0.0625978
0.0551344
0.0629367
0.059733
0.0619408
0.0617511
0.0627215
0.0549247
0.0643526
0.0560332
0.0614125
0.0609355
0.0605252
0.0647794
0.061341
0.0629835
0.0557066
0.061271
0.0611947
0.0629961
0.0576098
0.0577874
0.0624658
0.0632012
0.061311
0.0623001
0.0643984
0.0556607
0.0602602
0.0594895
0.0579967
0.0626331
0.0642582
0.064373
0.0635216
0.0641863
0.0567671
0.0565634
0.0561785
0.0650904
0.0562407
0.0624794
0.0606689
0.0563038
0.0593083
0.0635161
0.0639298
0.0582079
0.0594206
0.0604705
0.0617095
0.0641656
0.0613387
0.0558786
0.0615472
0.0643676
0.0638426
0.0645282
0.0638715
0.0658579
0.0640848
0.0625872
0.0574084
0.0557811
0.0618679
0.0575985
0.0642485
0.0565674
0.0622756
0.0595815
0.0634689
0.0571316
0.0621541
0.0634608
0.0626201
0.0596011
0.0564449
0.0637549
0.0595254
0.0642979
0.0607731
0.0659232
0.0642448
0.0618818
0.0558049
0.056268
0.060808
0.061238
0.0591639
0.0650318
0.0569056
0.0635466
0.0621284
0.0596379
0.0624784
0.0637854
0.0639239
0.0639762
0.0648631
0.0623199
0.0611306
0.055222
0.0582986
0.0635185
0.0570769
0.0615668
0.0608605
0.0565428
0.0612488
0.0619074
0.0609156
0.0627983
0.0636743
0.0569195
0.0609121
0.0617798
0.0559716
0.0585987
0.0604278
0.0597272
0.0622103
0.0567127
0.0563016
0.0611581
0.0591187
0.0637748
0.0645007
0.0632165
0.0604217
0.0604768
0.0614062
0.0597652
0.0642306
0.0566275
0.0613142
0.0596167
0.0639496
0.0625819
0.0604593
0.0612714
0.0637197
0.0567678
0.0617575
0.0640686
0.0603969
0.0515992
0.0597301
0.0564512
0.0612581
0.0549661
0.0648008
0.0644693
0.0639037
0.0624038
0.0572176
0.055265
0.0634798
0.0647619
0.064095
0.0616441
0.0612328
0.0629646
0.0648331
0.0634204
0.0553446
0.0608684
0.0617788
0.0625793
0.0597152
0.0627458
0.054427
0.0639507
0.0634786
0.0609721
0.0619583
0.0619592
0.0615569
0.0640353
0.0628725
0.0570437
0.0612236
0.0629977
0.0608664
0.0609446
0.0619433
0.0553241
0.0560713
0.0637445
0.0643285
0.0634655
0.0639202
0.0625776
0.0628731
0.0610013
0.0618094
0.0623601
0.063771
0.0591975
0.0602963
0.0596669
0.061746
0.0638574
0.0546146
0.0608797
0.0543835
0.0636117
0.0546516
0.0559985
0.0610155
0.0531913
0.0608192
0.0625228
0.0635052
0.0633803
0.0581299
0.0594299
0.0650125
0.0587022
0.0572744
0.0605923
0.0580071
0.0637635
0.0626542
0.0610191
0.0567701
0.0634388
0.0648516
0.0635761
0.0560481
0.0574714
0.0611896
0.0639633
0.0646928
0.0560484
0.0557473
0.0627842
0.0613125
0.0644063
0.061033
0.0543897
0.061863
0.0635617
0.0558434
0.0545849
0.063791
0.056887
0.0565871
0.064105
0.0640082
0.0625826
0.0653497
0.0606998
0.0600225
0.064015
0.0586421
0.0632601
0.0586892
0.0619989
0.0628558
0.0605346
0.0558078
0.0629517
0.0631997
0.0591574
0.0610752
0.0599781
0.0575685
0.0573449
0.0609929
0.0625039
0.0642565
0.0588783
0.0631057
0.0553967
0.0628165
0.0642757
0.0556404
0.0636809
0.0618656
0.0523148
0.0555856
0.0619235
0.061193
0.0632354
0.0590032
0.0565224
0.0633438
0.0643951
0.0639158
0.0613354
0.0636834
0.0551672
0.0640518
0.0614683
0.0557376
0.0558526
0.0525766
0.0553956
0.0632476
0.0596155
0.0624157
0.0617241
0.0567742
0.0572399
0.0540017
0.0540015
0.0654757
0.0648155
0.0571013
0.0640807
0.0627179
0.056942
0.0606269
0.0607883
0.0575981
0.0590171
0.0634686
0.0578717
0.0549852
0.0636048
0.0652055
0.0584125
0.0638151
0.0609321
0.0575522
0.0563799
0.0606179
0.0558545
0.0559907
0.0619914
0.0624965
0.0598782
0.0637479
0.0635437
0.0610384
0.0644407
0.0478343
0.0605575
0.0551938
0.0616032
0.0641468
0.0608282
0.0586616
0.0611121
0.0558186
0.0626169
0.0610476
0.0583469
0.0563988
0.0537398
0.0535666
0.0588903
0.0553596
0.0602491
0.0555731
0.0597394
0.0630445
0.061966
0.060111
0.0621968
0.0620224
0.0613508
0.0630006
0.0550346
0.0600539
0.0640691
0.0638797
0.0606105
0.0649649
0.0569884
0.0635201
0.0608753
0.0552552
0.0625382
0.0642542
0.0616363
0.0630839
0.0641102
0.0617168
0.0535756
0.0535668
0.060669
0.0643996
0.0614079
0.0629748
0.059153
0.0595616
0.056935
0.0548241
0.0545342
0.0552385
0.0620935
0.0621616
0.0642746
0.05971
0.0595205
0.0644513
0.0551862
0.061691
0.0639106
0.0642129
0.0595263
0.059958
0.0635282
0.0650097
0.0638464
0.0543941
0.0607951
0.0632703
0.0618017
0.061875
0.0655693
0.0632716
0.0642553
0.0619434
0.0581608
0.0614169
0.0641368
0.0626472
0.0617078
0.0554008
0.0634835
0.0635822
0.0644344
0.063281
0.0548581
0.0535887
0.060821
0.0623347
0.0609388
0.0618817
0.0629954
0.0629702
0.0630782
0.0586913
0.0619493
0.0615739
0.0634523
0.056334
0.0561474
0.0596114
0.0636923
0.0562207
0.0638913
0.0558408
0.0594056
0.0616331
0.064103
0.0595186
0.0633375
0.0637245
0.0634128
0.0613639
0.0627936
0.0619778
0.0592678
0.0538709
0.0640734
0.053715
0.0555825
0.054087
0.0543252
0.0548975
0.0591569
0.0619006
0.0557885
0.0589248
0.0525237
0.0570885
0.0606304
0.0638603
0.0542704
0.0562404
0.0630993
0.0544031
0.0592642
0.0631855
0.0615875
0.0614937
0.056594
0.0555166
0.0587842
0.0639587
0.0583188
0.0562717
0.0610735
0.0590899
0.0622757
0.0609689
0.0568328
0.0641896
0.0547478
0.0560032
0.0604948
0.0639588
0.0589858
0.0601559
0.0606807
0.061683
0.0539957
0.0572907
0.0605568
0.06417
0.0625615
0.0555798
0.0538961
0.0602283
0.0640193
0.0609189
0.0612342
0.0590997
0.0597467
0.0610778
0.0553203
0.0639842
0.0584116
0.0554557
0.0539377
0.0632521
0.0610704
0.0641761
0.060781
0.0634568
0.055109
0.0603968
0.0539758
0.0539895
0.0634959
0.0567538
0.0601027
0.0616665
0.0621502
0.0558591
0.0640391
0.0632876
0.0640647
0.0616922
0.0523091
0.0618563
0.0535946
0.0645592
0.0562794
0.0642314
0.0531827
0.0622834
0.0629191
0.0592797
0.0596715
0.0532107
0.0582609
0.0612533
0.0632858
0.0618824
0.0638523
0.0643153
0.0552946
0.0641115
0.0566331
0.0622701
0.0622873
0.0635758
0.0628814
0.0613508
0.0641422
0.0596003
0.0576369
0.0576189
0.0621781
0.0645072
0.0569003
0.0576599
0.063404
0.0619427
0.0613825
0.0657064
0.062633
0.0614724
0.0631268
0.06296
0.0641947
0.0603345
0.0597124
0.0637525
0.0628867
0.0556754
0.0606016
0.0582653
0.0644366
0.0619634
0.0632619
0.056216
0.0561024
0.0616254
0.0631991
0.0636109
0.0641253
0.0641831
0.0607703
0.0615263
0.0562982
0.0611106
0.0618898
0.0635174
0.0643195
0.0641509
0.0602048
0.0639042
0.0572018
0.0635522
0.0581807
0.0607671
0.0589217
0.0617021
0.0598223
0.0634191
0.0558088
0.0638442
0.0639331
0.0601295
0.0559443
0.065449
0.0616944
0.0635894
0.0614168
0.0618108
0.0624521
0.0551731
0.0639671
0.0603395
0.0621438
0.0572391
0.0575569
0.0580691
0.0550828
0.0582228
0.0641231
0.0616592
0.054166
0.0625884
0.0552634
0.0610125
0.0619709
0.0536355
0.0548502
0.0582659
0.0604687
0.0626233
0.0587814
0.0628589
0.0599015
0.0555892
0.0584057
0.0637195
0.0638219
0.0640089
0.0629072
0.0623554
0.0559176
0.055097
0.0638741
0.059434
0.0611451
0.0637088
0.0652242
0.0617078
0.0619484
0.0541214
0.0630595
0.0640854
0.0588937
0.0636841
0.0634245
0.0623601
0.0598387
0.062449
0.0592711
0.0544654
0.0615903
0.0562656
0.0553671
0.0608378
0.0616683
0.0635826
0.063686
0.0621074
0.0634072
0.0539176
0.058856
0.0648759
0.0646183
0.0553998
0.061043
0.0563787
0.0596193
0.0636877
0.0593772
0.0615004
0.0645056
0.0614517
0.0543425
0.0635186
0.0550931
0.0632623
0.0625194
0.0622138
0.063604
0.0622135
0.0635051
0.0556503
0.0638669
0.0639153
0.0568005
0.0626568
0.0610302
0.0599621
0.0636366
0.060342
0.0631274
0.0644131
0.0638348
0.0617913
0.0641305
0.0614618
0.0616347
0.0577093
0.0593845
0.0555899
0.0539568
0.060812
0.0626464
0.0612367
0.0641081
0.0604942
0.0638776
0.0542755
0.0643661
0.0644374
0.062808
0.0633875
0.0570756
0.054576
0.0612695
0.05508
0.0629376
0.0618001
0.0539103
0.0592643
0.0640775
0.0633726
0.0539324
0.0576259
0.0538758
0.0645981
0.0552603
0.0633824
0.0586818
0.0560961
0.0635055
0.0638609
0.0642733
0.0628909
0.0553767
0.0613985
0.064709
0.0566619
0.0637281
0.0627236
0.0638848
0.054583
0.062588
0.0593739
0.0622136
0.0596849
0.0606159
0.0588222
0.0594477
0.0600614
0.0592959
0.0626993
0.0609334
0.0641408
0.0576761
0.0610215
0.0620923
0.0633281
0.0640713
0.0561423
0.0627603
0.0556315
0.0601189
0.0641465
0.0644939
0.0608381
0.0606042
0.0628874
0.0586651
0.060631
0.060268
0.055702
0.0550885
0.0622979
0.063876
0.0602927
0.059262
0.063973
0.0556832
0.0623405
0.0559884
0.0614576
0.0641864
0.0617833
0.0549462
0.0638425
0.0555502
0.0626901
0.0633085
0.0547478
0.0642978
0.056828
0.0587312
0.0599214
0.0543287
0.0578493
0.0597156
0.0533076
0.0635344
0.0647999
0.0537142
0.05831
0.0630458
0.0621739
0.0621385
0.0649849
0.0636316
0.0608178
0.0575209
0.0551026
0.05349
0.0538026
0.0641337
0.0631377
0.0613681
0.0621135
0.0550932
0.0554612
0.0606046
0.0634504
0.0530814
0.061944
0.0612195
0.0603454
0.062573
0.0595953
0.0635804
0.0579278
0.0599553
0.0650481
0.0526165
0.0611557
0.0638334
0.0637865
0.0613542
0.0635027
0.0623576
0.05494
0.0647846
0.0652431
0.060995
0.0619377
0.0595049
0.0611258
0.0629152
0.06277
0.0618667
0.0613296
0.0601436
0.0546567
0.0595053
0.064447
0.0629342
0.0645709
0.0623032
0.0610791
0.0645931
0.0564221
0.0636513
0.0553203
0.0644373
0.061964
0.0588797
0.0648221
0.0586332
0.0599001
0.0646147
0.059265
0.0647612
0.0635422
0.0627739
0.0559691
0.0616895
0.0609919
0.0581921
0.0635036
0.0601761
0.0607068
0.0648209
0.0556707
0.0635614
0.0617956
0.0637503
0.0592729
0.0619547
0.0558556
0.0573519
0.0655673
0.0557571
0.0616585
0.0636807
0.055872
0.0601985
0.0638844
0.0581581
0.0566325
0.0575693
0.0595642
0.0587273
0.0640646
0.0596207
0.0642339
0.0624295
0.0640235
0.0548204
0.0580567
0.0640165
0.0610616
0.0556574
0.0568222
0.0601174
0.0527941
0.0547731
0.0610906
0.0606643
0.0638133
0.0600215
0.0635872
0.0638671
0.0635498
0.0631938
0.0628455
0.0582126
0.0592721
0.0628246
0.060703
0.0595943
0.0639321
0.0610185
0.0547421
0.0547245
0.0595196
0.0536995
0.0621088
0.063522
0.0590872
0.0625642
0.0634292
0.0633055
0.0648247
0.0601805
0.0563051
0.0597442
0.059668
0.0637434
0.0591433
0.0623801
0.0642237
0.0593764
0.0591158
0.062198
0.0641273
0.0630859
0.0661225
0.0636188
0.060527
0.0612701
0.05725
0.059751
0.0639912
0.0574365
0.0638353
0.059703
0.0633327
0.0553683
0.0631224
0.0614608
0.0637643
0.060986
0.0612806
0.0613351
0.0631961
0.0545661
0.0572104
0.0610024
0.0588882
0.0603561
0.061958
0.0616016
0.0642002
0.0617453
0.0553057
0.0583931
0.0556302
0.0607153
0.0617072
0.0564824
0.0653902
0.0613009
0.059712
0.0623731
0.0572603
0.0565483
0.0641142
0.0561666
0.0541417
0.0556725
0.0563502
0.0561533
0.0576932
0.0639424
0.0633493
0.0591029
0.062403
0.0634012
0.0612696
0.0624909
0.054404
0.0638702
0.0468187
0.0634615
0.0554855
0.0549583
0.0632952
0.0547045
0.0600139
0.0617954
0.0636794
0.0588425
0.0615005
0.0587563
0.0609548
0.0594697
0.0614947
0.0604519
0.0628055
0.0611085
0.0559266
0.0628241
0.0603638
0.0602076
0.0566502
0.0567287
0.05828
0.0546508
0.0547417
0.061428
0.0598098
0.056724
0.0591809
0.0637092
0.0636486
0.0636779
0.0476413
0.0553673
0.0642467
0.0557745
0.0631573
0.0544819
0.0638226
0.0632357
0.0642126
0.0555562
0.0604015
0.0643983
0.0642258
0.0615754
0.0642437
0.061064
0.0613918
0.0608037
0.0550203
0.0614198
0.0586666
0.0615718
0.0615311
0.0578743
0.0605388
0.0634947
0.0578806
0.0571407
0.055586
0.0623645
0.0625259
0.0545157
0.0614683
0.0612252
0.0621664
0.0562643
0.0620082
0.0598409
0.0644511
0.0522515
0.0603165
0.0610679
0.0545248
0.0634579
0.0567229
0.0569512
0.0615333
0.0641048
0.0537252
0.0631725
0.0624781
0.0584644
0.0545391
0.0640782
0.0637889
0.0542829
0.0612959
0.0537618
0.0570087
0.06391
0.0596393
0.0622012
0.0638136
0.0640479
0.0597623
0.0585309
0.0608125
0.0604382
0.060549
0.0585241
0.0628606
0.0551354
0.0596996
0.0601775
0.0599706
0.0625882
0.0603774
0.062451
0.0625061
0.0612358
0.0638856
0.0617931
0.0595953
0.0581122
0.0623789
0.0597869
0.0592192
0.0622598
0.0638851
0.0618554
0.0633023
0.0591008
0.0627382
0.0580502
0.0559453
0.0609904
0.0623025
0.0562678
0.0617825
0.0604686
0.0531106
0.0542754
0.0633096
0.0533168
0.0607211
0.0634346
0.0614667
0.0559778
0.062027
0.064962
0.0554764
0.0558378
0.0565729
0.0634483
0.0613336
0.0612995
0.0645549
0.0549582
0.0627746
0.0611336
0.0641198
0.0646606
0.0473555
0.0611613
0.0627838
0.0634756
0.0612236
0.0600903
0.0537523
0.0626962
0.0638331
0.0576725
0.0546329
0.0594612
0.0631346
0.061973
0.0552248
0.0602627
0.0628081
0.0636089
0.0605917
0.0602747
0.0541644
0.055593
0.0554922
0.0617188
0.0603559
0.0608399
0.0640101
0.0636881
0.0538474
0.0633532
0.0636109
0.0624111
0.058721
0.0633744
0.0596935
0.0558299
0.0581783
0.0611681
0.0605241
0.0576326
0.0613737
0.0599258
0.0631831
0.0563683
0.0546481
0.0601703
0.0639319
0.0629961
0.0592792
0.0596998
0.0635174
0.0640015
0.0599312
0.0585424
0.0630176
0.0637065
0.0621733
0.0640351
0.0632013
0.0618304
0.0545417
0.0590662
0.0553256
0.0622644
0.0635236
0.0588483
0.0554467
0.0644839
0.0557981
0.0592064
0.0570515
0.0602886
0.054533
0.062216
0.0612277
0.060944
0.0605386
0.0570295
0.0640589
0.0563039
0.0620441
0.0603289
0.0609257
0.055339
0.0630961
0.0623165
0.0550019
0.0576269
0.0602242
0.0597873
0.0618568
0.0507441
0.0624401
0.0590681
0.0612538
0.0580021
0.0585986
0.0584694
0.0514055
0.0636144
0.0594769
0.0395318
0.055285
0.0610063
0.0636314
0.0626057
0.0567116
0.0534682
0.0626876
0.0551125
0.0629916
0.063908
0.0610779
0.0567528
0.0631315
0.0545905
0.0548124
0.0542494
0.0624895
0.060877
0.0590226
0.0638167
0.0617501
0.0619514
0.0570143
0.0528768
0.0641342
0.0613809
0.0645325
0.0632836
0.0558047
0.0609592
0.0611764
0.0588307
0.0612269
0.058465
0.0596906
0.0664229
0.0619537
0.0591304
0.0555458
0.0616105
0.0608111
0.0622854
0.0593655
0.054717
0.0563027
0.061241
0.0621424
0.0589796
0.0632933
0.0579994
0.0621494
0.0589349
0.0600968
0.0517953
0.0640335
0.0620179
0.0608793
0.064435
0.0608399
0.0571851
0.0572739
0.0519832
0.0626438
0.0580076
0.0612879
0.0605061
0.0632278
0.0611186
0.0636606
0.0600119
0.0408223
0.0559689
0.063593
0.0437839
0.0599979
0.064161
0.0626285
0.0638742
0.0580595
0.0565413
0.0572044
0.0644408
0.0512807
0.0643725
0.0557203
0.0529766
0.0630058
0.0564484
0.0635132
0.0406603
0.0539252
0.0617514
0.0635765
0.064031
0.0611635
0.0633074
0.0619814
0.061874
0.0627475
0.0622764
0.0604337
0.0605411
0.0517025
0.0632882
0.0605163
0.0597898
0.0641911
0.0638223
0.0632458
0.0564772
0.0637677
0.0622516
0.0585483
0.0569159
0.0544651
0.0627338
0.0635503
0.0631719
0.0637726
0.0626903
0.0615583
0.0544126
0.0624209
0.0598827
0.0598842
0.0614799
0.0550722
0.0533052
0.0597235
0.0653792
0.0621052
0.0618687
0.0561896
0.0595496
0.0590595
0.0558174
0.0637418
0.0609158
0.0464308
0.0503016
0.0543549
0.0561754
0.0634904
0.0622507
0.0625531
0.0579102
0.0543479
0.0628947
0.0636796
0.0534728
0.0644937
0.0564424
0.0640729
0.06014
0.0631358
0.0635614
0.0613059
0.0625176
0.0610159
0.0585919
0.056374
0.0582503
0.0625955
0.0602979
0.0564419
0.0604681
0.0619698
0.0548449
0.060031
0.0567444
0.0636351
0.0601073
0.0611727
0.0489139
0.0637012
0.0640708
0.0599238
0.0625197
0.0596342
0.0607177
0.0638682
0.0608141
0.0618181
0.0643087
0.061393
0.05581
0.0553002
0.065169
0.0582776
0.0555405
0.056343
0.0632107
0.0641896
0.0627323
0.0639809
0.0650828
0.0639
0.0621303
0.0605577
0.0583886
0.0627437
0.0543092
0.0604855
0.0623638
0.058981
0.0580429
0.0566724
0.0617841
0.064386
0.0549941
0.0605446
0.0623431
0.0554873
0.0636944
0.0525416
0.0545696
0.0561807
0.0648765
0.0561442
0.0550565
0.0567706
0.0571566
0.0616974
0.0527243
0.0539262
0.0600323
0.0588323
0.0532669
0.0608664
0.0560167
0.0572405
0.0622197
0.0573352
0.0549775
0.0629441
0.0598824
0.0585564
0.0553206
0.06058
0.0587165
0.052966
0.0639257
0.0614389
0.0629539
0.0599472
0.0560853
0.0550984
0.0609576
0.0596268
0.063982
0.0604003
0.0633588
0.0573888
0.0610438
0.0629237
0.0636044
0.0514946
0.0539184
0.056566
0.0632878
0.0560107
0.0609811
0.0473706
0.0576473
0.0618801
0.0590417
0.0618542
0.0566057
0.0606775
0.0607741
0.0629324
0.0559737
0.0612868
0.0651697
0.0566276
0.0615483
0.0584497
0.0624878
0.0566131
0.0554261
0.0617683
0.0553265
0.0510241
0.0527743
0.0566831
0.0579232
0.0522107
0.0637238
0.0591735
0.0539491
0.0609484
0.0633562
0.0616527
0.0534349
0.0645302
0.0625996
0.0550859
0.0599009
0.0605081
0.0572832
0.0608241
0.0610274
0.0617523
0.0547541
0.0538144
0.0608921
0.0560497
0.0528634
0.0532201
0.0552176
0.061807
0.0557269
0.0628162
0.0604048
0.0621588
0.057104
0.063689
0.0582643
0.0606068
0.0571118
0.0404768
0.064194
0.0535417
0.0606611
0.0630112
0.063728
0.0512258
0.0632791
0.0640425
0.0555395
0.0606386
0.0595794
0.0569174
0.0516729
0.0609961
0.0581205
0.0618545
0.0642823
0.060469
0.0640178
0.0587024
0.0589628
0.0558071
0.0519773
0.053651
0.0632941
0.0528762
0.0623532
0.0580929
0.0532554
0.0580907
0.0634363
0.052905
0.0441838
0.0575669
0.062225
0.0636491
0.0617411
0.0407647
0.057443
0.0636479
0.0620744
0.0644209
0.0606917
0.0532394
0.0638094
0.0532542
0.0627197
0.0579927
0.0589064
0.0595988
0.0632343
0.0553679
0.0581129
0.0523338
0.0589006
0.0629448
0.0625622
0.0616824
0.0552668
0.0552308
0.0600059
0.0554848
0.0606929
0.0537276
0.0563905
0.0617451
0.0636395
0.0552149
0.0633395
0.0571752
0.065022
0.054256
0.0638404
0.0611956
0.061806
0.0602008
0.0573977
0.057011
0.065436
0.0599342
0.0608611
0.061426
0.0560878
0.0618778
0.0640712
0.0559494
0.057554
0.0579609
0.0548467
0.0589896
0.0624946
0.0501005
0.0640387
0.0515934
0.0601756
0.0622275
0.0532399
0.059963
0.0614522
0.0565963
0.05996
0.0583376
0.0597635
0.0533156
0.0619805
0.0536397
0.0600608
0.0452951
0.0618575
0.0535012
0.0556717
0.060863
0.0551181
0.0575168
0.0643203
0.0614887
0.0609023
0.0635258
0.0529047
0.0620758
0.0558774
0.0611131
0.0597139
0.0603828
0.0626345
0.0615044
0.0539905
0.0539548
0.0634013
0.061599
0.0620366
0.0519778
0.0637973
0.065456
0.0626771
0.0621283
0.0579872
0.0555939
0.0606537
0.0552275
0.0566922
0.0625791
0.0606203
0.0582184
0.0607897
0.0603477
0.0609156
0.0544596
0.0561637
0.0551968
0.0513979
0.0643458
0.0611418
0.057519
0.0632272
0.0614686
0.0569045
0.0636201
0.0525366
0.0560794
0.0534403
0.0551374
0.0641378
0.0624185
0.0489689
0.0635221
0.0528678
0.0610358
0.060995
0.061337
0.0636669
0.0603842
0.0619366
0.0586
0.0598378
0.0595311
0.063016
0.05312
0.0550463
0.0596931
0.0517896
0.0576873
0.0523185
0.0567793
0.0635803
0.0591094
0.0483283
0.0492209
0.0544065
0.0554591
0.0584243
0.057603
0.0601748
0.0617451
0.0507762
0.0600162
0.0578455
0.0584293
0.0533484
0.0599519
0.0524644
0.0478947
0.0562428
0.0559078
0.0558649
0.0565092
0.0580817
0.059168
0.055147
0.0637479
0.0541175
0.0611912
0.0574604
0.0605935
0.0583516
0.0543862
0.0609153
0.0607722
0.0518284
0.0577326