/*--------------------------------*- C++ -*----------------------------------*\
| =========                 |                                                 |
| \\      /  F ield         | OpenFOAM: The Open Source CFD Toolbox           |
|  \\    /   O peration     | Version:  2212                                  |
|   \\  /    A nd           | Website:  www.openfoam.com                      |
|    \\/     M anipulation  |                                                 |
\*---------------------------------------------------------------------------*/
FoamFile
{
    version     2.0;
    format      ascii;
    arch        "LSB;label=32;scalar=64";
    class       volScalarField;
    location    "0.014";
    object      nut;
}
// * * * * * * * * * * * * * * * * * * * * * * * * * * * * * * * * * * * * * //

dimensions      [0 2 -1 0 0 0 0];

internalField   nonuniform List<scalar> 
31639
(
8.2953e-05
8.11283e-05
8.31819e-05
8.71367e-05
8.03068e-05
7.94092e-05
7.87921e-05
8.39333e-05
8.27038e-05
8.59807e-05
8.59106e-05
8.51773e-05
8.24627e-05
8.66879e-05
7.9747e-05
7.71165e-05
8.30643e-05
7.88864e-05
7.61665e-05
8.13634e-05
6.96494e-05
8.50471e-05
8.69442e-05
7.67881e-05
7.62923e-05
8.22941e-05
8.17845e-05
7.09051e-05
7.90319e-05
8.66229e-05
8.58322e-05
7.80903e-05
8.63955e-05
7.61997e-05
7.18302e-05
8.64775e-05
6.72277e-05
8.78028e-05
8.6327e-05
6.55688e-05
7.27389e-05
7.07755e-05
8.56949e-05
8.53788e-05
8.65231e-05
8.59581e-05
7.9365e-05
7.88946e-05
8.274e-05
8.69497e-05
8.53408e-05
6.62687e-05
8.74829e-05
6.88068e-05
7.77126e-05
8.25565e-05
6.98372e-05
8.18602e-05
8.12311e-05
6.95108e-05
8.11049e-05
8.41276e-05
7.52517e-05
8.04918e-05
8.23615e-05
8.66414e-05
8.12963e-05
8.19341e-05
7.33886e-05
8.66923e-05
8.73385e-05
7.61466e-05
8.45766e-05
8.13932e-05
8.75176e-05
7.12127e-05
8.62633e-05
7.95273e-05
8.04783e-05
8.52356e-05
7.56636e-05
6.53852e-05
8.66774e-05
8.30622e-05
8.34293e-05
8.5971e-05
8.71118e-05
8.65329e-05
7.11029e-05
8.8e-05
8.25307e-05
7.98795e-05
7.03118e-05
8.06467e-05
7.40317e-05
7.92878e-05
8.0435e-05
8.16772e-05
8.23359e-05
7.0338e-05
8.78706e-05
8.57251e-05
8.0288e-05
6.85745e-05
7.00428e-05
8.61379e-05
6.84478e-05
6.74511e-05
7.48295e-05
6.90472e-05
8.34982e-05
7.09681e-05
8.0331e-05
7.74751e-05
8.19265e-05
6.87241e-05
7.90947e-05
7.89792e-05
8.67036e-05
8.08159e-05
8.3644e-05
8.51242e-05
8.41353e-05
8.22921e-05
8.1116e-05
8.67615e-05
8.12448e-05
7.51083e-05
7.46e-05
8.50805e-05
8.55295e-05
8.4037e-05
8.4634e-05
7.80074e-05
8.36327e-05
8.21368e-05
6.98707e-05
6.86696e-05
8.48613e-05
8.1613e-05
8.11862e-05
8.59574e-05
8.61169e-05
6.7496e-05
6.72155e-05
8.70277e-05
8.55355e-05
7.04954e-05
7.04818e-05
8.62236e-05
7.42057e-05
8.14144e-05
7.61496e-05
8.37263e-05
7.06791e-05
8.69569e-05
8.00939e-05
7.4041e-05
7.12771e-05
7.65513e-05
8.60634e-05
7.112e-05
7.38289e-05
6.95449e-05
7.11882e-05
7.93903e-05
7.11954e-05
8.65325e-05
8.49476e-05
6.84832e-05
7.5071e-05
7.90944e-05
7.20982e-05
8.24421e-05
8.74488e-05
8.57746e-05
8.2576e-05
8.68136e-05
8.284e-05
8.1762e-05
8.06324e-05
7.81734e-05
7.84918e-05
6.66951e-05
8.25208e-05
8.71971e-05
7.81176e-05
8.65799e-05
7.11996e-05
6.85883e-05
8.75422e-05
8.4471e-05
8.21567e-05
8.07458e-05
8.11321e-05
7.75582e-05
7.81187e-05
8.47825e-05
6.88399e-05
7.83797e-05
8.60204e-05
8.75012e-05
8.2378e-05
8.26728e-05
8.1531e-05
8.14385e-05
7.95975e-05
8.01302e-05
8.51629e-05
6.66511e-05
8.07149e-05
7.89155e-05
8.28185e-05
8.50028e-05
8.30332e-05
8.60922e-05
7.25133e-05
7.70851e-05
8.54692e-05
8.60074e-05
8.44201e-05
7.9367e-05
6.86717e-05
8.18984e-05
6.90712e-05
8.11492e-05
8.56727e-05
7.61356e-05
7.09128e-05
8.365e-05
8.28559e-05
8.75679e-05
7.14157e-05
6.96222e-05
8.23004e-05
8.30027e-05
7.00208e-05
8.49807e-05
7.49458e-05
6.80894e-05
8.03008e-05
8.17325e-05
8.00328e-05
7.63195e-05
7.55486e-05
8.28365e-05
7.95756e-05
7.85124e-05
6.98706e-05
8.11724e-05
7.79615e-05
7.20809e-05
7.66553e-05
8.67856e-05
8.63975e-05
7.83233e-05
7.18948e-05
8.45874e-05
8.34992e-05
7.92641e-05
8.71695e-05
8.5802e-05
8.41504e-05
8.62863e-05
8.00116e-05
8.06482e-05
6.83886e-05
7.61958e-05
8.45483e-05
7.89656e-05
8.35149e-05
7.70175e-05
8.10403e-05
8.58199e-05
8.7017e-05
8.16552e-05
6.95982e-05
7.88308e-05
7.37939e-05
8.54283e-05
7.93166e-05
8.59681e-05
8.71217e-05
7.75144e-05
7.08192e-05
7.42835e-05
7.12955e-05
6.87621e-05
8.49829e-05
7.22849e-05
8.6844e-05
7.94974e-05
7.66784e-05
7.30507e-05
8.74365e-05
7.75907e-05
7.59765e-05
8.49322e-05
8.10423e-05
7.46336e-05
8.07846e-05
7.09844e-05
8.12465e-05
8.00221e-05
7.16532e-05
7.87596e-05
7.98258e-05
6.48628e-05
6.82006e-05
8.51303e-05
8.71021e-05
8.50858e-05
6.97156e-05
7.24066e-05
8.4739e-05
7.32649e-05
7.41836e-05
8.66886e-05
8.63916e-05
7.91566e-05
8.5826e-05
8.71221e-05
7.13742e-05
8.83426e-05
6.77877e-05
6.93886e-05
8.54628e-05
8.42788e-05
8.52401e-05
8.65258e-05
8.3061e-05
7.22843e-05
7.93484e-05
7.99858e-05
8.60221e-05
8.71631e-05
8.77164e-05
8.01403e-05
7.76857e-05
8.29252e-05
8.50294e-05
8.22098e-05
7.75947e-05
7.9875e-05
7.98686e-05
7.84859e-05
8.5074e-05
7.83367e-05
7.1403e-05
8.41271e-05
8.86745e-05
7.8122e-05
8.68702e-05
8.50416e-05
8.06631e-05
7.13421e-05
8.02329e-05
8.05736e-05
6.96041e-05
8.63597e-05
7.14397e-05
8.13535e-05
8.65011e-05
6.77474e-05
8.13662e-05
8.04071e-05
7.01875e-05
8.11349e-05
7.26423e-05
7.88322e-05
8.70689e-05
8.34893e-05
6.80274e-05
8.25754e-05
7.16367e-05
8.26907e-05
8.55322e-05
8.63386e-05
8.6253e-05
7.19094e-05
8.3294e-05
6.93956e-05
7.9464e-05
6.81221e-05
8.62457e-05
8.50507e-05
8.64549e-05
8.57019e-05
7.54187e-05
8.57555e-05
8.14694e-05
8.29476e-05
8.03988e-05
7.29408e-05
8.01025e-05
8.21009e-05
8.22808e-05
8.30072e-05
8.16784e-05
8.36446e-05
7.90012e-05
7.08728e-05
8.06861e-05
8.53834e-05
8.42458e-05
6.75697e-05
8.62611e-05
8.50699e-05
8.04915e-05
8.27653e-05
8.36545e-05
8.05832e-05
8.57404e-05
7.06733e-05
8.24579e-05
8.5818e-05
6.80375e-05
8.16805e-05
8.3176e-05
7.27812e-05
6.89301e-05
7.02412e-05
7.85558e-05
7.0347e-05
8.14331e-05
8.14274e-05
7.75347e-05
8.7114e-05
7.10637e-05
8.48843e-05
8.66451e-05
8.096e-05
8.2718e-05
7.87621e-05
8.60154e-05
8.12834e-05
8.11633e-05
8.66964e-05
8.14424e-05
6.98285e-05
8.11314e-05
8.73562e-05
8.61148e-05
8.34008e-05
8.74269e-05
7.85782e-05
8.23718e-05
8.38655e-05
8.6405e-05
8.70471e-05
7.10675e-05
8.0666e-05
6.59021e-05
7.9364e-05
7.9803e-05
7.12496e-05
6.9226e-05
7.80949e-05
8.24173e-05
8.45116e-05
7.03612e-05
8.28547e-05
7.70347e-05
8.04244e-05
8.36253e-05
6.52101e-05
7.981e-05
6.87828e-05
7.89628e-05
8.54943e-05
8.85903e-05
8.40506e-05
7.95223e-05
6.83398e-05
8.31704e-05
8.10395e-05
8.51496e-05
6.94501e-05
7.06874e-05
8.03126e-05
7.06759e-05
7.18845e-05
8.23387e-05
6.96683e-05
7.77999e-05
7.11392e-05
8.30807e-05
7.03102e-05
8.68423e-05
8.52135e-05
8.57683e-05
8.56971e-05
7.50625e-05
8.62135e-05
8.66249e-05
8.19382e-05
8.43614e-05
8.20779e-05
8.54962e-05
8.74746e-05
7.74262e-05
8.56942e-05
8.73324e-05
8.0648e-05
7.42908e-05
8.7065e-05
8.15675e-05
6.6234e-05
6.85957e-05
8.1659e-05
8.63268e-05
8.65298e-05
7.89218e-05
8.69685e-05
8.7791e-05
8.49028e-05
8.23479e-05
7.93815e-05
8.15381e-05
7.23287e-05
8.00172e-05
8.25794e-05
8.69916e-05
7.46465e-05
7.43703e-05
7.28305e-05
7.72211e-05
8.02003e-05
6.63767e-05
8.32658e-05
7.66734e-05
8.20617e-05
7.90133e-05
8.39221e-05
8.00486e-05
7.11787e-05
8.29362e-05
8.55024e-05
7.29065e-05
8.36215e-05
8.84211e-05
8.2049e-05
7.98377e-05
7.2221e-05
7.36371e-05
8.09104e-05
8.18931e-05
7.14889e-05
7.05619e-05
8.20385e-05
7.63122e-05
8.32238e-05
7.53618e-05
7.94449e-05
8.60513e-05
8.09245e-05
6.95665e-05
7.63218e-05
8.17218e-05
8.61916e-05
6.96865e-05
6.59548e-05
8.54959e-05
6.94989e-05
8.28656e-05
8.721e-05
6.97381e-05
8.1661e-05
8.65267e-05
8.10027e-05
6.98736e-05
8.65558e-05
8.06276e-05
7.04705e-05
8.60857e-05
8.27049e-05
7.90099e-05
8.57637e-05
6.68224e-05
7.54125e-05
8.02325e-05
7.8054e-05
7.57666e-05
8.1691e-05
8.65096e-05
8.64429e-05
8.44409e-05
8.66522e-05
8.52744e-05
8.21549e-05
7.60536e-05
8.39169e-05
8.65033e-05
8.99316e-05
7.44026e-05
8.19597e-05
8.13891e-05
8.93193e-05
7.1716e-05
6.73977e-05
8.66278e-05
7.36976e-05
8.72259e-05
7.88074e-05
7.00119e-05
7.91686e-05
8.57054e-05
8.02942e-05
8.30941e-05
6.90355e-05
8.4128e-05
8.07235e-05
6.84312e-05
8.64374e-05
8.48238e-05
6.98911e-05
7.20232e-05
7.24391e-05
7.94334e-05
8.16766e-05
8.16288e-05
8.06655e-05
8.14832e-05
8.49725e-05
8.18129e-05
8.10402e-05
7.22694e-05
8.66272e-05
6.96885e-05
8.1487e-05
7.96425e-05
7.88825e-05
8.85894e-05
8.12012e-05
7.39673e-05
6.83151e-05
7.18115e-05
7.95131e-05
8.60868e-05
7.18397e-05
8.67335e-05
7.98879e-05
8.48907e-05
7.0545e-05
7.89456e-05
8.46421e-05
8.71186e-05
8.55704e-05
8.43082e-05
8.25065e-05
8.02132e-05
8.75327e-05
8.71355e-05
8.63602e-05
7.53321e-05
8.47848e-05
7.08856e-05
8.68235e-05
8.55911e-05
8.01989e-05
7.18962e-05
7.89027e-05
6.67007e-05
8.54011e-05
8.08636e-05
8.73327e-05
8.10667e-05
7.85201e-05
7.10126e-05
8.62744e-05
6.89039e-05
6.59478e-05
7.35706e-05
7.45154e-05
7.12548e-05
8.11003e-05
6.99294e-05
8.2706e-05
8.21986e-05
6.54308e-05
8.68836e-05
7.09891e-05
7.52689e-05
7.90892e-05
7.67411e-05
8.36326e-05
8.60001e-05
8.69772e-05
8.66023e-05
7.7192e-05
8.07113e-05
7.78779e-05
7.86614e-05
6.69517e-05
5.78597e-05
8.63176e-05
8.04672e-05
8.34988e-05
8.57206e-05
7.02789e-05
8.61506e-05
8.75826e-05
8.45763e-05
8.4811e-05
8.47441e-05
8.28497e-05
8.65118e-05
8.69984e-05
8.15472e-05
8.58152e-05
8.46994e-05
7.22596e-05
8.5852e-05
7.78789e-05
8.55371e-05
7.86093e-05
8.08062e-05
7.54876e-05
8.77976e-05
7.93886e-05
8.15884e-05
8.04117e-05
7.19176e-05
8.63421e-05
8.11829e-05
7.71196e-05
7.03571e-05
8.42095e-05
6.7457e-05
8.49616e-05
8.4102e-05
7.90194e-05
8.65867e-05
8.7158e-05
8.65953e-05
7.01842e-05
8.06407e-05
8.03725e-05
8.17698e-05
7.18503e-05
8.3808e-05
8.36864e-05
7.79897e-05
8.11737e-05
7.68054e-05
8.26135e-05
7.86006e-05
7.87979e-05
6.74676e-05
8.49059e-05
8.22555e-05
8.61307e-05
7.54117e-05
8.10988e-05
8.25231e-05
8.03464e-05
7.65403e-05
8.17605e-05
8.49723e-05
8.02807e-05
6.73818e-05
6.79613e-05
7.961e-05
6.72432e-05
7.14311e-05
8.29537e-05
8.2814e-05
8.47689e-05
6.72236e-05
7.99112e-05
8.63114e-05
7.08433e-05
6.78632e-05
8.13913e-05
7.24655e-05
8.38337e-05
7.36721e-05
8.70466e-05
7.62979e-05
7.67113e-05
8.63236e-05
6.79651e-05
7.95035e-05
7.95071e-05
8.51762e-05
8.62624e-05
8.61959e-05
7.27007e-05
8.44436e-05
8.6478e-05
7.81536e-05
8.68179e-05
8.45183e-05
8.34872e-05
8.71407e-05
8.14378e-05
8.86759e-05
8.70667e-05
8.79549e-05
8.35414e-05
7.86419e-05
8.15114e-05
8.08547e-05
7.11416e-05
7.89106e-05
8.32991e-05
8.54348e-05
8.72603e-05
7.95636e-05
8.81917e-05
8.47962e-05
7.78249e-05
8.4427e-05
8.59889e-05
8.41873e-05
8.38328e-05
7.09628e-05
7.75484e-05
8.75253e-05
6.71072e-05
7.98818e-05
8.01556e-05
7.87872e-05
7.97514e-05
8.6024e-05
8.27553e-05
8.53842e-05
8.07256e-05
8.29949e-05
8.06612e-05
8.56203e-05
8.19516e-05
7.85611e-05
7.12127e-05
8.58477e-05
7.20907e-05
7.88713e-05
7.9309e-05
7.87144e-05
8.09228e-05
8.77009e-05
7.13075e-05
8.77879e-05
7.16669e-05
8.20583e-05
7.90169e-05
8.04814e-05
8.05924e-05
8.63579e-05
7.08457e-05
8.50029e-05
8.57044e-05
8.63646e-05
8.2268e-05
8.28929e-05
6.70548e-05
8.73399e-05
8.57571e-05
8.47249e-05
8.47719e-05
8.58329e-05
8.08588e-05
8.11963e-05
8.21465e-05
7.14782e-05
7.96307e-05
8.68464e-05
6.9061e-05
7.43113e-05
8.92896e-05
8.59589e-05
7.57238e-05
7.73998e-05
8.25873e-05
7.60897e-05
7.96371e-05
7.23854e-05
8.45848e-05
8.67604e-05
6.69084e-05
8.12531e-05
8.59232e-05
8.38966e-05
8.63228e-05
7.90364e-05
8.5436e-05
7.25165e-05
7.19693e-05
8.76658e-05
8.60634e-05
8.01911e-05
7.12037e-05
8.30067e-05
8.62632e-05
7.44571e-05
8.64083e-05
8.41488e-05
8.49479e-05
8.23817e-05
8.53396e-05
8.21521e-05
8.20556e-05
7.97393e-05
7.64427e-05
6.84542e-05
8.12317e-05
8.19786e-05
7.14906e-05
8.58482e-05
6.80561e-05
7.89218e-05
7.86834e-05
7.13365e-05
8.0122e-05
7.6831e-05
8.39682e-05
8.12533e-05
8.46914e-05
7.05397e-05
7.15594e-05
7.8451e-05
7.04621e-05
7.84963e-05
8.58174e-05
7.97599e-05
8.64794e-05
8.0461e-05
8.12237e-05
8.65546e-05
7.8209e-05
8.07949e-05
8.05598e-05
8.04302e-05
8.25259e-05
7.36793e-05
8.19389e-05
8.48748e-05
8.62901e-05
8.83595e-05
7.05838e-05
6.91775e-05
8.04438e-05
8.62582e-05
7.25388e-05
7.93501e-05
8.25166e-05
8.11104e-05
8.87089e-05
7.8752e-05
7.9428e-05
8.38105e-05
6.99953e-05
8.61088e-05
8.63852e-05
7.16773e-05
7.58799e-05
8.04175e-05
7.7483e-05
8.7222e-05
8.65993e-05
8.24144e-05
7.27286e-05
8.60845e-05
7.00406e-05
7.97375e-05
8.54711e-05
7.6953e-05
8.80946e-05
6.9211e-05
8.09207e-05
8.26816e-05
8.12239e-05
6.97124e-05
6.88604e-05
8.54642e-05
8.67203e-05
7.79601e-05
8.60807e-05
8.33762e-05
8.02926e-05
7.12162e-05
7.36064e-05
8.29196e-05
7.99325e-05
8.10041e-05
8.72118e-05
8.58498e-05
8.84078e-05
8.62525e-05
8.14491e-05
8.20038e-05
8.47037e-05
7.13164e-05
8.4888e-05
8.39857e-05
8.22002e-05
8.29873e-05
8.70747e-05
7.94366e-05
8.61282e-05
8.04096e-05
6.74208e-05
8.74453e-05
7.71637e-05
8.71635e-05
7.81108e-05
8.5369e-05
7.20482e-05
8.38323e-05
8.91643e-05
8.0868e-05
8.19182e-05
7.06641e-05
8.5153e-05
8.76459e-05
8.28922e-05
7.01509e-05
9.07586e-05
8.02072e-05
8.30299e-05
8.62784e-05
8.55208e-05
8.48575e-05
8.02312e-05
7.98932e-05
8.83815e-05
7.18275e-05
7.31005e-05
7.24637e-05
7.46136e-05
8.30178e-05
6.89007e-05
8.72374e-05
8.59379e-05
8.72685e-05
7.97607e-05
7.93433e-05
8.19165e-05
8.70721e-05
8.17514e-05
8.15199e-05
8.67337e-05
8.66596e-05
8.06964e-05
8.53747e-05
8.09827e-05
8.01844e-05
8.39724e-05
7.79077e-05
8.73862e-05
8.78551e-05
8.66299e-05
8.68395e-05
8.63642e-05
7.64246e-05
8.89964e-05
8.13062e-05
8.25385e-05
7.98417e-05
8.29785e-05
8.82502e-05
8.16662e-05
8.49089e-05
7.72078e-05
8.10846e-05
8.31049e-05
7.35294e-05
7.10226e-05
8.04619e-05
7.95537e-05
8.76126e-05
7.75662e-05
6.84931e-05
8.20527e-05
8.53422e-05
7.48637e-05
7.77136e-05
8.1666e-05
8.72927e-05
8.7108e-05
7.89417e-05
7.55805e-05
8.12871e-05
8.43031e-05
7.82951e-05
8.22651e-05
8.15528e-05
6.99875e-05
7.87645e-05
7.79128e-05
8.35716e-05
8.64253e-05
8.16987e-05
8.67558e-05
8.38964e-05
8.19942e-05
8.26352e-05
7.11739e-05
7.29185e-05
6.95177e-05
8.63621e-05
8.2156e-05
8.73212e-05
9.05039e-05
8.4311e-05
6.97174e-05
8.44156e-05
7.87908e-05
8.33201e-05
8.29627e-05
8.4298e-05
6.93635e-05
8.76003e-05
7.14063e-05
8.14248e-05
8.16205e-05
8.00614e-05
8.81137e-05
8.06583e-05
8.427e-05
7.1279e-05
8.08397e-05
8.14223e-05
8.48361e-05
7.55525e-05
7.37176e-05
8.39214e-05
8.5702e-05
8.23088e-05
8.35188e-05
8.74832e-05
7.07592e-05
7.98408e-05
7.87784e-05
7.4892e-05
8.46764e-05
8.72231e-05
8.74522e-05
8.60585e-05
8.73575e-05
7.27374e-05
7.19241e-05
7.17584e-05
8.86124e-05
7.08151e-05
8.39252e-05
8.13764e-05
7.18862e-05
7.81804e-05
8.56076e-05
8.61405e-05
7.59822e-05
7.8032e-05
7.95014e-05
8.19371e-05
8.70597e-05
8.22649e-05
7.15409e-05
8.15336e-05
8.75839e-05
8.66369e-05
8.76514e-05
8.66234e-05
9.01369e-05
8.71071e-05
8.44863e-05
7.32817e-05
7.06969e-05
8.20118e-05
7.53744e-05
8.71884e-05
7.13638e-05
8.28371e-05
7.90936e-05
8.61566e-05
7.29478e-05
8.34074e-05
8.55778e-05
8.31975e-05
7.84751e-05
7.16623e-05
8.57093e-05
7.79864e-05
8.75029e-05
8.10224e-05
9.05329e-05
8.7286e-05
8.2159e-05
7.0356e-05
7.16035e-05
8.02759e-05
8.17246e-05
7.76013e-05
8.85208e-05
7.24848e-05
8.62875e-05
8.37287e-05
7.85983e-05
8.38038e-05
8.60814e-05
8.64824e-05
8.67787e-05
8.82231e-05
8.28959e-05
8.22615e-05
6.97124e-05
7.67522e-05
8.60169e-05
7.28005e-05
8.26236e-05
8.0115e-05
7.20442e-05
8.11048e-05
8.36138e-05
8.04473e-05
8.43873e-05
8.58675e-05
7.23465e-05
8.03229e-05
8.19415e-05
7.07923e-05
7.71823e-05
7.95407e-05
7.84396e-05
8.37264e-05
7.26421e-05
7.21263e-05
8.07264e-05
7.7839e-05
8.62343e-05
8.78216e-05
8.56448e-05
7.95722e-05
7.95999e-05
8.16353e-05
7.82316e-05
8.71508e-05
7.22338e-05
8.11867e-05
7.8952e-05
8.68414e-05
8.40446e-05
7.99635e-05
8.10485e-05
8.59997e-05
7.23683e-05
8.19031e-05
8.69269e-05
7.9006e-05
6.28002e-05
7.96658e-05
7.0894e-05
8.21443e-05
6.88361e-05
8.8255e-05
8.73861e-05
8.66785e-05
8.31424e-05
7.33915e-05
6.98911e-05
8.55218e-05
8.78766e-05
8.69646e-05
8.15469e-05
8.13537e-05
8.46498e-05
8.80833e-05
8.60939e-05
6.99229e-05
8.05155e-05
8.20646e-05
8.38401e-05
7.88247e-05
8.45558e-05
6.86922e-05
8.69042e-05
8.56909e-05
8.176e-05
8.23191e-05
8.34057e-05
8.15613e-05
8.69821e-05
8.39444e-05
7.30045e-05
8.10531e-05
8.41997e-05
8.02854e-05
8.16781e-05
8.305e-05
6.95469e-05
7.2512e-05
8.60758e-05
8.75174e-05
8.56017e-05
8.67722e-05
8.46365e-05
8.5059e-05
8.20314e-05
8.2021e-05
8.36062e-05
8.62397e-05
7.79447e-05
7.99855e-05
7.81555e-05
8.19111e-05
8.62351e-05
6.84952e-05
8.14741e-05
6.86804e-05
8.58222e-05
6.90366e-05
7.11067e-05
8.06101e-05
6.65114e-05
8.03479e-05
8.33339e-05
8.57615e-05
8.55483e-05
7.60566e-05
7.75414e-05
8.86776e-05
7.54477e-05
7.26178e-05
7.98635e-05
7.59152e-05
8.64261e-05
8.35462e-05
8.16696e-05
7.23001e-05
8.56004e-05
8.80972e-05
8.63024e-05
7.1157e-05
7.40311e-05
8.08153e-05
8.67147e-05
8.8161e-05
7.17247e-05
7.0383e-05
8.44698e-05
8.14641e-05
8.76153e-05
8.07031e-05
6.82572e-05
8.31938e-05
8.57773e-05
7.10092e-05
6.85699e-05
8.63303e-05
7.32314e-05
7.25537e-05
8.70391e-05
8.71666e-05
8.40169e-05
8.93488e-05
8.01492e-05
7.89427e-05
8.6447e-05
7.68683e-05
8.57884e-05
7.72373e-05
8.33305e-05
8.51395e-05
7.98084e-05
7.11299e-05
8.48538e-05
8.55131e-05
7.8179e-05
8.07509e-05
8.00485e-05
7.44924e-05
7.58093e-05
8.16296e-05
8.38879e-05
8.72232e-05
7.75435e-05
8.50057e-05
7.00102e-05
8.43813e-05
8.75219e-05
6.98512e-05
8.6108e-05
8.2142e-05
6.45161e-05
7.07312e-05
8.21916e-05
8.08621e-05
8.51095e-05
7.77862e-05
7.21388e-05
8.58426e-05
8.77023e-05
8.67969e-05
8.2246e-05
8.64229e-05
6.97723e-05
8.66644e-05
8.13561e-05
7.04935e-05
7.12248e-05
6.48051e-05
7.09891e-05
8.52518e-05
7.8636e-05
8.31771e-05
8.17739e-05
7.39214e-05
7.47851e-05
6.75448e-05
6.7628e-05
8.95628e-05
8.82281e-05
7.28039e-05
8.6672e-05
8.4578e-05
7.25012e-05
7.99542e-05
8.09543e-05
7.39975e-05
7.75081e-05
8.61508e-05
7.39161e-05
6.87204e-05
8.63035e-05
8.88442e-05
7.64283e-05
8.64095e-05
8.04728e-05
7.39924e-05
7.21582e-05
8.04493e-05
7.08278e-05
7.08135e-05
8.23228e-05
8.39298e-05
7.94314e-05
8.63839e-05
8.61622e-05
8.05548e-05
8.75579e-05
5.95863e-05
8.02167e-05
6.97053e-05
8.17399e-05
8.72161e-05
8.02991e-05
7.70117e-05
8.08553e-05
7.12612e-05
8.37783e-05
8.06766e-05
7.66716e-05
7.13748e-05
6.7353e-05
6.6632e-05
7.7571e-05
7.03256e-05
8.00277e-05
7.07201e-05
7.8962e-05
8.55163e-05
8.31654e-05
7.95399e-05
8.27059e-05
8.34335e-05
8.11257e-05
8.48919e-05
6.94722e-05
8.01706e-05
8.71869e-05
8.67131e-05
7.98429e-05
8.86552e-05
7.34667e-05
8.60249e-05
8.02278e-05
6.9701e-05
8.40732e-05
8.73133e-05
8.286e-05
8.49237e-05
8.72077e-05
8.27576e-05
6.69038e-05
6.71534e-05
7.98964e-05
8.76382e-05
8.23499e-05
8.49644e-05
7.76171e-05
7.85132e-05
7.37901e-05
6.88113e-05
6.8482e-05
6.95702e-05
8.38753e-05
8.27414e-05
8.7302e-05
7.83148e-05
7.8479e-05
8.76595e-05
6.89602e-05
8.17134e-05
8.68136e-05
8.73797e-05
7.79726e-05
7.83546e-05
8.55858e-05
8.84687e-05
8.67318e-05
7.1224e-05
8.0719e-05
8.48159e-05
8.27731e-05
8.20951e-05
8.98468e-05
8.57853e-05
8.71058e-05
8.21517e-05
7.60172e-05
8.13548e-05
8.68246e-05
8.46726e-05
8.17599e-05
6.99706e-05
8.59626e-05
8.57055e-05
8.73244e-05
8.52283e-05
6.93678e-05
6.65795e-05
8.02222e-05
8.39501e-05
8.06427e-05
8.23555e-05
8.48622e-05
8.48431e-05
8.53383e-05
7.72449e-05
8.34736e-05
8.15237e-05
8.53741e-05
7.09358e-05
7.0347e-05
7.80113e-05
8.59532e-05
7.15565e-05
8.63796e-05
7.09352e-05
7.86708e-05
8.16956e-05
8.70996e-05
7.87033e-05
8.5473e-05
8.62018e-05
8.59033e-05
8.21086e-05
8.46046e-05
8.23998e-05
7.79615e-05
6.74586e-05
8.70599e-05
6.63734e-05
6.96008e-05
6.98001e-05
6.8397e-05
6.89481e-05
7.80408e-05
8.21392e-05
7.13881e-05
7.75446e-05
6.48821e-05
7.3087e-05
7.98437e-05
8.63058e-05
6.81299e-05
7.12329e-05
8.50098e-05
6.82728e-05
7.86012e-05
8.53762e-05
8.2356e-05
8.15143e-05
7.18835e-05
7.00369e-05
7.75489e-05
8.68813e-05
7.50695e-05
7.16602e-05
8.17028e-05
7.77488e-05
8.28814e-05
8.05381e-05
7.21358e-05
8.7176e-05
6.853e-05
7.04002e-05
7.99e-05
8.66641e-05
7.74839e-05
7.95716e-05
8.02959e-05
8.17847e-05
6.74603e-05
7.325e-05
7.95365e-05
8.73222e-05
8.38004e-05
6.98557e-05
6.69842e-05
8.01924e-05
8.70591e-05
8.04762e-05
8.08861e-05
7.76672e-05
7.84503e-05
8.07654e-05
7.02346e-05
8.67199e-05
7.64584e-05
7.05263e-05
6.68989e-05
8.5268e-05
8.0891e-05
8.7455e-05
8.15291e-05
8.55099e-05
6.96861e-05
7.99721e-05
6.75103e-05
6.67247e-05
8.56433e-05
7.23249e-05
7.93323e-05
8.16987e-05
8.41808e-05
7.11495e-05
8.70172e-05
8.54399e-05
8.71614e-05
8.27572e-05
6.32241e-05
8.19599e-05
6.74812e-05
8.79771e-05
7.16831e-05
8.73787e-05
6.60221e-05
8.29183e-05
8.49036e-05
7.78646e-05
7.88373e-05
6.60312e-05
7.60613e-05
8.11539e-05
8.58614e-05
8.31363e-05
8.63717e-05
8.75399e-05
6.95904e-05
8.70276e-05
7.49021e-05
8.28985e-05
8.27371e-05
8.57616e-05
8.48388e-05
8.14223e-05
8.73733e-05
7.86971e-05
7.53324e-05
7.55288e-05
8.26871e-05
8.76477e-05
7.43179e-05
7.41616e-05
8.59945e-05
8.35199e-05
8.11893e-05
8.99613e-05
8.35873e-05
8.23099e-05
8.53186e-05
8.54347e-05
8.73177e-05
7.99564e-05
7.81845e-05
8.60504e-05
8.48433e-05
7.24653e-05
7.99879e-05
7.60798e-05
8.77126e-05
8.2329e-05
8.53418e-05
7.13758e-05
7.17591e-05
8.16775e-05
8.51252e-05
8.63052e-05
8.72797e-05
8.69238e-05
8.14012e-05
8.26692e-05
7.18398e-05
8.10559e-05
8.21137e-05
8.59136e-05
8.75284e-05
8.70639e-05
7.9547e-05
8.68197e-05
7.29048e-05
8.62391e-05
7.60836e-05
8.01461e-05
7.78737e-05
8.17245e-05
7.85066e-05
8.55136e-05
7.08696e-05
8.62605e-05
8.66445e-05
7.96554e-05
7.13599e-05
8.90794e-05
8.30737e-05
8.63552e-05
8.12515e-05
8.20657e-05
8.41648e-05
6.9787e-05
8.68926e-05
7.98562e-05
8.25205e-05
7.47386e-05
7.50633e-05
7.5093e-05
6.97867e-05
7.64985e-05
8.71688e-05
8.17951e-05
6.81892e-05
8.40909e-05
6.965e-05
8.17215e-05
8.23238e-05
6.71685e-05
6.93136e-05
7.62321e-05
8.08906e-05
8.44052e-05
7.75202e-05
8.50685e-05
7.9378e-05
7.29681e-05
7.65008e-05
8.65285e-05
8.67594e-05
8.6493e-05
8.46825e-05
8.30745e-05
7.08379e-05
7.00766e-05
8.67797e-05
7.83172e-05
8.13331e-05
8.63359e-05
8.89872e-05
8.17057e-05
8.28792e-05
6.76372e-05
8.50335e-05
8.66227e-05
7.74298e-05
8.66533e-05
8.60882e-05
8.31591e-05
7.85243e-05
8.41204e-05
7.79674e-05
6.85958e-05
8.1682e-05
7.12971e-05
6.99133e-05
8.11315e-05
8.15918e-05
8.5928e-05
8.62481e-05
8.24823e-05
8.57186e-05
6.69974e-05
7.75222e-05
8.83013e-05
8.80182e-05
6.97803e-05
8.10881e-05
7.24685e-05
7.83572e-05
8.63796e-05
7.82527e-05
8.25962e-05
8.79241e-05
8.25753e-05
6.80212e-05
8.61168e-05
6.95382e-05
8.56842e-05
8.41134e-05
8.31456e-05
8.6003e-05
8.27606e-05
8.60117e-05
7.07872e-05
8.68585e-05
8.67628e-05
7.2589e-05
8.36267e-05
8.07065e-05
7.9347e-05
8.57249e-05
8.02275e-05
8.50297e-05
8.74454e-05
8.66901e-05
8.18005e-05
8.70374e-05
8.13148e-05
8.28846e-05
7.39295e-05
7.77799e-05
7.01002e-05
6.80147e-05
8.14766e-05
8.36473e-05
8.09276e-05
8.6907e-05
7.97755e-05
8.67994e-05
6.82719e-05
8.75663e-05
8.76769e-05
8.39701e-05
8.59859e-05
7.29957e-05
6.84151e-05
8.09989e-05
6.91454e-05
8.48518e-05
8.19098e-05
6.72166e-05
7.84617e-05
8.69377e-05
8.5642e-05
6.80776e-05
7.50076e-05
6.71869e-05
8.78129e-05
6.99329e-05
8.5319e-05
7.64605e-05
7.08901e-05
8.61241e-05
8.69678e-05
8.71625e-05
8.45853e-05
7.06732e-05
8.24969e-05
8.81371e-05
7.25911e-05
8.60908e-05
8.47165e-05
8.66899e-05
6.87088e-05
8.43548e-05
7.82251e-05
8.37461e-05
7.84789e-05
7.99384e-05
7.73976e-05
7.82461e-05
7.90947e-05
7.84438e-05
8.44028e-05
8.05239e-05
8.71391e-05
7.40034e-05
8.05016e-05
8.25002e-05
8.5159e-05
8.72733e-05
7.01669e-05
8.4561e-05
7.08039e-05
7.91973e-05
8.72455e-05
8.77518e-05
8.05678e-05
8.11384e-05
8.4961e-05
7.74113e-05
8.02405e-05
7.99046e-05
7.05617e-05
6.9645e-05
8.29674e-05
8.62427e-05
8.08659e-05
7.8068e-05
8.63715e-05
7.10197e-05
8.30227e-05
7.10057e-05
8.24807e-05
8.71864e-05
8.16837e-05
6.91008e-05
8.61486e-05
7.03657e-05
8.35818e-05
8.58541e-05
6.88689e-05
8.74541e-05
7.29087e-05
7.71819e-05
7.93006e-05
6.85954e-05
7.54377e-05
7.83674e-05
6.609e-05
8.63171e-05
8.85113e-05
6.63993e-05
7.65103e-05
8.4814e-05
8.3501e-05
8.26944e-05
8.83942e-05
8.62917e-05
8.03136e-05
7.52747e-05
6.92941e-05
6.67483e-05
7.06252e-05
8.73168e-05
8.53668e-05
8.2638e-05
8.31286e-05
6.97357e-05
7.06197e-05
7.99713e-05
8.61699e-05
6.63054e-05
8.27634e-05
8.10916e-05
7.97178e-05
8.42149e-05
7.81371e-05
8.58011e-05
7.48619e-05
7.98148e-05
8.88681e-05
6.46655e-05
8.14759e-05
8.67495e-05
8.6123e-05
8.26055e-05
8.55584e-05
8.31034e-05
6.91952e-05
8.82339e-05
8.90114e-05
8.06596e-05
8.23371e-05
7.80847e-05
8.0978e-05
8.43416e-05
8.44006e-05
8.21449e-05
8.10278e-05
7.92638e-05
6.8832e-05
7.86128e-05
8.76356e-05
8.50617e-05
8.80112e-05
8.28294e-05
8.09686e-05
8.79244e-05
7.1609e-05
8.57867e-05
7.00992e-05
8.76669e-05
8.3516e-05
7.75528e-05
8.83328e-05
7.7093e-05
7.93855e-05
8.79305e-05
7.81692e-05
8.82619e-05
8.62937e-05
8.48876e-05
7.07646e-05
8.17351e-05
8.0575e-05
7.52726e-05
8.56941e-05
7.91917e-05
8.00263e-05
8.84204e-05
7.04333e-05
8.61909e-05
8.1865e-05
8.6565e-05
7.85772e-05
8.23472e-05
7.09026e-05
7.34038e-05
8.95354e-05
7.06562e-05
8.16297e-05
8.58518e-05
7.08926e-05
7.97295e-05
8.62946e-05
7.63172e-05
7.21961e-05
7.51494e-05
7.84505e-05
7.75594e-05
8.67066e-05
7.91712e-05
8.75735e-05
8.41039e-05
8.64596e-05
6.871e-05
7.5832e-05
8.70621e-05
8.06743e-05
7.03331e-05
7.2886e-05
8.02938e-05
6.93566e-05
6.94918e-05
8.08564e-05
7.98574e-05
8.65717e-05
7.89446e-05
8.5749e-05
8.66858e-05
8.57601e-05
8.52125e-05
8.46074e-05
7.6709e-05
7.72395e-05
8.4584e-05
8.01178e-05
7.81637e-05
8.69624e-05
8.05441e-05
6.91897e-05
6.88077e-05
7.87208e-05
6.93664e-05
8.36382e-05
8.56832e-05
7.70373e-05
8.46483e-05
8.54188e-05
8.54012e-05
8.84178e-05
8.03882e-05
7.12291e-05
7.81402e-05
7.85571e-05
8.60761e-05
7.73697e-05
8.39261e-05
8.74028e-05
7.85647e-05
7.78179e-05
8.26365e-05
8.65855e-05
8.43335e-05
9.05975e-05
8.6062e-05
7.99118e-05
8.12588e-05
7.31134e-05
7.87443e-05
8.65715e-05
7.35997e-05
8.66648e-05
7.81969e-05
8.54484e-05
7.04539e-05
8.4679e-05
8.15937e-05
8.6163e-05
8.08107e-05
8.21314e-05
8.11946e-05
8.53117e-05
6.87607e-05
7.28796e-05
8.08525e-05
7.70667e-05
8.07858e-05
8.20747e-05
8.16685e-05
8.72145e-05
8.28707e-05
6.96597e-05
7.65341e-05
7.04891e-05
8.11888e-05
8.17218e-05
7.19669e-05
8.91306e-05
8.1045e-05
7.89068e-05
8.4017e-05
7.47201e-05
7.2206e-05
8.71862e-05
7.15211e-05
6.83947e-05
7.36756e-05
7.46754e-05
7.27688e-05
7.53078e-05
8.6535e-05
8.54642e-05
7.74717e-05
8.30402e-05
8.53669e-05
8.13068e-05
8.44751e-05
6.85284e-05
8.6399e-05
5.91492e-05
8.55879e-05
7.05998e-05
6.96911e-05
8.59986e-05
6.8829e-05
7.92404e-05
8.28317e-05
8.59862e-05
7.76189e-05
8.202e-05
7.69666e-05
8.04474e-05
7.83099e-05
8.26378e-05
8.08531e-05
8.48132e-05
8.07158e-05
7.11288e-05
8.45626e-05
7.94973e-05
7.95803e-05
7.54806e-05
7.27036e-05
7.56663e-05
6.8375e-05
6.90021e-05
8.13847e-05
7.91843e-05
7.2912e-05
7.78206e-05
8.63698e-05
8.63629e-05
8.625e-05
5.96684e-05
6.96713e-05
8.7219e-05
7.05358e-05
8.54665e-05
6.87698e-05
8.62036e-05
8.58275e-05
8.67861e-05
7.07193e-05
7.97086e-05
8.75934e-05
8.7317e-05
8.24431e-05
8.72742e-05
8.06851e-05
8.22875e-05
8.02993e-05
6.97868e-05
8.24798e-05
7.69109e-05
8.18438e-05
8.16245e-05
7.54394e-05
7.96038e-05
8.61418e-05
7.58294e-05
7.48128e-05
7.04624e-05
8.38105e-05
8.4081e-05
6.78664e-05
8.1328e-05
8.09271e-05
8.35075e-05
7.14787e-05
8.22678e-05
7.93211e-05
8.73541e-05
6.76298e-05
8.00106e-05
8.06178e-05
6.78495e-05
8.55072e-05
7.14528e-05
7.29334e-05
8.26997e-05
8.6861e-05
6.71961e-05
8.54948e-05
8.33751e-05
7.81066e-05
6.84614e-05
8.6959e-05
8.64988e-05
6.74006e-05
8.1043e-05
6.6807e-05
7.18906e-05
8.64665e-05
7.85529e-05
8.3098e-05
8.67017e-05
8.6704e-05
7.85338e-05
7.68281e-05
8.05132e-05
7.97561e-05
8.10138e-05
7.69948e-05
8.50851e-05
6.97748e-05
7.84989e-05
7.98338e-05
7.90529e-05
8.39676e-05
7.9541e-05
8.3235e-05
8.40899e-05
8.08874e-05
8.69691e-05
8.30791e-05
7.86952e-05
7.62009e-05
8.38532e-05
7.84808e-05
7.74871e-05
8.35537e-05
8.67655e-05
8.3151e-05
8.59327e-05
7.76006e-05
8.43226e-05
7.61616e-05
7.11091e-05
8.07848e-05
8.33739e-05
7.16822e-05
8.30729e-05
8.01532e-05
6.59831e-05
6.87102e-05
8.53624e-05
6.74853e-05
8.01106e-05
8.59206e-05
8.24856e-05
7.10866e-05
8.34167e-05
8.82806e-05
7.05559e-05
7.08628e-05
7.15927e-05
8.58573e-05
8.11131e-05
8.10719e-05
8.78015e-05
6.93635e-05
8.37722e-05
8.08933e-05
8.70538e-05
8.81615e-05
6.0558e-05
8.09198e-05
8.47081e-05
8.60379e-05
8.20962e-05
7.89791e-05
7.02881e-05
8.36567e-05
8.67575e-05
7.54338e-05
6.85124e-05
7.84388e-05
8.53042e-05
8.30383e-05
7.01346e-05
7.95216e-05
8.44205e-05
8.59641e-05
7.98695e-05
7.93083e-05
6.76386e-05
7.07971e-05
7.03065e-05
8.18827e-05
7.92239e-05
8.15036e-05
8.70016e-05
8.63202e-05
7.01447e-05
8.54038e-05
8.60561e-05
8.30479e-05
7.72097e-05
8.54738e-05
7.90155e-05
7.13123e-05
7.65781e-05
8.20289e-05
8.12251e-05
7.54035e-05
8.24467e-05
7.92676e-05
8.54873e-05
7.1946e-05
6.93077e-05
7.92743e-05
8.69823e-05
8.5297e-05
7.82355e-05
7.90489e-05
8.60389e-05
8.66115e-05
7.82736e-05
7.71995e-05
8.52455e-05
8.65844e-05
8.36905e-05
8.68495e-05
8.52878e-05
8.28616e-05
6.88492e-05
7.78113e-05
7.00704e-05
8.36605e-05
8.61786e-05
7.74143e-05
7.01678e-05
8.7765e-05
7.05424e-05
7.7428e-05
7.35117e-05
8.04135e-05
6.88495e-05
8.34342e-05
8.09227e-05
8.03707e-05
8.1061e-05
7.30323e-05
8.69222e-05
7.20358e-05
8.34133e-05
8.05964e-05
8.02927e-05
7.05394e-05
8.54547e-05
8.35478e-05
7.02693e-05
7.44853e-05
7.95379e-05
7.86385e-05
8.31395e-05
6.45632e-05
8.32215e-05
7.80109e-05
8.13416e-05
7.60256e-05
7.65501e-05
7.63087e-05
6.55654e-05
8.63446e-05
7.92643e-05
4.39579e-05
7.03462e-05
8.0792e-05
8.63053e-05
8.4374e-05
7.24342e-05
7.00074e-05
8.48448e-05
6.96463e-05
8.4768e-05
8.65293e-05
8.20466e-05
7.2348e-05
8.5321e-05
6.89733e-05
6.86475e-05
6.81212e-05
8.39057e-05
8.0244e-05
7.78192e-05
8.6773e-05
8.2967e-05
8.22555e-05
7.27905e-05
6.55984e-05
8.7092e-05
8.12751e-05
8.79036e-05
8.53759e-05
7.09748e-05
8.04035e-05
8.13298e-05
7.75906e-05
8.09233e-05
7.66481e-05
7.85598e-05
9.10732e-05
8.24054e-05
7.75571e-05
7.04794e-05
8.28037e-05
8.03984e-05
8.39692e-05
7.8191e-05
6.94018e-05
7.18076e-05
8.21884e-05
8.34491e-05
7.7254e-05
8.53386e-05