/*--------------------------------*- C++ -*----------------------------------*\
| =========                 |                                                 |
| \\      /  F ield         | OpenFOAM: The Open Source CFD Toolbox           |
|  \\    /   O peration     | Version:  2212                                  |
|   \\  /    A nd           | Website:  www.openfoam.com                      |
|    \\/     M anipulation  |                                                 |
\*---------------------------------------------------------------------------*/
FoamFile
{
    version     2.0;
    format      ascii;
    arch        "LSB;label=32;scalar=64";
    class       volScalarField;
    location    "0.014";
    object      p;
}
// * * * * * * * * * * * * * * * * * * * * * * * * * * * * * * * * * * * * * //

dimensions      [0 2 -2 0 0 0 0];

internalField   nonuniform List<scalar> 
31639
(
0.0171397
0.0119723
0.0196124
0.00880123
0.0120623
0.0168947
0.0187965
0.0179516
0.0128115
0.0109112
0.0187137
0.0121605
0.0126042
0.0164402
0.0143439
0.0200347
0.0232037
0.0237418
0.003928
0.0182264
0.0132806
0.0102473
0.0139999
0.00868717
0.0150067
0.0177935
0.0173054
0.0543805
0.0180355
0.0180008
0.00968183
0.0256245
0.0127886
0.00699632
0.0311402
0.01795
0.0103509
0.0186215
0.0186481
0.0153311
0.0122914
0.0174827
0.0137114
0.0190659
0.0195995
0.00823669
0.012255
0.00972064
0.0208909
0.00882161
0.00814859
0.00659403
0.0315557
0.0193983
0.00637129
0.0237397
0.0105035
0.0173482
0.0120029
0.00836431
0.0092064
0.017581
0.0145354
0.0178686
0.0314278
0.00515529
0.00319045
0.00997919
0.0123682
0.00777498
0.0111188
0.0234233
0.0107753
0.0045808
0.0318371
0.0253214
0.0110923
0.0102568
0.0118958
0.0111959
0.0170584
0.0163586
0.0160957
0.00903681
0.0159804
0.014836
0.0137818
0.00970036
0.00306158
0.0128279
0.00733561
0.0232446
0.00864057
0.0115222
0.0055061
0.0172713
0.00937819
0.00662582
0.0124939
0.0165566
0.0294318
0.0294536
0.0150145
0.0114334
0.0063715
0.00795844
0.0167236
0.00851868
0.00977805
0.0152043
0.0187586
0.0164403
0.0175038
0.0103109
0.00460863
0.0183123
0.0311756
0.0193122
0.029557
0.00925385
0.0258446
0.0080363
0.00414736
0.00883949
0.0167275
0.0163708
0.0118642
0.00894307
0.0109291
0.0131921
0.0309591
0.00135227
0.0198209
0.00468481
0.00558346
0.00999493
0.0104577
0.011466
0.00822709
0.00918214
0.00912584
0.0134782
0.0146756
0.00842282
0.0123129
0.0160124
0.0298443
0.0104136
0.0154478
0.0318009
0.00938684
0.0213434
0.00672636
0.00602864
0.00779292
0.00603063
0.00439956
0.0110673
0.0209529
0.00992471
0.00546636
0.0233856
0.0104801
0.0174432
0.0249446
0.0250073
0.0193931
0.0218198
0.00685983
0.00478814
0.0221217
0.0165191
0.0222378
0.0127271
0.0158134
0.0107922
0.0143425
0.0257431
0.0100464
0.0151181
0.0126164
0.0206587
0.0175696
0.018327
0.0183964
0.0178317
0.0215756
0.0151262
0.0165037
0.0203404
0.0206599
0.0109044
0.0210153
0.00647556
0.00728389
0.00760673
0.00736592
0.011678
0.00752831
0.0185377
0.0156201
0.0235762
0.0206581
0.0218098
0.0106833
0.00900864
0.00376113
0.00636653
0.0262778
0.00725821
0.00716629
0.0153313
0.0295564
0.0158947
0.0190684
0.016035
0.0161351
0.0159728
0.0223292
0.0120393
0.012459
0.015248
0.0161477
0.0223755
0.0194592
0.0111195
0.0201429
0.0196353
0.0139387
0.0255126
0.00673036
0.018477
0.0234176
0.0203142
0.020938
0.00360016
0.00335525
0.0212837
0.0175344
0.00635722
0.00909311
0.0192061
0.0222957
0.0209424
0.00929064
0.0240163
0.00711495
0.024914
0.020297
0.00368983
0.00106285
0.00825157
0.020807
0.0239154
0.0116066
0.0124416
0.0173541
0.00539929
0.0171611
0.0198199
0.00830731
0.00671192
0.0116449
0.0164376
0.0118097
0.0159423
0.00266974
0.0301564
0.0189344
0.0169828
0.0385406
0.00786378
0.017273
0.0213383
0.0102735
0.0202071
0.00737
0.0224191
0.00994789
0.00824329
0.0250955
0.0257867
0.0257199
0.0340186
0.0184314
0.0184393
0.0224636
0.0214764
0.00411706
0.0206069
0.0230298
0.00186296
0.00668978
0.00672804
0.0194694
0.00578717
0.0233258
0.00316384
0.0092168
0.0105807
0.00984825
0.0223213
0.00712047
0.006471
0.0143156
0.00573665
0.0163929
0.00384218
0.0138269
0.0225006
0.0095472
0.0375861
0.0301457
0.0133702
0.0123451
0.0173416
0.00332984
0.026052
0.0201783
0.0198581
0.0191338
0.00801481
0.0290793
0.0060621
0.0156897
0.0213378
0.0191416
0.0214704
0.00692512
0.00802771
0.00830374
0.00879403
0.0226551
0.00657599
0.0235367
0.0313015
0.0320011
0.00993059
0.021874
0.0245116
0.00558967
0.00274701
0.0238826
0.00507106
0.00715937
0.0221818
0.0061946
0.0195798
0.0193768
0.0291441
0.0108964
0.0223869
0.0108906
0.0206782
0.00638344
0.00843081
0.00713634
0.0143435
0.0145954
0.0213386
0.0234761
0.0144929
0.0374722
0.00415148
0.0100338
0.00911702
0.00489789
0.0144887
0.015527
0.0215182
0.014085
0.0263154
0.0165412
0.0077801
0.00522721
0.00875946
0.0301947
0.0252196
0.0211455
0.0262799
0.0199845
0.00658471
0.00978337
0.00657809
0.00603665
0.00573053
0.00702804
0.0121306
0.000788652
0.0240254
0.00366347
0.0266901
0.00713912
0.022357
0.00624767
0.0227876
0.024089
0.0183141
0.00883659
0.035319
0.0237231
0.0186198
0.0179023
0.006054
0.0210629
0.0033216
0.00933375
0.00942739
0.00976626
0.0184213
0.00809697
0.00946767
0.0208763
0.0386988
0.0192548
0.0211137
0.0154775
0.0165438
0.0148505
0.0123246
0.0119057
0.0291212
0.0141153
0.00131754
0.0210432
0.0382514
0.0136376
0.0285383
0.0165159
0.019598
0.00864456
0.00712441
0.0223666
0.00817938
0.0178495
0.0178892
0.0217476
0.00537376
0.00661697
0.0232455
0.00987059
0.00356838
0.00423531
0.0161376
0.00560352
0.0100171
0.0105417
0.0243253
0.0238087
0.0257629
0.0242874
0.02119
0.0103563
0.0216947
0.00977346
0.0231639
0.0259786
0.00806903
0.0212972
0.00896572
0.0175093
0.02501
0.0166378
0.00446509
0.0204437
0.0568834
0.00444616
0.0134263
0.00910435
0.0198596
0.00257013
0.00697217
0.00825545
0.00694999
0.0216913
0.00175707
0.0138695
0.0280745
0.0123964
0.0143872
0.00838571
0.0303741
0.00542854
0.0113695
0.0291268
0.0374567
0.0136315
0.0195161
0.0159058
0.0105957
0.00826314
0.00638836
0.0254866
0.00300215
0.0169288
0.0162535
0.0153555
0.0046306
0.00701897
0.0245484
0.0277524
0.00367396
0.00409131
0.00456776
0.00266973
0.0327591
0.00946566
0.00392575
0.0261932
0.0290911
0.0260155
0.00557218
0.0234567
0.0218297
0.0247608
0.00282548
0.0290934
0.0291954
-0.000277989
0.0252608
0.0244098
0.0253967
0.0162216
0.0271202
0.00127789
0.00445609
0.0245359
0.00373679
0.00454479
0.00761637
0.0184816
0.0124593
0.0227605
0.00152634
0.00816821
0.0130535
0.027392
0.00175409
0.0216477
0.00331941
0.0378149
0.038296
0.00908742
0.0546952
0.00934005
0.00930034
0.0151364
0.0154827
0.0107076
0.0147473
0.0393593
0.0108389
0.0213206
0.000937052
0.00967761
0.0149884
0.00854405
0.0243206
0.00184548
0.00585472
0.0146663
0.00532817
0.0133487
0.0136261
0.00731846
0.0306771
0.00531632
0.00383839
0.00071846
0.0171383
0.0279304
0.00425896
0.000904582
0.00513816
0.00575148
0.00445871
0.0260071
7.31884e-05
0.0018413
0.00126388
0.0233521
0.00294468
0.024455
0.0250823
0.0261102
0.00777947
0.000232793
0.000523474
0.0039577
0.00114962
0.0160768
0.00139657
0.0160701
0.0254748
0.00219529
0.00936516
0.0125705
0.0304878
0.0281802
0.0221869
0.0106743
0.00513593
0.0293104
0.0252409
0.00237602
0.00258776
0.010959
0.0183813
0.00764181
0.00171961
0.000218953
0.00129151
0.0243974
0.0204014
0.00942004
0.0558921
0.0201199
0.0155892
0.0108341
0.0168061
0.0216383
0.0215127
0.0150207
0.00961703
0.0121249
0.0125389
0.0204573
0.00466914
0.0146767
0.00175556
0.0160247
0.0371074
0.0257434
0.0239174
0.0177033
0.0140694
0.0338428
0.0158058
0.018943
0.00831472
0.0300066
0.0282963
0.0041951
0.0155172
0.0176065
0.000387327
0.03433
0.00945678
0.00163695
0.00463829
0.00260371
0.0304972
0.0278327
0.0284205
0.00429784
0.000258978
0.0241178
0.0162641
0.025482
0.0262602
0.0262164
0.00168846
0.000259834
0.0249836
0.0216674
0.0223587
0.0263604
0.00149922
0.00946162
0.0384868
0.00549102
0.00306647
0.0270501
0.0153313
0.00654643
0.0246504
0.0242905
0.019722
0.011499
0.00757951
0.0179657
0.0103102
0.00060416
0.00102309
0.00203214
0.00764465
0.00293953
0.0305259
0.0109508
0.00079842
0.000889914
0.0233993
0.00832447
0.0010487
0.0567677
0.00771082
0.00923812
0.012328
0.0139569
0.0118788
0.0151452
0.0143622
0.0095924
0.0110087
0.0159217
0.0100877
0.0094261
0.010742
0.014203
0.0269397
0.0153093
0.014489
0.0236791
0.0305744
0.0258113
0.00728668
0.0142385
0.00411026
0.0160872
0.0315482
0.00119913
0.00295208
0.00259837
0.00822714
0.00950469
0.0234887
0.0223962
0.00676305
0.0027613
0.0183533
0.0304108
0.000845558
0.0250509
0.00991632
0.0229849
0.0212452
0.0222275
0.0287708
0.0267944
0.0344531
0.0244521
0.0205259
0.0256452
0.0230554
0.0238224
0.00860251
0.0299982
0.00848261
0.00225855
0.0056874
0.0232707
0.000223133
0.0193574
0.0046032
0.00641082
0.0193543
0.0116787
0.0288404
0.005447
0.0203007
0.00659348
0.0332867
0.0096402
0.00105335
0.00146309
0.0272192
0.0181814
0.00119732
0.00302768
0.00180435
0.00589911
0.000764633
0.000425205
0.0229768
0.022178
0.000375739
0.0222546
0.019769
0.0238051
0.0130948
0.0130095
0.0104944
0.0168172
0.0175259
0.00823101
0.00131408
0.0153856
0.0210554
0.0155727
0.0288554
0.0257414
0.0153996
0.0249082
0.00960106
0.0385851
0.00453289
0.0253152
0.01512
0.000243994
0.0172191
0.00441263
0.00908786
0.00385179
0.00393371
0.0194278
0.0273451
0.00679589
0.024313
0.00108324
0.00127572
0.0010839
0.0319053
0.0319975
0.0304666
0.0327909
0.0270936
0.0250417
0.00846753
0.00558715
0.00935765
0.0024467
0.0178845
0.00801568
0.02114
0.0116559
0.00929551
0.00294838
-5.14822e-05
0.00683153
0.00365589
0.0284553
0.0124198
0.00675305
0.00645419
0.0119579
0.00125232
0.0200141
0.00653026
0.0250445
0.00480898
0.00329978
0.0165295
0.0165046
0.0253841
0.0302259
0.0265661
0.0203149
0.0114816
0.0124446
0.0241064
0.00028929
0.00127931
0.0236942
0.0241803
-3.18121e-05
0.000646267
0.00351275
0.0238784
0.0064655
0.0145577
0.0308109
0.0298986
0.0153087
0.0358589
0.0115588
0.0100663
0.0103329
0.00674882
0.00418369
0.0251167
0.00426892
0.0153928
0.0186264
0.0283865
0.0089903
0.0102952
0.0098319
0.0228498
0.0231524
0.0232436
0.0328871
0.00308504
0.0266327
0.026302
0.0268456
0.01462
0.000548477
0.0314159
0.0324773
0.0299554
0.0177017
0.0186682
0.0204339
0.0190766
0.0226339
0.0174631
0.000706792
0.0239087
0.0111314
0.00773448
0.0242854
0.00183082
0.0011061
0.00424576
0.00393699
0.0291292
0.0117587
0.00434198
0.00606963
0.0105614
0.0215735
0.0101516
0.00933654
0.0195346
0.013652
0.000532007
0.0250923
0.0159341
0.0262694
0.0133587
0.00276872
0.0204698
0.0203232
0.00102049
0.0117606
0.0109531
0.000873895
0.00105511
0.0248437
0.0285476
0.0115545
0.0148561
0.00174413
0.0264643
0.0329085
0.0275536
0.019071
0.00890843
0.025577
0.0194341
0.0103811
0.0143112
0.00802029
0.00805736
0.0129666
0.0244597
0.00446852
0.0159515
0.010153
0.00918207
0.000352098
0.0272534
0.0107927
0.0281811
0.00780609
0.0230973
0.0266997
0.0132721
0.0133842
0.0278589
0.0225602
0.0253105
0.00985436
0.0114184
0.0224174
0.0214268
0.0169816
0.0179378
0.0261115
0.0267469
0.0350701
0.0207031
0.0233489
0.00153493
0.00107386
0.023907
0.0218415
0.0112136
0.0258692
0.00375557
0.0183451
0.020375
0.0255092
0.0031795
0.0261949
0.0238355
0.0283614
0.0269318
0.0281852
0.0133678
0.0242496
0.0107919
0.0185642
0.0181063
0.017227
0.0292783
0.0271651
0.0262951
0.0222418
0.0121252
0.0158272
0.0173936
0.0267004
0.0171669
0.000151287
0.0278426
0.0305862
0.0144889
0.012319
0.00510295
0.00380785
0.0102085
0.0270113
0.00847347
0.00913594
0.0331737
0.0136206
0.00507416
0.00704119
0.000650659
0.0129968
0.0147105
0.0133625
0.0248198
0.000959433
0.0287566
0.00250958
0.0279968
0.0270595
0.0330012
0.012807
0.0130903
0.0112411
0.0209949
0.0186392
0.0219134
0.0335911
0.0245116
0.0259796
0.0171458
0.0209022
0.0124491
0.0218855
0.0190829
0.00417085
0.00369853
0.0154749
0.00133584
0.0110155
0.0289383
0.030486
0.0056267
0.028065
0.018364
0.0294875
0.0161339
0.0166535
0.00230905
0.00123542
0.0214963
0.0193957
0.00941289
0.0123958
0.0116568
0.0180124
0.0125124
0.0243332
0.026157
0.033384
0.0257019
0.0277675
0.0168869
0.0118988
0.0139262
0.00122518
0.00236049
0.00460423
0.0122646
0.0110343
0.0193902
0.0114051
0.0203775
0.0230553
0.0255121
0.011828
0.00747003
0.0342462
0.0180313
0.0305383
0.0301583
0.0135195
0.0308491
0.00323851
0.0258016
0.00786844
0.0148097
0.00593623
0.0114895
0.0127093
0.0292608
0.0296704
0.000899452
0.0267641
0.0318199
0.0364858
0.0119404
0.0224972
0.0258417
0.026272
0.0105947
0.0114315
0.0243157
0.0367082
0.0242268
0.00448872
0.0214614
0.0359404
0.0208526
0.0207014
0.020021
0.00990924
0.0301723
0.0260112
0.0303859
0.00271861
0.0215674
0.00185404
0.0180533
0.0255537
0.00546554
0.0256185
0.00783797
0.024448
0.0332464
0.0144327
0.000721202
0.016205
0.0174888
0.00103045
0.0107961
0.0110491
0.0172663
0.0125772
0.0350093
0.028031
0.0110572
0.0109267
0.0271369
0.0152994
0.0258159
0.0339914
0.0263598
0.00104667
0.000956218
0.0278394
0.0241737
0.0170311
0.0188262
0.0216497
0.0179165
0.0186132
0.0302635
0.0266734
0.0320034
0.0240325
0.0210814
0.00307866
0.0308706
0.00407856
0.0117079
0.0287985
0.030831
0.0249446
0.0130696
0.011634
0.00063474
0.0269427
0.0168569
0.0285586
0.0157325
0.0301633
0.0320098
0.0202449
0.0216248
0.0129611
0.00634617
0.0349158
0.0167333
0.0214848
0.0166189
0.015409
0.0222307
0.0353297
0.0204705
0.0193399
0.0380059
0.00335095
0.0298546
0.0184762
0.0367468
0.0191681
0.0154094
0.0297056
0.030316
0.0055336
0.0114585
0.00641024
0.00777796
0.0262206
0.0139451
0.015179
0.000648033
0.0121884
0.0440864
0.0124679
0.0130769
0.0179657
0.0185301
0.0175689
0.0276548
0.0282955
0.0205926
0.0110122
0.0280243
0.0157747
0.0290857
0.0260923
0.0262534
0.0289598
0.0295685
0.0272157
0.0104687
0.000923048
0.0310016
0.00946471
0.032726
0.0363971
0.0340955
0.0124896
0.0311546
0.020956
0.00337357
0.00277482
0.00456794
0.0278929
0.0289238
0.028712
0.0266326
0.0317726
0.0129636
0.0108703
0.0291353
0.0324181
0.0154926
0.0287681
0.0308484
0.0205224
0.0119735
0.0350496
0.0312711
0.0269935
0.021933
0.0279543
0.0227968
0.0301561
0.00259098
0.0226566
0.0269548
0.0308837
0.0221381
0.0292289
0.0147663
0.036938
0.0231877
0.00317685
0.0280283
0.00676421
0.000269038
0.00638773
0.0221035
0.018804
0.0218121
0.0279144
0.0303585
0.0116516
0.0241104
0.0138081
0.0188254
0.0177296
0.0175358
0.0108088
0.028545
0.0192701
0.019908
0.0283553
0.0200395
0.00999193
0.00961847
0.0200362
0.0210236
0.0191404
0.0266684
0.027229
0.00159677
0.0188673
0.0283628
0.0271362
0.0196511
0.0200737
0.0165112
0.0204819
0.0357496
0.00176112
0.0098772
0.0297088
0.00463535
0.0131966
0.0142316
0.0136039
0.0332224
0.0351368
0.00439294
0.0359206
0.0319533
0.0229682
0.022895
0.0324813
0.023706
0.0300879
0.0281951
0.00574539
0.0126428
0.0341749
0.000617812
0.000949484
0.0326389
0.0304213
0.00530061
0.0322679
0.0237511
0.0209121
0.0135923
0.0306396
0.0299786
0.0109287
0.0283752
0.0263932
0.0232607
0.0207859
0.00135013
0.00226875
0.00156027
0.0238827
0.0273849
0.0176179
0.0312229
0.0345003
0.017057
0.0152192
0.0107117
0.00640291
0.0378
0.00022886
0.00437291
0.0137328
0.00169536
0.000427933
0.000780007
0.0146207
0.0107365
0.00138945
0.0471189
0.0297018
0.0225861
0.0347798
0.0194831
0.0372961
0.00611496
0.0120721
0.0125975
0.0359236
0.0359476
0.0195177
0.0102495
0.0205278
0.0185234
0.0241758
0.0224245
0.0233961
0.0272757
0.00213344
0.0290756
0.0294182
0.0296289
0.02887
0.0242257
0.0238997
0.0184329
0.0169284
0.0310179
0.0269644
0.00877061
0.00687043
0.0183054
0.0261406
0.0348509
0.00859377
0.00983308
0.0102912
0.0260517
0.0328508
0.03458
0.0339139
0.00282563
0.00166886
0.0323099
0.00106915
0.0317734
0.0330235
0.00675224
0.00933055
0.0041801
0.0309408
0.0118119
0.0271723
0.0213765
0.0215304
0.0333535
0.0339858
0.0153673
0.0373084
0.0369312
0.0251803
0.0231816
0.000205336
0.00093793
0.025699
0.0233301
0.0281867
0.0365527
0.0555112
0.0372482
0.0293078
0.0372632
0.0295739
0.00374368
0.027279
0.0314365
0.00429531
0.0294205
0.00725389
0.00087071
0.0288876
0.0011102
0.0135624
0.0147107
0.0145452
0.0133984
0.000640748
0.00290268
0.00934583
0.0353432
0.0329367
0.0239506
0.0142674
0.0180517
0.0114453
0.0143912
0.0105983
0.0138586
0.0135948
0.0122999
0.025309
0.0216612
0.0290767
0.0215617
0.0290931
0.00210598
0.0284488
0.00151715
0.0376156
0.0294257
0.0192283
0.0242614
0.0118168
0.0154442
0.00537216
0.00404989
0.00948635
0.00642319
0.0174506
0.028498
0.0133744
0.0223689
0.0204091
0.00817148
0.0201253
0.0352342
0.00197742
0.00460419
0.00191192
0.0232719
0.0331412
0.0268134
0.00872638
0.00696888
0.0325856
0.00428384
0.0327805
0.0311084
0.0565425
0.0328762
0.032531
0.0371651
0.0347953
0.0334713
0.0261037
0.00678124
0.0270252
0.0064424
0.0276479
0.0287084
9.46603e-05
0.0350316
0.016397
0.00329675
0.0275513
0.0346012
0.0271465
0.0311302
0.0271562
0.0137864
0.0168318
0.0261217
0.0294725
0.0322157
0.0345596
0.00109892
0.00464936
0.0220774
0.0291931
0.0273793
0.0242977
0.0254629
0.00184209
0.0243229
0.0131196
0.0138172
0.0133923
0.0117162
0.0155549
0.018714
0.000810872
0.0297697
0.0309837
0.0263114
0.00172227
0.0308335
0.0187971
0.0197797
0.0223926
0.023308
0.0272169
0.0213207
0.047938
0.00553868
0.0193921
0.0300844
0.0232596
0.0232976
0.00457687
0.0212914
0.0330173
0.0372562
0.0272267
0.0125363
0.0320973
0.0115456
0.0214145
0.0341377
0.0360852
0.0214555
0.0364192
0.0360265
0.0358816
0.0334226
0.0226751
0.0348056
0.0329276
0.0287733
0.0129871
0.025996
0.0102694
0.00295732
0.0266925
0.00845739
0.0338613
0.0345081
0.033629
0.0313368
0.0199016
0.0315024
0.0355887
0.0112064
0.00787654
0.0154931
0.0381542
0.0260434
0.0251163
0.00651819
0.0057405
0.0299877
0.00191672
0.0183308
0.0374158
0.0321141
0.0274496
0.028254
0.0170173
0.0150379
0.00404003
0.0291268
0.000490364
0.0106812
0.0325129
0.00151363
0.0040882
0.00626407
0.00836208
0.00495664
0.023119
0.0257614
0.0301131
0.0198027
0.0122017
0.0436188
0.0121747
0.0140652
0.0149608
0.0313516
0.02832
0.035537
0.0320537
0.010209
0.0179139
0.0174868
0.0174347
0.0203476
0.0246174
0.024732
0.0287281
0.027403
0.0254673
0.0187781
0.0139942
0.0143301
0.00356305
0.0270032
0.0321328
0.0115305
0.00478289
0.0482677
0.0182616
0.0329409
0.022176
0.0333765
0.0400872
0.0258819
0.0116903
0.00998165
0.0214588
0.0354452
0.0340288
0.00886832
0.0377621
0.000460283
-0.000126593
0.0325822
0.036273
0.0182281
0.0150741
0.0304873
0.00792775
0.0340284
0.0366102
0.0147869
0.0298919
0.0311834
0.0463601
0.00841738
0.0351286
0.0206817
0.0215015
0.0295046
0.0351382
0.00411025
0.0276252
0.0376993
0.0367637
0.0392474
0.00848233
0.0308145
0.0299558
0.0043469
0.0243451
0.0351655
0.0251806
0.00366445
0.0109819
0.0232748
0.00762399
0.0254103
0.0109564
0.000970647
0.00123882
0.0155547
0.00446785
0.0334627
0.0196272
0.00868986
0.0150234
0.0347577
0.034786
0.0308079
0.0322031
0.0341938
0.0198099
0.00361411
0.00747934
0.0171203
0.0291625
0.0292622
0.0300609
0.0304153
0.0209438
0.0204548
0.0185035
0.0253491
0.022542
0.0226646
0.0244301
0.0369893
0.0266882
0.0292133
0.0249715
0.0276985
0.0274306
0.013947
0.0268988
0.0210804
0.0130359
0.0189544
0.0427576
0.0213366
0.0475916
0.0280819
0.00825882
0.0127741
0.0246829
0.0403891
0.0227659
0.0214697
0.00970041
0.028211
0.00102811
0.00251
0.000545328
0.0350593
0.0347996
0.0353226
0.0182424
0.03823
0.00685073
0.036249
0.0367023
0.0352982
0.00378281
0.0403317
0.0355917
0.00281788
0.0377601
0.0214955
0.0224704
0.0212042
0.0293422
0.031916
0.0261952
0.0275814
0.0290972
0.018098
0.01753
0.00458476
0.0367179
0.0289277
0.0330777
0.0251985
0.0321252
0.0359887
0.0134365
0.0345533
0.00360128
0.0258068
0.0122341
0.00146929
0.000301283
0.0155869
0.0323243
0.0123149
0.0294799
0.0299829
0.0101419
0.0314912
0.0118809
0.0378137
0.0299963
0.0372804
0.0280985
0.0153585
0.0297303
0.0310762
0.034556
0.00801403
0.0305864
0.0305114
0.0320608
0.0344912
0.0246727
0.032482
0.0262434
0.00362793
0.0311131
0.00801471
0.0233407
0.0245992
0.0169278
0.0269309
0.0407415
0.0206416
0.0191292
0.0200582
0.0140073
0.0261329
0.00981024
0.0174238
0.0320203
0.0152911
0.0301532
0.00912691
0.032326
0.0269696
0.00848824
0.0228735
0.0336746
0.00896972
0.0265614
0.0174959
0.00240794
0.000408601
0.00248054
0.0338342
0.0222172
0.0253399
0.0193536
0.0189804
0.033881
0.0367884
0.0355568
0.0270605
0.0350366
0.0286221
0.0371395
0.0195114
0.0378219
0.0375544
0.0375083
0.0363268
0.0353693
0.00426578
0.0296584
0.0354076
0.0271176
0.0244621
0.0394126
0.0354559
0.0179004
0.0368292
0.00378191
0.0334956
0.0349513
0.0245339
0.0233257
0.0316871
0.0330956
0.031583
0.00161273
0.0369379
0.0278814
0.0105468
0.000673845
0.0365173
0.0113043
0.00478037
0.00316262
0.000444518
0.0261789
0.00840798
0.0440217
0.0133904
0.0314289
0.0168945
0.0128046
0.0184008
0.0306727
0.0131948
0.0363453
0.0302778
0.0178758
0.0341464
0.0304547
0.0262199
0.040908
0.0276523
0.0351168
0.0226613
0.0379195
0.0225086
0.0223232
0.00475037
0.0283415
0.0269807
0.0285646
0.0328984
0.024116
0.0380421
0.0284651
0.0276643
0.00392423
0.008611
0.0382197
0.0201991
0.00754308
0.020397
0.0504962
0.0122758
0.0394952
0.00922169
0.00176581
0.01517
0.0158153
0.0140784
0.0262048
0.00819792
0.0243838
0.0304321
0.0218475
0.00739714
0.00806964
0.0357256
0.00229443
0.0266855
0.024819
0.0165549
0.0333757
0.0398047
0.0173639
0.0333175
0.0311566
0.0276434
0.000561879
0.0268897
0.030055
0.0355233
0.0363376
0.0410707
0.0380695
0.00480611
0.00319427
0.0384552
0.00468814
0.0344686
0.0369336
0.0342644
0.00747216
0.0421453
0.0163104
0.0306374
0.0367769
0.0331444
0.0341241
0.0327971
0.0312156
0.0285794
0.016854
0.0313401
0.0236985
0.00280987
0.015538
0.0342717
0.0311502
0.0404261
0.0426928
0.00228414
0.0223367
0.00368817
0.0069801
0.0359226
0.00694028
0.00593009
0.0377294
0.00872333
0.0146791
0.021844
0.0362866
0.000416457
0.0356229
0.030632
0.0170446
0.0350417
0.03719
0.0192979
0.0350743
0.0284434
0.0377698
0.0349784
0.0344259
0.0254044
0.039013
0.0272276
0.0079624
0.00842675
0.0378889
0.0282643
0.0346538
0.0420836
0.0311526
0.0332487
0.0415043
0.00835362
0.0377435
0.0368816
0.037879
0.0208673
0.0545739
0.00644183
0.0108144
0.0168648
0.0155361
0.0409111
0.0124004
0.030045
0.0238479
0.0249218
0.0232776
0.00858741
0.0154711
0.0100375
0.0355445
0.00173338
0.0378302
0.0385193
0.0391332
0.0184982
0.0324038
0.0485034
0.0301209
0.00275555
0.0345648
0.0117947
0.0146564
0.0398552
0.0187227
0.0393769
0.0399993
0.0267587
0.0043943
0.035475
0.0340967
0.0353576
0.026409
0.0349253
0.0349128
0.0337066
0.0297384
0.0306326
0.0315106
0.0316699
0.0261066
0.0243165
0.00243393
0.0363739
0.0220767
0.023556
0.0257506
0.0131742
0.0110684
0.0438536
0.0340832
0.031194
0.0397252
0.0410819
0.0154924
0.00640534
0.010715
0.0429949
0.0222232
0.0113971
0.0367107
0.00970233
0.0319939
0.0184685
0.0082084
0.00783957
0.0301249
0.0175834
0.0329702
0.00139836
0.0290837
0.00314023
0.0314081
0.0180971
0.0263207
0.0269495
0.0256146
0.0330669
0.0320708
0.0360996
0.0112582
0.0496115
0.0478386
0.0419208
0.0287573
0.0285312
0.0223042
0.0301547
0.0337372
0.035472
0.0405372
0.000189282
0.0158453
0.0174984
0.0536148
0.0362704
0.00451706
0.0372735
0.00472788
0.0213731
0.0244806
0.0150397
0.0109902
0.0421441
0.0339946
0.0116868
0.0230343
0.043495
0.0148938
0.00928129
0.000808
0.0212832
0.00319671
0.0391731
0.0093034
0.0415361
0.0495165
0.0126663
0.0346026
0.000482646
0.000520756
0.0121189
0.0401446
0.0400831
0.0382055
0.0338904
0.0025951
0.0261574
0.0560476
0.0251484
0.033709
0.0321531
0.033404
0.0339027
0.0268658
0.0371876
0.0328361
0.0116251
0.00288757
0.00322127
0.00324018
0.0315196
0.0352466
0.0198352
0.035197
0.0084109
0.0087113
0.00989755
0.0303974
0.0410567
0.0405329
0.0425939
0.0240262
0.0120872
0.0373217
0.0114334
0.0301698
0.0327462
0.033958
0.0185732
0.0372644
0.0169503
0.0308764
0.0320647
0.0306887
0.0162864
0.0230521
0.0570896
0.0144162
0.00371081
0.0292815
0.0250594
0.0311751
0.0202964
0.0236433
0.0254067
0.0271037
0.0224282
0.0326511
0.0474992
0.0244178
0.0367098
0.0169848
0.0300542
0.0229746
0.0290173
0.031463
0.0298269
0.0402245
0.00580663
0.0395141
0.026107
0.00126547
0.0172069
0.0413873
0.0370002
0.0220555
0.00526303
0.0334795
0.0121897
0.0426722
0.0122328
0.0346387
0.0327614
0.0386559
0.029254
0.0356021
0.0243293
0.0041197
0.0318738
0.00371529
0.0387652
0.000414328
0.00129839
0.00823941
0.00302145
0.0265561
0.00142137
0.0429937
0.0432804
0.0363088
0.0373486
0.0407386
0.0407649
0.0394125
0.0399815
0.0112409
0.0434361
0.0392649
0.00875703
0.0371778
0.045783
0.0257569
0.000221612
0.0357811
0.0389435
0.033493
0.0311706
0.0351608
0.0419023
0.00405812
0.0368972
0.00182793
0.00103497
0.000198949
0.0320991
0.0227643
0.00997024
0.0187396
0.0365391
0.0538159
0.0256191
0.0333813
0.0342895
0.0416619
0.00335293
0.056637
0.0383911
0.0112354
0.0273404
0.0133415
0.0286683
0.0353407
0.0135862
0.0379247
0.0295157
0.0161114
0.02519
0.0154899
0.0311164
0.025114
0.0399277
0.0409914
0.0118385
0.0213911
0.0258305
0.0252609
0.0342454
0.0483847
0.0175612
0.0341246
0.0260514
0.0173132
0.0221876
0.0435934
0.024461
0.0225923
-6.22404e-05
0.0462662
0.0454197
0.00153464
0.0373462
0.00291385
0.0281375
0.0428435
0.00648153
0.0397052
0.0397498
0.0422012
0.0405274
0.0325531
0.033409
0.0365061
0.0100466
0.0351258
0.0122529
0.00331226
0.0187185
0.00510563
0.033306
0.036178
0.0155215
0.0155461
0.0189158
0.0423392
0.00484769
0.0361167
0.0216299
0.0417872
0.0295776
0.0408992
0.0393724
0.0440506
0.0391563
0.00182592
0.0260471
0.0389558
0.0271661
0.0354085
0.034164
0.00723697
0.0410077
0.0311416
0.0430656
0.000170036
0.0392006
0.00993496
0.0211854
0.00288032
0.0333572
0.0324217
0.0506394
0.0308938
0.0104108
0.038332
0.0366062
0.00119371
0.000810262
0.0499915
0.0342314
0.0120242
0.0555253
0.0137466
0.0216062
0.0373333
0.000523747
0.00434934
0.0564904
0.0109788
0.0163618
0.0162012
0.0266466
0.0365246
0.0211498
0.015443
0.0372918
0.0419886
0.0389033
0.0362658
0.0213812
0.0365501
0.025705
0.0157809
0.0322067
0.0317351
0.0258256
0.029156
0.0212194
0.0199285
0.0368627
0.0379304
0.0384499
0.0320307
0.045483
0.0308931
0.0320753
0.0301527
0.031634
0.0382419
0.0275498
0.00621412
0.0416506
0.0403595
0.0375731
0.00648301
0.0358914
0.0311854
0.034949
0.0317726
0.0427941
0.0373603
0.00498277
0.0152125
0.0422912
0.0426807
0.0460967
0.00412632
0.0206696
0.0145058
0.0393604
0.0380686
0.0408356
0.0456898
0.0460737
0.0395898
0.0452229
0.0390081
0.0384304
0.0247417
0.0407442
0.0345424
0.0452367
0.0546364
0.034211
0.0319781
0.0565119
0.0282745
0.0202402
0.0421535
0.0232446
0.0451775
0.00134996
0.0351529
0.0217558
0.0521666
0.0338468
0.0321968
0.0430669
0.0207708
0.00144339
0.01913
0.0525425
0.000491885
-8.40384e-05
0.0346351
0.0136011
0.0146047
0.0144069
0.0103806
0.00884215
0.009838
0.00809274
0.0155424
0.0402193
0.0450815
0.00469578
0.040561
0.0359898
0.0037213
0.0339444
0.0415989
0.0421518
0.023821
0.0292545
0.0224895
0.0412055
0.0233358
0.036018
0.0320101
0.0237905
0.0330602
0.0404573
0.0229524
0.0225762
0.0327744
0.0322062
0.0272606
0.0440088
0.00525961
0.0462982
0.0280162
0.0241099
0.0265096
0.04164
0.0182699
0.0141223
0.0418687
0.0370749
0.0380581
0.0407156
0.0520401
0.047111
0.0420903
0.0379497
0.0414724
0.0437014
0.0422787
0.0262435
0.0443652
0.0424961
0.0123928
0.0380093
0.0281891
0.0443295
0.0367495
0.0436397
0.0220141
0.0392511
0.0277272
0.0322645
0.0408363
0.0441982
0.0120875
0.0360568
0.0286482
0.0277673
0.029268
0.0452906
0.036924
0.0390039
0.000854283
0.0331336
0.00018094
0.03891
0.00339619
0.0532461
0.0134958
0.0275464
0.0108966
0.0105369
0.00948234
0.0357203
0.0388905
0.0267869
0.0274139
0.0356573
0.0243828
0.0408759
0.0419219
0.030447
0.0460231
0.0399298
0.0463127
0.0401282
0.0374142
0.0431561
0.0243842
0.0315244
0.0326276
0.0259399
0.00596195
0.0435175
0.0428069
0.0507262
0.0132919
0.0399609
0.0355464
0.0141739
0.032316
0.0395499
0.0344686
0.0450805
0.0428026
0.0408545
0.0445085
0.0330801
0.0425513
0.0443266
0.0429187
0.0421228
0.0351295
0.0393159
0.0310894
0.0456454
0.0381441
0.0566005
0.0557739
0.0367477
0.0450722
0.0361532
0.0354974
0.0345983
0.0295132
0.0417466
0.0369696
0.0399486
0.0418598
0.0457333
0.0401554
0.0342336
0.0381774
0.0382086
0.044632
0.0368945
0.0394618
0.0420297
0.0436315
0.00317895
0.0401943
0.00431548
0.00496209
0.00541911
0.00269787
0.0396477
0.00859335
0.000913709
0.0291022
0.039383
0.0537653
0.0547093
0.045481
0.0363142
0.0445014
0.0242664
0.0501155
0.0322273
0.0353255
0.0385492
0.041735
0.027311
0.0412004
0.0429055
0.0311346
0.0333693
0.0429821
0.033704
0.0495744
0.0431735
0.047911
0.0148539
0.00265352
0.0398996
0.0395076
0.0388235
0.0481028
0.0407697
0.0490637
0.0408275
0.0439845
0.0259031
0.0457739
0.0330388
0.0441791
0.0349963
0.0447148
0.0459402
0.0279271
0.0405351
0.0301273
0.0420962
0.0299396
0.042455
0.0369026
0.0354694
0.0425223
0.0409719
0.0369719
0.0408359
0.0281509
0.0491213
0.0382749
0.0407039
0.0420116
0.043751
0.0120064
0.0295913
0.0442761
0.00437719
0.00589645
0.0452816
0.0396904
0.000666885
0.0539851
0.0358555
0.049809
0.0390993
0.0340802
0.0341231
0.0470053
0.039316
0.0336969
0.0354875
0.0382607
0.0393312
0.0389128
0.0505889
0.0432032
0.043454
0.0292126
0.0292994
0.0457981
0.0369299
0.0433669
0.0433871
0.0489837
0.0537548
0.0515465
0.0343357
0.0457768
0.036117
0.0425134
0.0415089
0.0355837
0.0163468
0.0451162
0.0543914
0.0441694
0.0339192
0.039067
0.0339297
0.0559441
0.0313034
0.0401804
0.0340331
0.0356321
0.0425923
0.0450703
0.0359682
0.0431158
0.0422698
0.0383288
0.0438359
0.0425201
0.0425002
0.0380252
0.0457207
0.0460173
0.0452025
0.0387861
0.0444891
0.0447073
0.0442683
0.0141005
0.0453177
0.0321616
0.0331909
0.0408166
0.0488888
0.0324978
0.0394685
0.0458168
0.0387136
0.0396507
0.0341802
0.0514069
0.038159
0.0449163
0.0325524
0.0325999
0.0392603
0.0454643
0.0323355
0.038651
0.0382201
0.0447643
0.0455432
0.0386085
0.0390568
0.0487663
0.0487293
0.0400038
0.0480699
0.0472078
0.0423653
0.0482544
0.0198108
0.048095
0.0454441
0.0446383
0.0451424
0.0432268
0.0451641
0.0499375
0.0407109
0.0450146
0.0358103
0.0410912
0.0369092
0.0424103
0.0424414
0.0515245
0.0432688
0.0511398
0.0513115
0.0367474
0.0420155
0.044
0.0295615
0.0378955
0.03936
0.0394021
0.0500568
0.0435672
0.0340664
0.0388098
0.0317911
0.0464536
0.0323007
0.0338564
0.0387122
0.0396088
0.040163
0.0449658
0.0443563
0.0450113
0.0373799
0.0329769
0.0352601
0.044143
0.046003
0.0302805
0.0452683
0.0513613
0.0477223
0.0379902
0.0439397
0.042867
0.044617
0.0414224
0.0408733