/*--------------------------------*- C++ -*----------------------------------*\
| =========                 |                                                 |
| \\      /  F ield         | OpenFOAM: The Open Source CFD Toolbox           |
|  \\    /   O peration     | Version:  2212                                  |
|   \\  /    A nd           | Website:  www.openfoam.com                      |
|    \\/     M anipulation  |                                                 |
\*---------------------------------------------------------------------------*/
FoamFile
{
    version     2.0;
    format      ascii;
    arch        "LSB;label=32;scalar=64";
    class       surfaceScalarField;
    location    "0.014";
    object      phi;
}
// * * * * * * * * * * * * * * * * * * * * * * * * * * * * * * * * * * * * * //

dimensions      [0 3 -1 0 0 0 0];

oriented        oriented;

internalField   nonuniform List<scalar> 
68568
(
-1.40622e-07
1.45552e-07
-2.75822e-08
2.26521e-08
1.36109e-07
-6.92786e-08
-7.26695e-08
5.83894e-09
1.63856e-07
-1.25576e-07
-5.58618e-08
1.75822e-08
-4.34926e-09
2.21568e-09
-1.56226e-07
1.5836e-07
-1.35733e-09
1.31417e-07
1.01838e-09
-1.31078e-07
1.30249e-07
-4.51626e-10
-1.19219e-07
-1.0579e-08
7.77135e-08
-8.32489e-08
1.21696e-07
-1.16161e-07
-3.66207e-08
-2.5006e-08
1.3934e-07
1.21916e-07
-1.4569e-08
-1.02847e-07
-4.4999e-09
1.39936e-07
4.94121e-08
-5.32386e-08
9.35744e-08
1.27991e-07
-5.77099e-08
-6.01069e-08
-1.87156e-07
1.77985e-07
-1.31402e-07
6.42469e-08
-5.51483e-09
1.69804e-07
-1.7528e-07
1.30763e-08
-7.59989e-09
-6.62527e-08
-4.843e-08
1.13529e-07
1.1535e-09
1.19129e-07
8.25603e-08
-1.22574e-07
-7.91156e-08
-4.75606e-08
-7.3515e-08
1.0742e-07
1.36556e-08
1.0631e-07
-1.11045e-07
-4.28258e-08
1.04157e-07
-4.36035e-09
-5.12947e-10
-9.92839e-08
8.03441e-08
-1.44437e-07
7.22936e-08
-8.20033e-09
1.06814e-07
-4.31198e-10
-1.06386e-07
3.28813e-12
-1.63742e-08
8.45979e-09
1.30548e-07
-1.22633e-07
-4.29436e-08
1.76967e-07
-2.55055e-08
-1.08518e-07
-5.90569e-10
-2.88735e-10
-1.27704e-07
1.28583e-07
-7.09951e-08
-4.56685e-08
1.10181e-07
6.48265e-09
-9.15486e-08
-3.72765e-08
-1.17972e-08
-6.10694e-08
1.33228e-07
8.18514e-09
7.2768e-08
4.3699e-08
-2.77642e-08
-8.87027e-08
-6.3669e-08
-9.46721e-08
1.2172e-07
4.539e-08
-1.12569e-07
3.50965e-09
1.43085e-07
-7.67415e-08
-1.34729e-07
6.83858e-08
-1.26112e-08
2.45037e-09
1.11231e-07
-1.0107e-07
1.46812e-07
-3.08043e-08
-1.04477e-08
-1.0556e-07
1.1323e-07
-8.72219e-08
-5.5212e-08
2.92036e-08
-1.88345e-10
1.03988e-07
-1.03813e-07
1.34664e-11
1.13958e-07
8.08682e-08
-8.11432e-08
6.82754e-10
-4.07851e-10
4.0075e-08
-1.49079e-07
8.69164e-08
2.20877e-08
-1.52688e-07
1.32863e-07
5.98999e-08
-7.05832e-08
-1.24257e-10
-2.87687e-10
-8.03522e-10
1.08511e-07
-8.94174e-10
1.06838e-07
-1.0662e-07
-3.57642e-10
1.40285e-10
-2.50913e-08
-1.49254e-07
1.12214e-07
1.81392e-07
-1.3852e-07
-1.55086e-07
-5.75796e-08
-9.71424e-08
2.73851e-07
-1.36715e-07
1.54083e-07
-1.29543e-07
1.12175e-07
-1.17712e-07
6.28448e-08
-5.24002e-09
1.07993e-07
-1.05417e-07
-3.38169e-09
8.05072e-10
9.26313e-08
2.3867e-08
1.09819e-08
-1.2748e-07
2.02033e-09
-1.43927e-07
1.39353e-07
3.23974e-08
-2.78234e-08
-7.78262e-09
-8.91824e-08
9.65825e-08
3.82587e-10
-1.81854e-07
1.29528e-07
1.72696e-07
-1.19002e-07
-3.70291e-10
-3.18264e-10
1.75703e-09
-1.4697e-09
1.02217e-07
-1.02504e-07
3.72972e-08
-1.08717e-07
-2.09487e-09
8.75681e-08
-9.35352e-08
3.46239e-09
2.50474e-09
-8.06581e-08
1.34194e-07
-5.93542e-08
5.81871e-09
1.38795e-07
-7.19953e-08
-7.01001e-08
3.30033e-09
8.66249e-08
-8.67815e-08
-4.33934e-10
-1.0526e-07
-1.81868e-09
1.09294e-07
7.11631e-08
6.72294e-08
-7.24025e-09
-1.31152e-07
-5.52323e-09
1.28387e-07
-1.23538e-07
6.74085e-10
8.39763e-08
-1.42056e-07
-2.9897e-09
1.02304e-07
-1.70459e-08
3.16026e-08
-1.16861e-07
1.40538e-07
-2.1779e-08
-1.59405e-07
4.06458e-08
3.86489e-08
7.68868e-08
-1.13785e-08
6.08902e-08
-1.20664e-07
6.63546e-08
-6.58089e-09
1.27781e-07
-1.29048e-07
-9.04032e-11
-9.4365e-08
1.34511e-07
-2.98448e-08
-1.0301e-08
-1.9352e-07
-1.42798e-07
2.72143e-07
6.4175e-08
-1.08194e-07
2.91372e-09
1.10654e-07
-6.4796e-09
1.28158e-07
-1.35891e-07
-5.05385e-08
5.82721e-08
-1.18653e-07
6.13422e-08
6.32528e-08
-5.94193e-09
-8.03447e-08
-4.69016e-08
-4.59932e-08
-9.63594e-08
9.65362e-08
-1.54866e-10
-2.20332e-11
3.75968e-08
1.6409e-07
-6.28918e-08
9.96583e-08
-5.92689e-08
4.71787e-08
-6.92597e-08
-7.62018e-08
1.4152e-07
3.94098e-09
-5.02616e-10
-2.06331e-07
-4.82218e-10
2.07316e-07
7.06753e-08
-4.40569e-08
8.02192e-08
-6.191e-11
6.20025e-08
-6.19361e-08
-4.50029e-12
-1.7926e-08
1.32235e-07
6.26596e-08
-1.76968e-07
1.60674e-07
-8.11065e-08
-8.44369e-08
4.86939e-09
1.13568e-07
3.56059e-08
-3.41146e-08
-1.15059e-07
1.53289e-07
-7.24935e-08
7.19408e-08
-1.52737e-07
3.3115e-08
1.23296e-08
1.07845e-07
-8.38137e-08
7.99368e-08
-1.52349e-07
1.1871e-07
6.79127e-10
-1.15518e-07
-3.87096e-09
-3.71724e-08
-2.63663e-07
1.83124e-07
7.95239e-08
8.08827e-08
-6.32397e-09
-5.62251e-10
4.17669e-10
8.84748e-08
-8.83302e-08
-1.17331e-07
1.17367e-07
-3.24973e-10
-5.68738e-08
1.13802e-07
5.91684e-09
6.80876e-09
8.22819e-08
-4.56122e-09
-8.45294e-08
-1.20981e-07
5.35403e-08
8.44793e-08
-1.70383e-08
-4.17094e-08
-7.63643e-08
-9.63038e-09
-7.80161e-08
1.52307e-07
5.23302e-09
6.85336e-08
7.15442e-08
-1.35269e-07
-4.80887e-09
1.08499e-07
6.50443e-10
-1.08925e-07
-2.24599e-10
-5.62886e-09
-1.44121e-07
-1.28569e-08
1.5109e-07
-2.95868e-09
1.10088e-07
-1.12942e-07
5.45735e-08
-7.2583e-09
9.28579e-08
-4.75071e-10
-9.13093e-08
-1.07344e-09
1.1579e-07
-8.02371e-10
1.2821e-07
-4.32998e-08
7.57637e-08
3.02819e-11
-9.84778e-08
-3.3391e-09
1.06135e-07
-4.31797e-09
8.67031e-08
-4.75442e-08
-8.57815e-08
9.58707e-11
8.57694e-08
-8.37295e-11
-3.31737e-08
-1.28817e-07
1.37906e-07
2.40845e-08
-1.67566e-09
1.23695e-07
-1.21642e-07
-3.77186e-10
-8.30181e-08
-3.46302e-08
1.18354e-07
-7.05959e-10
-4.16786e-09
2.14485e-09
-1.03237e-07
-1.54773e-07
8.33062e-08
7.69543e-08
-5.48739e-09
1.7567e-10
-9.61583e-08
9.61893e-08
-2.06654e-10
1.29862e-07
-5.22941e-10
-4.26378e-11
-1.04319e-07
2.54889e-10
1.04107e-07
-8.62984e-08
1.93792e-08
7.71601e-08
1.24206e-07
-6.81025e-08
4.78659e-09
1.32471e-07
-1.31677e-07
-1.34055e-08
-1.1783e-07
1.32732e-07
1.79275e-08
-3.28296e-08
6.80849e-08
-6.95674e-08
1.42021e-07
3.85428e-09
1.06159e-07
1.42592e-07
-1.2079e-09
-1.43059e-07
6.4312e-08
-1.34411e-07
-4.02088e-09
7.412e-08
1.35602e-07
-7.47869e-08
7.71807e-09
9.50691e-08
-9.30335e-08
-1.06759e-07
5.45565e-08
-2.89403e-08
-1.42005e-07
1.35592e-07
-1.80334e-08
2.4446e-08
1.54717e-07
4.26646e-08
-4.35226e-08
-1.5359e-07
-6.98927e-08
-2.81956e-08
7.61415e-08
2.19467e-08
-1.23369e-07
6.47931e-08
-5.11661e-08
1.09743e-07
-1.43002e-07
-3.0667e-09
1.48893e-07
-2.82426e-09
-1.02162e-07
1.92576e-08
-6.00971e-08
-1.54504e-07
-6.05121e-09
9.00827e-08
-1.39274e-09
-1.06833e-07
-4.287e-10
-1.02611e-07
1.32452e-07
-6.97995e-08
5.8093e-09
1.47488e-07
-7.84372e-08
-7.54308e-08
6.38013e-09
-1.26232e-07
1.69914e-07
-4.37048e-08
2.31803e-11
7.83149e-08
-7.82473e-08
-1.263e-07
9.02449e-08
7.14112e-09
-2.31693e-09
6.29567e-10
9.95509e-08
-9.91366e-08
-1.04387e-09
1.78649e-07
-4.52973e-08
-9.77461e-08
-1.02578e-07
1.14842e-07
1.09281e-07
-1.04532e-07
-2.60402e-09
-1.58744e-09
9.704e-08
-9.56738e-08
2.21207e-10
-8.78387e-09
-1.27696e-07
1.24448e-07
1.20322e-08
-1.32e-07
1.48352e-07
-9.63536e-09
-6.71652e-09
1.14947e-07
-1.78898e-08
-9.82916e-08
1.02229e-08
-7.31389e-09
-9.18202e-08
9.13515e-08
3.09004e-08
-6.05395e-09
-1.27009e-07
-1.9374e-08
1.05057e-07
-7.95744e-08
-6.10873e-09
1.49821e-07
-6.16853e-09
-1.27467e-08
-1.30906e-07
1.47092e-07
2.91138e-11
-2.20489e-09
-1.44916e-07
1.29354e-07
-1.48834e-09
-8.44614e-11
1.23105e-07
-1.23343e-07
1.94865e-10
4.34923e-11
-1.1803e-07
-7.78859e-08
1.19551e-07
1.99178e-08
-1.6035e-07
-1.05547e-07
1.0549e-07
-1.48469e-11
7.18959e-11
-1.27199e-07
-6.70519e-09
1.90343e-09
-9.71091e-08
-1.00091e-10
9.72733e-08
-6.40907e-11
-1.16283e-07
-5.31198e-10
1.16897e-07
-8.31637e-11
-1.24631e-08
1.2163e-07
-9.94079e-08
-7.83126e-09
-9.75772e-08
9.74246e-08
1.09954e-10
2.84523e-08
2.67676e-08
7.58484e-08
-1.30681e-07
6.86452e-08
-6.87442e-08
1.35167e-07
-1.35068e-07
9.80991e-08
-7.73957e-08
-2.30583e-08
2.3549e-09
6.60641e-08
3.49996e-08
-1.02434e-07
3.69459e-09
5.36495e-09
-1.02471e-07
1.16463e-07
-1.93572e-08
-4.34981e-10
9.74035e-08
-9.66301e-08
-3.38443e-10
-1.33022e-07
-8.23295e-09
1.5488e-07
1.93573e-07
-8.28376e-08
1.74991e-07
1.45571e-07
-7.29041e-08
5.64768e-09
-4.12446e-08
2.40156e-08
-1.01182e-07
1.2024e-07
8.3027e-08
8.83094e-08
-7.24627e-09
8.80598e-08
6.88022e-08
-1.51407e-07
-5.45481e-09
7.7518e-08
7.50704e-08
-7.0171e-09
1.15513e-07
-7.09761e-08
7.85681e-08
7.01024e-08
-1.18715e-07
5.60547e-08
-7.44253e-09
4.09075e-10
-9.40563e-08
-1.02491e-09
5.40645e-11
-2.90116e-07
1.72644e-07
1.42784e-07
-1.04352e-07
1.99707e-08
8.81828e-09
4.0628e-08
4.24419e-08
-9.18881e-08
-1.21023e-07
1.70369e-09
1.20408e-07
-1.08952e-09
-9.33837e-08
9.30336e-08
2.66912e-11
3.23364e-10
1.20044e-07
-1.55748e-07
1.84085e-07
-1.48381e-07
1.42191e-08
-1.45368e-09
1.18652e-07
-2.98761e-08
7.04422e-09
-6.91194e-08
9.19513e-08
-6.82601e-08
1.31678e-07
5.22751e-09
-1.3753e-07
7.10463e-08
7.18154e-08
-5.33172e-09
-1.03626e-07
-2.37396e-08
1.07992e-07
3.99015e-10
7.19482e-08
-1.01455e-10
-7.22457e-08
1.36969e-07
-6.31243e-08
7.29668e-08
1.16176e-09
-9.92776e-11
-4.86634e-11
-9.13243e-08
1.66258e-07
-4.44798e-08
-2.74345e-08
-9.43438e-08
1.6828e-08
2.79762e-08
-1.26258e-07
8.4182e-08
-3.23295e-08
2.11873e-08
1.47412e-07
5.19028e-08
1.56287e-07
-1.77548e-07
-5.96019e-08
-6.37142e-08
5.48657e-09
1.23683e-07
5.74399e-09
-6.76989e-08
-6.78809e-08
1.28744e-07
6.83573e-09
-7.3869e-09
9.4586e-08
-1.28258e-07
-1.98038e-10
6.61179e-08
-6.65193e-09
-6.5458e-10
-1.26379e-07
4.48037e-11
1.26989e-07
-1.25411e-07
1.51321e-07
-3.6599e-08
1.03744e-08
-8.75914e-09
4.74316e-08
1.03919e-07
-1.20253e-07
6.99595e-08
-2.49871e-08
7.52809e-08
-1.31645e-07
8.87714e-08
-1.21772e-07
1.20243e-07
3.20919e-10
8.703e-08
2.08303e-08
-1.55603e-07
-2.02252e-08
1.54998e-07
-1.7123e-07
9.39987e-08
-1.291e-07
-1.54191e-09
1.54834e-07
2.31769e-08
6.32074e-08
-9.07089e-08
4.32465e-09
1.15698e-07
-8.37428e-08
-3.66414e-10
-9.45088e-08
8.21655e-11
-2.21078e-07
2.21188e-07
-5.92207e-10
-8.98719e-08
-9.32837e-08
-8.83337e-08
9.56401e-08
-1.04884e-07
7.97119e-08
-1.0102e-07
1.60006e-08
5.3078e-09
1.18199e-07
-8.53693e-08
-8.8142e-09
-1.45397e-07
-1.11552e-08
1.99934e-08
1.36559e-07
-2.89675e-07
-3.86423e-10
-1.24269e-07
1.2369e-07
1.70308e-11
-8.83891e-08
6.02029e-12
4.93302e-11
-1.31435e-08
-8.87498e-08
1.42239e-07
-4.03456e-08
1.01242e-07
4.83536e-09
4.10141e-08
-1.27766e-07
1.26795e-07
-3.38893e-09
-6.02201e-08
1.38903e-07
-9.19572e-08
2.34752e-10
-1.20899e-07
-3.58059e-10
8.7269e-08
-8.88691e-08
1.30365e-10
-6.27315e-08
-6.29643e-08
1.18009e-07
7.68697e-09
1.06675e-07
1.67796e-08
-9.17055e-08
-3.17491e-08
-8.70202e-09
1.44363e-07
-1.39422e-07
1.12298e-09
-1.05159e-07
-1.81006e-08
1.20291e-07
-4.45598e-11
-1.20331e-07
8.46448e-11
2.26281e-08
7.04246e-09
5.14101e-08
-8.10806e-08
-1.34496e-07
7.19329e-08
-5.13535e-09
-1.08511e-07
1.02991e-07
-7.19477e-09
-2.72448e-10
1.15503e-07
2.82494e-10
-7.62037e-08
-6.845e-08
1.38005e-07
6.64906e-09
1.23165e-07
-6.55243e-08
-6.35e-08
5.85938e-09
1.22364e-07
-2.03581e-09
-3.7338e-11
-9.63839e-08
-8.60077e-08
9.40026e-08
-1.15922e-07
-4.38213e-08
-1.25437e-08
1.72368e-07
-9.97878e-08
2.75285e-08
-1.2126e-07
5.49526e-11
-9.92132e-08
4.75531e-10
-5.26667e-10
1.27338e-07
2.41444e-08
-2.58066e-08
-1.25675e-07
4.35455e-08
-1.2165e-07
-1.07273e-10
-1.02373e-10
3.6241e-08
-1.82151e-07
-7.4193e-08
1.24237e-07
8.4467e-08
1.9281e-08
-1.37437e-07
-1.71208e-08
1.35277e-07
-7.76342e-08
6.38022e-09
1.25829e-07
-1.25611e-07
8.74152e-08
3.93725e-08
-1.17673e-09
-4.27647e-10
1.54404e-10
-9.1396e-08
6.28665e-08
-4.64419e-09
-1.41138e-09
-2.49774e-09
-2.36121e-09
8.95494e-08
-8.46905e-08
7.74809e-08
1.00029e-07
-9.77013e-08
-7.98086e-08
1.4005e-07
-1.56197e-07
4.34414e-11
4.05449e-10
1.47967e-07
-9.36364e-09
-1.30144e-07
-3.98982e-08
1.44149e-07
1.06961e-08
1.12404e-07
-1.06143e-07
-5.29613e-09
-9.64786e-10
-7.18007e-10
1.07703e-07
1.56099e-07
-5.42259e-08
-2.21438e-09
8.80016e-08
-7.80437e-08
-5.23006e-10
3.85513e-10
1.32608e-07
-1.41215e-07
2.89436e-09
1.28531e-07
8.52746e-09
-1.14938e-08
1.09489e-07
-1.37275e-07
2.91458e-08
9.99659e-10
8.52869e-08
-8.19755e-10
-8.54669e-08
-1.12224e-07
1.12321e-07
-1.45399e-10
1.12184e-09
-3.2516e-10
-1.06788e-07
1.06082e-07
-1.22179e-11
-1.05041e-07
-2.12987e-10
9.5299e-11
6.77214e-08
-9.65021e-08
-7.25492e-08
1.0133e-07
4.55866e-11
-1.10423e-07
1.10551e-07
-1.72983e-10
-4.94779e-08
1.29482e-07
-5.19289e-08
-1.82647e-08
-1.33279e-07
6.98254e-08
-6.43877e-09
2.66378e-08
-1.51479e-08
1.00914e-07
-1.29325e-07
6.19996e-08
6.0158e-08
7.16724e-09
-1.49364e-07
-1.04034e-07
1.05788e-07
-1.19502e-07
-4.08036e-08
5.45177e-08
1.23259e-07
-1.238e-07
2.48055e-10
2.93804e-10
-1.41868e-09
-1.73005e-07
7.58133e-11
1.74348e-07
-9.90319e-08
1.68677e-11
9.89705e-08
-1.20737e-07
1.23122e-10
2.82502e-10
6.85561e-08
-1.21549e-07
-6.60865e-09
5.48636e-11
-1.23198e-07
-1.9996e-10
7.2684e-08
7.22213e-08
-5.55228e-09
-7.0014e-08
-7.04327e-08
1.34176e-07
6.27071e-09
-1.11318e-07
1.04091e-09
1.10277e-07
2.60297e-13
1.17675e-07
2.90153e-08
1.05167e-07
-1.53229e-08
1.02834e-07
-5.24754e-09
-9.47017e-08
4.45757e-08
4.29032e-08
7.22277e-09
8.22767e-08
1.21171e-07
-9.19128e-08
-1.0813e-07
6.91516e-08
-6.72312e-08
-1.23897e-07
-9.93343e-08
1.08937e-07
1.14294e-07
1.03701e-07
-1.40599e-10
1.09642e-07
-1.10805e-07
1.29129e-09
-1.29021e-10
-1.23824e-07
-1.22515e-07
7.63497e-10
1.09016e-10
1.58716e-08
4.0924e-08
-1.55843e-07
1.43486e-08
-4.02123e-08
1.84399e-07
1.26395e-07
-6.77475e-08
-6.4043e-08
4.71586e-09
1.81118e-08
-1.9824e-08
1.24972e-07
-3.11468e-08
-7.40013e-08
1.01288e-07
-6.33568e-10
-1.00438e-07
-2.15762e-10
-3.84204e-08
-1.36468e-07
2.70626e-07
-9.57373e-08
9.95173e-08
-7.53681e-08
-9.72304e-10
1.57589e-10
9.75049e-08
-2.58986e-10
6.8964e-08
-6.92522e-08
1.13627e-07
-1.46646e-07
-1.22375e-07
7.44531e-08
1.18968e-07
-1.9756e-09
-2.89069e-08
-7.6695e-08
6.74176e-08
8.02256e-08
8.45535e-09
1.05104e-07
-1.19938e-07
1.68755e-09
1.4076e-07
-7.54668e-08
6.52191e-09
1.11299e-07
-1.44811e-07
1.28662e-07
-8.43708e-08
-2.98771e-08
-1.35632e-08
2.00344e-09
9.74158e-08
-1.08203e-07
6.46424e-08
-1.22169e-07
-5.20456e-09
1.4198e-07
1.42017e-08
-4.08658e-08
1.19373e-07
-7.7831e-08
-2.46561e-09
-2.44989e-08
1.32267e-07
-1.48002e-07
4.0234e-08
1.09805e-07
1.93726e-08
-5.22905e-08
-3.15799e-10
-1.18602e-07
1.17783e-07
-9.17926e-10
-2.81867e-08
2.1548e-08
-9.17198e-08
9.83586e-08
7.19309e-08
-1.34639e-07
-5.17232e-09
-1.2849e-07
1.28751e-07
-2.06675e-10
-7.30491e-08
1.4991e-07
-1.15281e-07
-6.89039e-08
-7.64201e-08
1.65073e-08
-9.59095e-08
6.03669e-12
2.04905e-07
-1.69075e-08
-8.99225e-08
-1.01417e-07
-7.00022e-08
1.25883e-07
2.16262e-07
-1.79985e-10
-8.46226e-08
-3.69695e-12
8.48063e-08
3.04491e-08
1.07698e-07
-8.75588e-10
1.41429e-07
5.70792e-09
9.13948e-08
5.42284e-08
2.72907e-09
6.97528e-08
-1.34426e-07
-5.34084e-09
-6.93158e-08
-7.83829e-08
1.38614e-07
9.08495e-09
-8.65417e-08
-4.1453e-09
-4.01469e-09
-8.46319e-09
-1.21916e-07
1.06789e-07
-5.98706e-11
-1.16316e-07
-3.07291e-09
1.13866e-07
-8.40271e-08
-1.28614e-07
9.11795e-08
1.21462e-07
-1.06572e-07
3.70476e-08
7.26767e-08
-3.15198e-09
6.66402e-08
6.6601e-08
-1.26313e-07
-6.92854e-09
-6.8192e-08
-6.54693e-08
1.27397e-07
6.26459e-09
4.9277e-08
4.57746e-08
-1.04933e-07
9.88112e-09
-6.37171e-08
1.06087e-07
-3.45171e-08
-7.85265e-09
1.00763e-07
-1.01167e-07
-2.50197e-10
-8.90037e-08
4.4882e-10
7.75489e-08
9.9694e-08
-2.66512e-08
-1.50592e-07
-2.93773e-08
8.37108e-08
3.63765e-08
-9.07099e-08
-9.36449e-08
3.22022e-11
9.51287e-08
-1.51604e-09
-6.98365e-08
-4.01047e-08
9.01172e-08
1.17919e-07
-3.31108e-09
6.6634e-08
-1.24041e-07
6.23002e-08
-4.89355e-09
-5.04686e-08
3.32579e-08
-1.09348e-07
1.11436e-08
1.27553e-07
-9.94444e-08
-3.93603e-08
1.21686e-07
7.58827e-08
-7.00261e-08
7.69329e-10
-1.16947e-07
-1.0534e-10
6.53975e-08
-5.21418e-08
9.7744e-08
-1.12409e-07
5.39554e-08
5.11939e-08
7.25954e-09
6.98246e-08
-4.63127e-09
3.71553e-08
6.04987e-08
7.4031e-09
8.76084e-09
1.1973e-07
-9.52282e-09
-5.25193e-09
-7.80656e-08
7.61183e-08
1.26919e-07
-7.06659e-08
-1.47953e-07
1.48519e-07
1.54771e-07
5.59586e-08
-5.30439e-08
-1.57686e-07
1.37607e-08
-1.22431e-07
1.31299e-07
-7.47015e-08
-6.87828e-08
1.3698e-07
6.50385e-09
-4.23526e-08
-1.01284e-07
1.62573e-09
6.48024e-08
-6.54363e-09
1.2385e-07
-4.26225e-10
-1.64928e-10
2.10268e-08
-8.13073e-08
8.69183e-08
1.70748e-10
1.86446e-10
-1.28847e-07
-1.14326e-09
8.6956e-08
-8.51639e-08
1.10372e-08
-7.96594e-08
1.36085e-07
-6.74627e-08
-2.62582e-08
-1.27639e-07
1.07393e-09
1.52824e-07
8.77484e-08
-1.69153e-07
6.64043e-08
1.50007e-08
-1.17446e-07
8.58628e-08
-9.26861e-08
9.60282e-08
-4.75029e-10
-9.51265e-08
-4.26661e-10
-4.35462e-08
-1.23138e-07
4.4015e-08
1.22669e-07
-6.97241e-08
-1.16193e-07
1.42216e-07
4.3701e-08
-2.87225e-09
-1.3635e-07
1.36809e-07
2.41339e-09
-1.1941e-07
1.19394e-07
-1.40197e-09
-1.36082e-07
1.20201e-07
-6.06648e-08
1.30195e-07
6.77413e-08
-5.57299e-09
7.27676e-08
-1.30872e-07
-6.06103e-08
-1.20603e-07
8.28472e-08
-9.67407e-08
-1.31495e-08
1.34062e-07
-8.29178e-08
-3.34074e-08
1.15311e-07
-1.13346e-07
-3.14971e-09
1.18458e-09
-9.28578e-08
-2.29896e-09
3.83242e-09
2.08859e-10
-1.42757e-07
1.39676e-07
-8.68237e-08
-5.36704e-10
8.18695e-10
-8.79738e-08
7.39795e-08
1.44111e-08
-4.16794e-10
-5.26404e-08
-1.2626e-07
1.69747e-07
9.15306e-09
1.10254e-07
-5.56364e-10
5.43421e-08
4.57113e-08
-1.09141e-07
9.08713e-09
-1.04829e-07
-4.53712e-10
1.05105e-07
1.78072e-10
-1.01678e-07
1.42563e-08
-2.33825e-08
6.00008e-08
-1.16458e-07
4.90998e-08
7.3572e-09
-4.44317e-09
-8.97714e-08
4.34266e-09
1.38085e-09
-1.27172e-07
1.89404e-09
5.13801e-08
7.07445e-08
-1.37695e-07
2.04868e-08
1.059e-07
1.94318e-08
1.22112e-07
-1.22625e-07
6.81772e-10
-1.69125e-10
-1.95616e-07
1.84552e-07
8.19399e-08
-7.08756e-08
5.36654e-08
-1.38843e-07
1.06501e-07
-2.13236e-08
7.08916e-08
-6.42012e-09
-6.62785e-10
1.33834e-10
5.54028e-08
-5.86053e-08
-1.10393e-07
1.55923e-07
-1.28548e-07
1.07876e-07
-1.45149e-08
5.66741e-10
-1.42995e-07
1.42586e-07
1.22767e-07
-1.49724e-07
-1.23044e-09
-8.2879e-08
-7.90659e-08
1.5568e-07
6.26517e-09
9.06557e-08
-2.24272e-12
-9.06286e-08
-2.48066e-11
-1.40446e-07
7.51796e-08
6.99633e-08
-4.69722e-09
-1.89433e-07
1.17227e-07
-1.31188e-07
2.03394e-07
-1.82331e-07
2.43516e-08
-4.36072e-08
-1.07124e-07
-1.55281e-07
9.47695e-08
3.60122e-08
-1.3705e-08
-1.21863e-07
1.32899e-07
2.66851e-09
-3.04157e-09
-1.05931e-07
-9.05732e-09
1.16222e-07
-9.98646e-08
1.05732e-07
-3.07094e-08
1.60891e-07
7.79888e-08
1.66861e-07
-1.21893e-07
-1.16125e-07
5.19137e-10
1.14187e-07
-1.14715e-07
8.7297e-12
9.79671e-08
-1.06244e-07
3.83353e-09
-7.65042e-08
-6.98973e-10
6.61128e-08
1.00077e-07
-4.23399e-08
6.15569e-08
-1.17667e-07
-4.55433e-09
-9.05641e-11
1.11021e-07
-1.1097e-07
3.9322e-11
-1.15013e-07
-1.8436e-10
1.15887e-07
-6.8901e-10
-1.16444e-07
4.23546e-08
-3.20535e-08
-1.13443e-08
9.48061e-08
7.66478e-08
-1.01266e-09
-1.70441e-07
2.54368e-09
-1.60408e-10
-1.66174e-08
7.88988e-08
-1.41391e-07
7.91098e-08
-1.22256e-07
1.23992e-07
6.39358e-08
-6.16547e-09
2.60196e-08
-1.27047e-07
-3.5862e-08
1.36889e-07
4.06468e-08
1.18417e-08
3.49744e-08
-8.74629e-08
6.75191e-08
7.32383e-08
-1.34581e-07
-6.17605e-09
-1.01451e-07
9.97529e-08
1.79506e-09
-9.70312e-11
-6.63474e-08
7.30143e-09
5.43332e-08
-5.22754e-08
1.21656e-07
-1.23714e-07
-1.01603e-07
2.13865e-07
-4.43162e-08
-6.79455e-08
8.34364e-08
-7.09163e-08
-7.26698e-08
6.01497e-08
6.64101e-08
-5.45897e-08
-1.33959e-07
5.18531e-08
9.05662e-09
5.65795e-08
7.78911e-08
7.35464e-08
7.50549e-08
-1.42251e-07
-6.34991e-09
1.31467e-07
7.83704e-09
-5.89416e-09
-1.3341e-07
1.00701e-07
8.64205e-10
-2.77165e-10
9.49863e-08
-9.6524e-08
2.15294e-09
-6.15193e-10
-6.44375e-08
-7.61934e-08
1.33436e-07
7.19457e-09
-1.18359e-07
1.50121e-09
4.13559e-10
-1.05122e-07
7.54504e-11
2.17588e-10
1.10239e-08
1.20208e-07
1.09439e-07
1.88123e-09
-1.06642e-09
3.07823e-11
-1.00908e-07
1.00423e-07
9.56939e-08
1.70234e-08
2.59365e-09
-1.11534e-08
3.52569e-08
-1.17556e-07
9.34525e-08
1.23094e-07
-1.22882e-07
-1.13687e-11
-2.00317e-10
-2.90065e-08
-1.15496e-07
1.68854e-07
-1.17027e-07
-1.89993e-08
1.40723e-07
-4.69636e-09
1.50812e-07
-1.28293e-07
-2.22878e-08
-1.97566e-08
1.25481e-07
1.23858e-07
-1.24527e-07
3.69204e-10
2.99311e-10
1.47594e-07
-4.52707e-08
-1.45278e-07
4.29545e-08
1.21455e-07
-1.21683e-07
1.44328e-07
-1.44101e-07
8.72325e-09
-1.20275e-08
-9.64962e-08
9.98005e-08
2.64153e-08
-1.00698e-07
-4.27639e-08
1.17047e-07
8.45964e-08
7.73405e-08
-1.55195e-07
-6.74206e-09
1.99756e-07
-2.10704e-07
-5.51085e-08
-1.58522e-07
1.01265e-07
-1.27792e-08
1.22147e-08
-1.81556e-07
1.57444e-07
-8.37359e-08
1.30345e-07
-2.21834e-07
1.75226e-07
7.88147e-08
-1.56359e-07
-6.19123e-09
2.00927e-08
8.78053e-08
-1.51607e-08
-9.27372e-08
-1.36704e-09
1.29288e-07
-1.40152e-08
-1.11558e-07
-5.78228e-08
1.50759e-07
-1.05262e-07
1.23264e-08
-2.71175e-08
7.8507e-08
-4.39309e-08
-7.45856e-09
3.14673e-10
-9.85164e-08
9.85558e-08
-3.54104e-10
2.62567e-09
1.22339e-07
-1.2384e-07
-1.12463e-09
-9.33202e-08
-1.23425e-07
1.3593e-07
8.60094e-08
-4.29829e-09
1.03082e-07
1.78979e-09
-4.67611e-08
-4.3323e-08
1.24338e-07
-2.2966e-07
4.62257e-08
-1.49665e-07
1.18168e-07
-7.01063e-08
1.20637e-07
-1.17593e-07
-4.18503e-10
-9.56689e-08
1.56825e-09
-2.32611e-09
9.64268e-08
6.05263e-08
-1.85442e-07
-1.43722e-07
-1.86663e-10
1.24587e-07
-1.2425e-07
-1.50714e-10
-1.07372e-07
-3.7833e-08
1.37678e-07
5.54425e-09
-8.91639e-09
1.08501e-07
-9.71345e-08
-1.09243e-08
1.41103e-07
-1.15488e-07
4.6709e-10
7.43344e-12
6.26897e-08
-1.50448e-07
8.16502e-08
6.1083e-09
-1.46206e-09
-1.08757e-07
-1.54906e-09
1.2566e-07
5.79508e-09
-1.03666e-07
5.27077e-08
4.90825e-08
1.87575e-09
-1.03779e-07
2.86441e-08
1.41545e-07
2.89495e-10
1.33328e-07
-6.70747e-10
-1.32947e-07
6.38502e-09
1.1788e-07
-2.5154e-08
-9.91108e-08
1.40354e-07
-1.59478e-07
8.30783e-08
-6.39545e-08
4.52551e-08
1.13784e-07
-5.58065e-08
-6.59703e-09
8.17637e-08
8.45513e-08
-1.53751e-07
-1.41472e-08
-6.27838e-09
1.06472e-07
-1.28389e-07
1.14309e-07
2.32711e-10
-1.14752e-07
2.10815e-10
7.00397e-09
9.82593e-08
-4.02116e-09
7.69393e-08
-1.91527e-07
3.05606e-08
-1.29693e-07
2.46035e-09
-7.33266e-08
-6.28255e-08
1.2952e-07
6.63254e-09
-1.05646e-07
-4.89202e-08
3.32632e-08
1.21304e-07
-1.17086e-07
-6.17058e-10
-6.56345e-10
-6.83122e-08
1.4462e-07
-8.21077e-08
5.8003e-09
7.39545e-08
-1.46244e-07
7.5391e-08
-3.10174e-09
-1.10992e-07
-2.81889e-10
1.00911e-07
-1.03509e-07
4.52198e-09
-1.92407e-09
1.48388e-07
-8.31239e-08
8.69025e-09
-1.1344e-07
1.90177e-08
-1.89239e-08
5.7938e-08
-9.57062e-08
-2.15008e-08
1.23054e-07
-1.22253e-07
-2.33534e-10
6.73159e-08
5.97606e-08
-6.01062e-08
-6.69702e-08
7.79675e-08
1.45049e-07
-1.56376e-07
7.75342e-08
6.66142e-08
-1.39325e-07
-4.82342e-09
-1.14935e-07
6.06264e-08
4.68079e-08
7.50117e-09
1.63679e-10
1.23552e-07
1.42323e-10
7.84219e-08
7.33618e-08
-1.45999e-07
-5.78524e-09
1.03307e-07
1.15134e-07
-9.44939e-09
-1.02137e-07
-3.54763e-09
9.40186e-08
5.91333e-11
1.43965e-07
-1.45717e-07
-7.92022e-08
8.09549e-08
4.90859e-08
5.86332e-08
7.41486e-09
-6.31943e-09
-1.79878e-07
1.82773e-08
1.01435e-07
-3.6083e-09
6.10408e-09
1.48775e-07
1.27758e-07
-2.16533e-07
-1.20368e-07
1.0829e-09
-1.44416e-09
1.2073e-07
5.8172e-10
9.82251e-08
-9.87062e-08
-1.00667e-10
-7.78521e-08
1.76927e-07
-1.73777e-07
5.13781e-08
1.20392e-07
-6.39943e-08
-1.07776e-07
4.54037e-08
5.80553e-08
-1.10775e-07
7.31558e-09
1.46007e-07
-1.07573e-08
2.04304e-08
-1.31558e-07
-5.67429e-09
3.82686e-08
-1.28942e-07
-1.88995e-08
-9.2239e-08
-1.09768e-07
1.03855e-07
1.98602e-08
-5.0052e-09
-1.98535e-08
9.54905e-08
2.82181e-08
8.17147e-08
-7.65512e-08
-2.32792e-09
1.23261e-07
3.1366e-09
1.3012e-10
4.07551e-10
-2.13271e-07
-1.53421e-08
-2.11582e-10
1.54027e-07
1.48686e-08
-1.61421e-07
-1.26886e-08
2.6618e-07
-1.17566e-07
-1.35926e-07
-1.63509e-07
1.32838e-07
1.11754e-07
-1.41303e-07
-6.64238e-08
7.23305e-08
-7.41085e-08
6.82017e-08
1.16234e-07
-1.19865e-07
-3.62902e-09
7.26014e-09
-3.72243e-09
-6.24103e-08
7.71567e-08
-1.78256e-07
-7.81053e-08
6.34586e-08
2.32102e-08
-1.18043e-07
2.5316e-07
-4.06949e-08
-9.6795e-08
-1.29583e-08
-7.52534e-08
1.51211e-07
2.01024e-09
-3.23392e-08
-6.93204e-08
8.73832e-08
1.42764e-08
3.83759e-08
-1.72522e-07
7.83843e-08
5.57617e-08
-1.05151e-07
1.04969e-07
-4.62305e-11
2.28676e-10
9.07449e-08
-2.69243e-10
1.32293e-08
1.22286e-07
1.109e-07
-7.07468e-09
-8.22774e-08
-1.51998e-07
1.81964e-08
8.0399e-10
1.33625e-07
-8.54582e-08
1.30369e-07
-4.16169e-08
-5.95358e-09
3.01031e-09
1.23209e-07
-2.95808e-09
1.01949e-07
3.81561e-08
-1.49701e-07
-2.89008e-08
-1.21609e-07
-1.05308e-07
-8.24937e-08
4.24046e-08
-1.10795e-08
1.06774e-07
-8.27919e-09
-9.17361e-08
-1.05223e-07
-3.24178e-09
9.24537e-08
-1.18586e-07
9.69624e-08
-6.08651e-10
-9.57995e-08
-5.54227e-10
-2.50464e-08
-1.4455e-07
-1.7267e-07
1.7222e-07
1.11838e-07
-4.69476e-08
1.1703e-08
-7.65931e-08
1.10543e-07
-5.54321e-10
-1.09914e-07
-7.40095e-11
9.87471e-10
1.00422e-07
-1.01644e-07
2.33915e-10
2.821e-08
1.16824e-07
-3.55951e-08
-7.65722e-08
-8.02233e-08
1.05516e-08
7.49507e-09
1.06551e-07
-1.10011e-07
-4.03448e-09
-1.21093e-07
1.3105e-07
-2.46122e-09
-1.30626e-07
-3.12694e-09
-1.4384e-07
1.45693e-07
-5.42994e-08
-8.22624e-08
1.42626e-07
-6.06385e-09
1.04428e-07
-1.47631e-08
6.36887e-10
-1.57116e-10
4.48605e-08
1.1483e-08
-4.43387e-10
-4.72376e-10
7.33161e-08
8.02234e-08
-5.94536e-09
-3.24864e-08
9.69519e-08
7.56813e-08
-2.71376e-07
-9.73589e-08
2.3729e-07
1.30799e-07
1.24078e-07
-5.27483e-08
-7.8746e-08
6.43858e-09
-5.0799e-10
-1.21781e-07
-3.3651e-10
5.30106e-08
6.1678e-08
-1.13562e-07
-1.12668e-09
-1.11263e-07
1.11135e-07
1.16379e-10
1.24202e-11
1.02354e-07
3.10333e-08
-1.31448e-08
1.53409e-09
1.87334e-07
-4.31667e-09
-5.1511e-08
-7.93343e-08
-3.1136e-09
-9.49184e-08
-2.2063e-08
7.26416e-10
1.03166e-07
-1.03028e-07
7.53774e-08
-1.83695e-07
1.03921e-07
-9.9519e-10
-5.71748e-10
6.8256e-08
6.27765e-08
-1.27383e-07
-3.64998e-09
-1.56423e-07
7.83567e-08
-2.1893e-08
-2.5449e-08
-3.46967e-08
1.21224e-07
-6.10779e-08
-2.80878e-08
6.8819e-08
2.92322e-08
-1.34315e-07
-8.63627e-08
9.05631e-08
1.30115e-07
7.40511e-08
-5.89669e-09
6.30585e-08
1.24482e-07
-5.16672e-08
-1.35873e-07
-3.53968e-09
1.11195e-07
1.43041e-08
-1.2196e-07
1.05986e-07
-9.0293e-08
-1.95806e-08
3.88798e-09
1.36159e-07
-1.82177e-07
1.68358e-07
1.3702e-07
-6.66611e-08
-6.38201e-08
-6.53885e-09
4.03449e-08
-1.62271e-07
-1.14952e-07
-1.16834e-07
-9.27847e-11
-1.79616e-07
1.51643e-07
-1.56604e-07
1.84577e-07
8.21435e-08
-1.43182e-07
-2.58373e-08
1.15438e-07
-1.145e-07
-4.71191e-10
-4.66732e-10
5.78527e-08
-1.14736e-07
-5.52682e-09
-6.11321e-09
8.32733e-08
-1.72095e-07
7.252e-08
-1.30099e-07
-7.19046e-11
3.11924e-10
1.29859e-07
-1.65675e-07
1.30202e-07
-9.19273e-08
-8.1277e-08
-2.90077e-08
-6.986e-09
5.73236e-08
6.7049e-08
-6.20466e-09
-5.10713e-08
-5.8272e-08
-5.59215e-09
-3.5379e-09
-9.82941e-08
-9.70342e-08
-9.88134e-10
-5.64366e-09
6.72119e-08
-6.67552e-08
5.6218e-10
-1.01882e-09
1.03175e-07
-1.01279e-07
-1.25725e-09
-6.38873e-10
-1.14562e-09
1.22526e-07
-1.21196e-07
-1.83736e-10
-1.27304e-07
1.33906e-08
1.08111e-07
5.80212e-09
1.21778e-07
-1.15729e-07
-4.15369e-09
-1.89596e-09
-1.03346e-07
-1.05751e-09
1.05032e-07
-6.28334e-10
-9.96011e-08
-6.06988e-08
9.2247e-08
3.24549e-08
-9.12454e-09
-1.15577e-07
7.3024e-08
-7.73658e-08
3.5297e-09
8.12081e-10
4.3065e-08
3.57703e-08
-1.22381e-07
1.04979e-07
-1.0222e-07
-7.02948e-09
4.26981e-09
-4.86905e-08
4.94082e-08
1.45842e-07
4.86149e-09
1.22254e-07
-9.15539e-08
1.16541e-08
-2.65601e-08
-1.09941e-08
-9.67608e-08
-3.19857e-08
1.86442e-07
5.85849e-09
-1.61084e-07
1.24342e-07
-3.19574e-08
-1.85419e-08
2.04869e-08
-7.63041e-08
5.54184e-09
-1.19544e-07
1.19451e-07
5.62106e-08
-6.74633e-08
-2.8852e-08
7.46297e-08
2.319e-09
6.25426e-08
5.5411e-08
-7.73068e-08
-7.92676e-08
1.0936e-07
-1.21649e-08
-6.73304e-08
5.638e-09
8.96352e-08
1.0909e-08
2.13719e-08
2.32513e-08
-1.01321e-08
4.93713e-08
5.75033e-08
6.90891e-09
-4.67111e-08
1.53092e-07
-1.59021e-07
-1.65862e-07
8.27306e-08
2.1012e-07
-1.41531e-07
1.01366e-07
-3.04292e-08
5.8287e-08
-1.29224e-07
-1.18672e-07
-4.09613e-08
-1.38098e-07
-5.46792e-09
-9.67835e-08
7.68648e-08
-8.44549e-08
1.04374e-07
7.87505e-09
-1.13559e-07
-1.34555e-07
-7.09551e-09
-4.06685e-09
-1.21821e-07
1.10165e-07
1.17642e-07
1.86364e-08
9.88255e-08
2.02268e-09
-1.26899e-07
1.17325e-07
-8.11692e-08
9.07428e-08
-9.8098e-08
1.25846e-08
-1.96089e-08
-3.33114e-08
-3.71165e-08
1.28643e-07
-4.80838e-08
-1.07621e-07
-4.09407e-08
1.20939e-08
-6.80201e-08
-8.14968e-08
7.51236e-09
-6.65335e-08
7.64635e-08
7.65248e-08
2.226e-08
4.06207e-08
-1.39405e-07
8.47036e-08
-7.24667e-09
-6.53215e-08
-5.07774e-09
-7.69447e-08
-8.53521e-08
5.87339e-09
6.0207e-08
-6.93613e-08
-4.63296e-08
5.54838e-08
-4.7838e-08
-8.41278e-09
1.39374e-07
-1.75999e-07
3.70672e-08
-4.42078e-10
-7.65421e-09
2.57258e-08
7.54631e-08
-9.35346e-08
4.71613e-10
-8.94762e-08
-6.75363e-10
8.96799e-08
-9.66769e-08
9.64156e-08
1.5122e-10
1.10108e-10
1.24076e-07
-6.86215e-08
-1.25887e-07
-5.88957e-08
-3.65848e-08
9.71051e-08
-1.62458e-09
1.46671e-07
1.10784e-08
-1.10287e-07
5.40784e-09
-1.32526e-07
1.63554e-08
-4.44855e-10
-1.74297e-07
-1.10056e-07
1.10326e-07
-3.41658e-10
5.58885e-08
9.61211e-08
-1.37451e-07
-1.21348e-08
-1.49094e-08
2.21069e-07
-5.41706e-10
-1.20408e-07
-2.94154e-09
9.38176e-08
-9.27995e-08
-1.84338e-11
-5.82834e-09
1.49938e-08
2.51049e-08
1.16258e-07
-1.94267e-08
1.11097e-07
-9.00489e-09
-3.16645e-09
1.21776e-07
-1.17163e-07
-1.44649e-09
-1.0168e-07
1.11837e-07
-5.99516e-09
1.15817e-07
5.12677e-09
-3.01875e-08
-9.07566e-08
1.12759e-07
1.52555e-09
-1.12252e-07
-2.03248e-09
-6.77768e-08
-5.11785e-08
6.74443e-08
8.56861e-08
1.61851e-09
1.49858e-07
1.85377e-08
-3.422e-08
-1.39185e-08
3.62643e-09
-7.43305e-08
1.17044e-07