/*--------------------------------*- C++ -*----------------------------------*\
| =========                 |                                                 |
| \\      /  F ield         | OpenFOAM: The Open Source CFD Toolbox           |
|  \\    /   O peration     | Version:  2212                                  |
|   \\  /    A nd           | Website:  www.openfoam.com                      |
|    \\/     M anipulation  |                                                 |
\*---------------------------------------------------------------------------*/
FoamFile
{
    version     2.0;
    format      ascii;
    arch        "LSB;label=32;scalar=64";
    class       volVectorField;
    location    "0.014";
    object      U;
}
// * * * * * * * * * * * * * * * * * * * * * * * * * * * * * * * * * * * * * //

dimensions      [0 1 -1 0 0 0 0];

internalField   nonuniform List<vector> 
31639
(
(0.114753 0.000691493 -0.000525818)
(0.113302 -0.000258132 0.000146215)
(0.114282 -0.000195757 0.000505168)
(0.115974 0.000140422 4.48108e-05)
(0.113519 -0.000554664 -0.000149232)
(0.113658 0.000151343 -0.000140401)
(0.111972 4.92773e-05 -0.000338711)
(0.114096 -0.000118627 -0.000130618)
(0.114154 0.000161916 -0.000151453)
(0.115267 -0.000199843 -0.000341533)
(0.115483 0.000383962 -0.000213565)
(0.115064 -0.000387031 -0.000535203)
(0.113734 -0.00017796 1.94555e-05)
(0.114932 6.96672e-05 1.93438e-05)
(0.112772 -0.000359934 2.68442e-05)
(0.112122 -0.00019866 0.000519181)
(0.1137 0.000178802 -5.47717e-05)
(0.111975 1.36861e-06 0.00020649)
(0.112393 0.000178654 -0.000349913)
(0.11392 -3.52197e-05 -0.000146584)
(0.108989 -0.000202771 -0.00019638)
(0.115078 -5.54405e-05 -0.000247926)
(0.115124 0.000464177 -2.35087e-05)
(0.112695 0.00019844 -0.000154596)
(0.111636 -9.41797e-05 -0.000141493)
(0.114131 9.4524e-05 -5.48516e-05)
(0.113959 3.52544e-06 1.83282e-05)
(0.116987 0.000263027 -3.02626e-05)
(0.112199 0.000323756 0.000601996)
(0.114798 0.000136499 0.000403397)
(0.115408 -7.93987e-05 -8.54533e-05)
(0.111851 -9.7808e-05 -0.000136083)
(0.115362 0.000293667 -0.000446343)
(0.112512 -1.38239e-05 -0.000180437)
(0.110049 -0.000120951 1.47126e-05)
(0.115283 0.000459236 -0.00011058)
(0.108053 -0.00015077 1.42368e-06)
(0.115787 -0.000280091 0.000249435)
(0.115323 -0.000126592 0.00014063)
(0.108112 8.0934e-05 -9.13072e-05)
(0.110711 -4.85431e-05 -0.000201582)
(0.109563 -0.00018711 0.000144713)
(0.114999 0.000138189 -2.69627e-05)
(0.115554 -0.000607149 -0.000616444)
(0.11455 -0.000370624 0.000525065)
(0.115929 -0.000556069 -0.00031013)
(0.112179 0.000296922 -0.000128012)
(0.113088 0.000441703 -0.000337189)
(0.113535 3.79697e-05 0.000200395)
(0.115616 -0.000317735 -0.000153326)
(0.115731 -1.93799e-06 -0.000224215)
(0.10893 0.000245679 -0.000115882)
(0.115456 0.000293671 0.000100995)
(0.108316 -7.70738e-05 0.000145858)
(0.113468 -0.000143608 -0.000183024)
(0.11328 8.95889e-05 4.03421e-05)
(0.109583 8.85576e-05 -0.00043396)
(0.11386 0.00013309 0.000337295)
(0.113703 -2.30566e-05 0.000353926)
(0.109969 0.000120444 -0.000147169)
(0.114129 1.43831e-05 -0.000212962)
(0.114584 0.000320697 -0.000239987)
(0.111604 -0.000127111 -0.00027766)
(0.113764 7.79165e-05 -0.000108061)
(0.11407 0.000220391 3.73256e-05)
(0.115854 -2.23043e-05 -0.00044489)
(0.113705 0.000130046 -0.000757817)
(0.113735 -0.000130742 1.6679e-05)
(0.110712 -1.60014e-05 -0.000139702)
(0.115712 0.000351101 -0.000187936)
(0.115185 -4.2265e-05 -7.72867e-05)
(0.112019 -8.90478e-05 -0.000760931)
(0.115263 -0.000308476 -0.000533093)
(0.114035 -3.19688e-05 -0.00018652)
(0.114514 0.000147101 -6.90488e-05)
(0.108859 6.26944e-05 -0.000476425)
(0.11569 -0.0005842 0.000231595)
(0.112931 0.000278038 -0.000365193)
(0.113467 -0.00012939 0.000308914)
(0.114639 0.000177651 -2.86932e-05)
(0.111777 0.000138034 0.000113199)
(0.107132 5.58255e-05 8.78764e-05)
(0.115489 -6.61762e-05 -6.15012e-05)
(0.114461 -0.00017857 -0.000157556)
(0.114209 -3.19655e-05 -0.000101382)
(0.115534 -0.000313375 -0.00024255)
(0.115848 -3.11939e-07 9.43448e-05)
(0.115799 -1.87562e-05 -0.000199651)
(0.109595 0.000802876 -0.0011159)
(0.115279 -4.94812e-05 -0.000356508)
(0.114331 -7.32315e-05 0.000144174)
(0.112882 -0.000300857 -0.000159097)
(0.110185 -0.000284237 -0.000277179)
(0.113094 0.000349381 -0.000464075)
(0.111648 -0.000605983 -0.000282799)
(0.112862 0.000812671 0.000147683)
(0.113677 0.000294331 -0.000307478)
(0.11398 -8.97943e-05 0.000286475)
(0.113845 9.79396e-05 3.25724e-05)
(0.109738 -0.000549356 -0.00017246)
(0.114348 6.57311e-05 -7.9514e-05)
(0.114418 0.000277068 0.000445047)
(0.112891 -0.000135702 -0.000152149)
(0.108778 1.67221e-05 -0.000137828)
(0.109861 8.11989e-05 -0.00032975)
(0.11604 -0.00037998 -0.000261564)
(0.108656 0.000396521 -0.000329864)
(0.109231 -0.000387961 -0.000608196)
(0.111128 0.000408365 8.60331e-05)
(0.108377 2.31248e-06 0.000293428)
(0.114926 -0.000578716 0.000106925)
(0.110162 2.6651e-05 -0.000208244)
(0.113512 -0.000168719 -0.000298125)
(0.112429 -0.000399368 -0.000435976)
(0.114176 0.000114561 -0.000467311)
(0.109078 -0.000286707 0.000162466)
(0.112674 0.000293792 -0.000115967)
(0.112274 -0.000420336 -2.5871e-06)
(0.114279 -7.07293e-05 -2.35723e-05)
(0.113527 -0.000127276 0.000132393)
(0.113881 -0.000422969 -1.6218e-05)
(0.115227 -0.000388385 0.000333608)
(0.115546 0.000143197 -0.000408136)
(0.114117 0.000324105 -0.000589018)
(0.113997 2.74388e-05 -0.000621338)
(0.114926 -0.000178141 -1.2146e-06)
(0.1136 6.33505e-05 0.000273879)
(0.11162 0.000270768 -0.000116469)
(0.111545 -0.000451456 -0.000159197)
(0.115212 -0.000169338 9.03994e-05)
(0.114992 -5.39126e-05 -0.00014482)
(0.115279 0.000209239 -0.00029964)
(0.115008 -0.000200116 4.19413e-05)
(0.11337 -8.29363e-06 5.7034e-05)
(0.114915 1.33993e-06 -0.000144721)
(0.114129 1.52522e-05 -7.00067e-06)
(0.109863 -5.47089e-05 -0.000249414)
(0.109359 -0.000637848 -0.000302291)
(0.115572 0.000450983 0.000416662)
(0.11393 -0.000248006 -0.000203814)
(0.113796 -3.17842e-05 -0.000116471)
(0.115756 9.78495e-05 0.000768519)
(0.115352 0.000348469 9.24009e-05)
(0.108819 -0.000148991 -0.000264989)
(0.10918 -0.000159458 -0.000557933)
(0.114801 -0.0001426 8.37752e-06)
(0.114864 -0.000232188 -0.000246845)
(0.109583 -8.72847e-05 -0.000289462)
(0.110152 -3.15572e-05 5.66138e-05)
(0.114921 -0.000168554 -0.000192755)
(0.111647 -2.77143e-05 -0.000721098)
(0.113248 0.000143194 2.85821e-05)
(0.112921 -9.36132e-05 -0.000581553)
(0.114678 -8.92491e-05 -0.000114282)
(0.110179 0.000567604 -0.000746499)
(0.115885 -1.32302e-05 0.000101675)
(0.114146 -0.000105708 -0.000166966)
(0.111013 -0.000897391 6.93409e-05)
(0.110127 -0.000620907 0.00071327)
(0.11242 -0.0002628 -0.000222405)
(0.115768 -4.27432e-05 -0.000353416)
(0.109074 0.000198913 0.000145468)
(0.110451 -3.367e-05 -0.000759957)
(0.109453 -0.00020995 7.91583e-05)
(0.109403 -0.000824542 0.000205044)
(0.112689 5.12482e-05 5.13427e-05)
(0.109462 0.000441972 0.000137266)
(0.115285 -0.000503673 0.000132575)
(0.115611 -0.000361083 9.81373e-05)
(0.109299 0.000126916 -0.000467959)
(0.111288 -0.000273168 0.000240228)
(0.113322 0.00036536 -0.000545303)
(0.109954 -8.3119e-05 -8.10319e-05)
(0.114111 -0.000112902 0.00031469)
(0.115822 -0.000191739 -0.000292659)
(0.114629 -0.000467293 -0.000233433)
(0.114051 0.000489455 3.76809e-05)
(0.115068 0.000191084 0.000234748)
(0.11434 -0.000310987 -4.01019e-05)
(0.113481 -0.000156403 -0.000286611)
(0.113866 7.2334e-05 -0.00013055)
(0.11294 -0.000462246 0.000580397)
(0.113074 0.000260423 0.000135716)
(0.108305 0.000892654 -0.000250298)
(0.113736 1.36708e-05 0.000377264)
(0.115271 0.000542458 -0.00040654)
(0.112863 -0.000113395 0.000289638)
(0.114921 0.000193724 -4.02795e-05)
(0.110081 -0.000203553 2.59783e-05)
(0.108749 -0.000107366 0.0002841)
(0.115526 -2.9653e-05 -0.00026363)
(0.114889 -0.000171686 4.16883e-05)
(0.113517 -0.000284564 0.000518517)
(0.113708 -2.067e-05 0.00019997)
(0.114116 1.56119e-05 -9.33877e-05)
(0.113146 1.72264e-05 -0.000255937)
(0.112849 0.000532972 0.000359216)
(0.115223 0.000216608 -0.000137463)
(0.109737 2.82185e-05 -0.000161257)
(0.112662 0.000304141 -0.00020397)
(0.115553 7.9998e-05 -1.05595e-05)
(0.11523 -0.000174109 -0.000130987)
(0.114637 -0.000363169 -3.21748e-05)
(0.114294 -0.000914137 -0.000136533)
(0.11344 -0.000378729 -0.000192465)
(0.113472 -7.15538e-05 -0.000224615)
(0.113873 -0.000125165 -0.000161682)
(0.113388 0.000251892 -0.000226961)
(0.114825 -3.33385e-05 -0.000294378)
(0.108855 -0.000100386 -0.000115618)
(0.113886 2.06124e-05 -0.00016333)
(0.112826 0.000440211 -0.000118275)
(0.113921 -5.68781e-06 -0.000314015)
(0.11477 3.57093e-05 -0.000357477)
(0.114287 -0.000297852 -0.000333128)
(0.11525 -9.09532e-05 -0.000176801)
(0.110286 -0.000848193 -0.000230466)
(0.111694 -0.000246766 0.000209662)
(0.114852 -0.000238152 -0.000274289)
(0.115676 -0.000191872 0.000192624)
(0.115104 2.13289e-05 0.000128026)
(0.11309 -0.000248405 -0.000437205)
(0.107933 -1.99155e-05 0.000654611)
(0.113724 -0.000581775 0.000364292)
(0.10928 -0.000205429 -0.00022425)
(0.112025 0.000182493 -4.37802e-05)
(0.114907 -0.000319705 0.00032871)
(0.111818 0.000383956 0.000410987)
(0.109221 0.000282743 -0.00016575)
(0.113699 0.000101212 9.90141e-05)
(0.11444 0.000175259 -0.000171221)
(0.115517 -0.000144636 -8.31581e-05)
(0.109605 -2.33044e-05 -0.000116424)
(0.108677 -0.000308975 0.000107322)
(0.114026 -0.00023215 0.000158121)
(0.114928 6.5839e-05 -0.000435355)
(0.109743 6.31085e-05 0.000363925)
(0.115251 -0.000694096 0.000186625)
(0.111276 6.53476e-05 -0.000333246)
(0.109929 -0.000186829 0.000130364)
(0.113711 0.000153771 -0.000121109)
(0.114345 -0.000148726 -4.65826e-05)
(0.11295 -0.000601973 9.2957e-05)
(0.111375 0.000294979 0.000692939)
(0.111782 0.000116708 0.000174174)
(0.113404 -8.8804e-05 -8.5723e-05)
(0.113514 0.000434355 -0.000164137)
(0.112353 9.39684e-05 -0.00051205)
(0.109425 -0.000368411 0.000366858)
(0.113692 0.000185596 -0.000240831)
(0.113714 -7.85777e-06 -0.000207116)
(0.110662 -0.000163371 -8.24615e-05)
(0.111824 -0.000688608 2.5505e-05)
(0.11513 -1.12974e-05 -4.82123e-05)
(0.115496 0.000437996 2.3512e-05)
(0.113246 0.000550434 -0.00013846)
(0.110032 7.93275e-06 -8.8855e-06)
(0.115372 0.00023051 -0.000209874)
(0.114653 0.000267054 -0.000474658)
(0.112835 -0.00025625 -0.000397448)
(0.115934 0.000264348 0.0005989)
(0.115796 0.000153545 -0.000240798)
(0.114396 0.000135911 -0.000402718)
(0.115467 0.000113805 7.05767e-05)
(0.113187 0.000268747 5.94073e-05)
(0.112974 -0.000215922 -0.000542834)
(0.108801 0.000322419 -0.00118543)
(0.111908 -0.000164148 -0.000186035)
(0.115273 -0.000488811 7.32728e-05)
(0.112793 -1.78358e-05 0.00033453)
(0.114502 0.000231275 6.02341e-05)
(0.112919 0.000402762 -0.000418274)
(0.113513 -0.000195448 8.5598e-05)
(0.114086 0.000345645 0.000212341)
(0.115757 0.000214845 -0.000376648)
(0.114115 0.000453612 0.000211263)
(0.109369 6.388e-05 1.94976e-05)
(0.1127 2.65682e-05 -5.38955e-06)
(0.110836 0.00104506 -0.000245944)
(0.115745 -5.94664e-05 -0.00057498)
(0.112769 -0.000462497 -0.000217911)
(0.114704 -4.74302e-05 -0.000424836)
(0.113986 -1.19252e-06 -0.000308023)
(0.111743 -2.35703e-05 -0.000424808)
(0.109365 3.30225e-05 -3.70028e-05)
(0.110261 0.000160795 -0.000442316)
(0.110109 0.000142491 4.52455e-05)
(0.108925 -0.000154654 7.63415e-05)
(0.115887 -0.000320438 -0.000163834)
(0.109909 -0.000294227 -0.000462485)
(0.114227 -0.000210236 0.000227132)
(0.114299 0.000380236 -7.9702e-05)
(0.112487 -4.78119e-05 -0.000127889)
(0.110509 -2.47221e-05 -4.79568e-05)
(0.115254 -0.000616734 0.000181168)
(0.112757 7.89192e-05 -0.000595053)
(0.111155 0.000112868 0.0003943)
(0.115052 0.000257434 -0.000263612)
(0.113668 -0.000176027 -9.53988e-05)
(0.110162 0.000284247 0.000249163)
(0.113147 4.64308e-05 -0.00015645)
(0.110052 0.00016958 2.25028e-05)
(0.114041 0.000340861 -0.000140806)
(0.113547 0.000145004 -8.81065e-05)
(0.110271 0.000241184 0.000559901)
(0.113027 1.64543e-05 -0.000238905)
(0.112975 0.000606005 0.000219414)
(0.107817 0.000112874 -0.00087074)
(0.108201 0.000347674 0.000300774)
(0.114831 -0.000434492 0.000177088)
(0.115489 0.000156881 -2.20859e-05)
(0.115766 3.63383e-05 -8.85877e-05)
(0.109204 0.000116443 2.05547e-05)
(0.110208 5.10182e-05 0.000287334)
(0.115322 0.000194713 0.000206887)
(0.111294 -0.000193429 -0.000151002)
(0.110862 0.000555016 -0.000560285)
(0.114946 0.000171757 0.000410001)
(0.115188 -0.000264354 -0.000139181)
(0.112731 -0.000584735 -4.07046e-05)
(0.115028 -0.000780142 -0.000301993)
(0.115833 -3.31886e-05 -0.000235725)
(0.109707 -0.000119357 -0.000156676)
(0.115857 -0.000571259 -0.000345633)
(0.108208 0.000368131 -0.000100569)
(0.108919 -3.26795e-06 -8.98659e-05)
(0.115457 -0.000381674 -0.000169853)
(0.11493 -0.000431536 -9.1364e-05)
(0.115881 0.000109986 -0.000354686)
(0.115669 0.00051764 -0.000582193)
(0.114475 -3.0454e-06 -0.000348667)
(0.110833 0.000885233 -0.000367834)
(0.112493 -0.000624019 0.000447035)
(0.113635 -0.000121905 8.4794e-05)
(0.114702 -0.000687903 0.000202782)
(0.115424 0.000687076 0.000343178)
(0.115276 -0.00045229 0.000171615)
(0.113744 0.000187266 -0.00010235)
(0.112422 -0.000565864 0.00045231)
(0.11334 -0.000147567 -1.11199e-05)
(0.115417 0.000126556 -0.000215662)
(0.114442 -0.000113366 -0.000718796)
(0.112643 7.34097e-05 -0.000324028)
(0.113743 -0.000241112 -6.19501e-07)
(0.113633 0.000495167 -0.000297524)
(0.112809 -0.000262652 -0.000192534)
(0.114585 -0.000126539 -0.000139787)
(0.11282 -0.000499821 0.00050989)
(0.109916 -7.73612e-05 8.99355e-05)
(0.113462 0.000320022 -0.000381226)
(0.115191 -0.000143679 -0.000198276)
(0.112319 0.000122472 -0.000167145)
(0.114374 0.000169906 4.5892e-05)
(0.115297 -0.000475589 8.2858e-05)
(0.114169 1.19914e-06 -3.00875e-05)
(0.11046 0.000486298 -0.000192617)
(0.113693 0.000170086 -0.000346701)
(0.113153 0.000215974 3.81139e-05)
(0.109061 0.000221445 -0.000366388)
(0.114683 -0.0006375 5.1028e-05)
(0.1093 0.000304119 0.000278586)
(0.113943 -7.87992e-05 -0.000327656)
(0.115375 -0.000495276 -6.63911e-05)
(0.109549 -0.000209459 4.69122e-05)
(0.113874 0.00024565 2.90417e-05)
(0.113435 0.00021402 0.000429875)
(0.109454 -0.000164213 0.000168116)
(0.113947 -0.000102601 -7.19757e-05)
(0.110406 -4.17147e-06 -0.000246444)
(0.112989 -2.96393e-05 0.000446771)
(0.115095 0.000433282 6.78358e-05)
(0.113913 -3.19017e-05 0.000180848)
(0.108844 0.000281861 -0.000134825)
(0.114467 0.000117451 -2.7234e-05)
(0.110143 0.000186938 -0.000357223)
(0.114468 -0.000150334 -4.48147e-05)
(0.114547 0.000186037 9.62772e-05)
(0.114692 -0.000387783 -0.000229515)
(0.115226 -0.000197304 -0.000429496)
(0.109675 -2.07631e-06 -0.00025731)
(0.114903 -0.000680063 0.000168748)
(0.109395 -1.36848e-05 -0.000447272)
(0.113432 0.000143202 -0.000190099)
(0.109619 0.000181463 -6.1943e-05)
(0.115851 -6.05469e-05 -6.07347e-05)
(0.115688 1.76262e-05 -0.000101545)
(0.115944 -0.000158045 5.20514e-05)
(0.115547 -0.000413204 -0.000411047)
(0.11328 -0.000134403 -0.000108841)
(0.114594 1.14078e-05 9.60903e-05)
(0.113868 0.000129484 1.36755e-05)
(0.11371 2.12997e-05 -0.000131534)
(0.11384 0.000157398 -0.000310253)
(0.110177 0.000104794 -2.36291e-05)
(0.114325 -0.00020763 -0.00019064)
(0.113627 -0.000240827 -9.66961e-05)
(0.114058 -0.00025189 -0.000239099)
(0.115061 0.000117747 -3.25032e-05)
(0.114449 -5.95303e-05 -0.000424126)
(0.114516 3.51961e-05 0.000105822)
(0.112908 -0.000358577 6.97248e-05)
(0.109075 -5.16086e-06 0.000454485)
(0.112845 6.31758e-05 0.000347242)
(0.114713 3.46772e-05 -2.73045e-05)
(0.114538 -0.000139377 0.00017007)
(0.109451 -0.000341784 -0.000302414)
(0.115648 6.23741e-05 -0.000292194)
(0.115455 5.18739e-05 -0.000466767)
(0.113098 3.98898e-05 -0.000552929)
(0.115073 -0.000197784 -0.000422657)
(0.115414 -8.99162e-05 -0.000649965)
(0.11407 -5.43224e-05 -0.000300968)
(0.114696 -0.000113405 -4.91132e-05)
(0.109205 -0.000143766 -0.00010394)
(0.114161 -0.000110621 7.32429e-05)
(0.11478 -0.000244548 0.000187075)
(0.108151 0.000103273 -0.000139133)
(0.113499 -0.000352619 9.47402e-05)
(0.114427 -0.000323402 -0.000237818)
(0.11112 0.000150798 8.53417e-05)
(0.109134 -0.000197801 -0.00015464)
(0.109321 -0.000140866 0.000436328)
(0.112327 -0.000662819 4.94692e-05)
(0.109036 3.98458e-05 -8.67426e-06)
(0.113322 -1.43811e-05 0.000150105)
(0.113917 -0.000171297 7.86214e-05)
(0.111498 0.000396463 0.000251049)
(0.114435 0.000424739 -0.000227449)
(0.109975 -0.00011766 -3.81742e-05)
(0.114734 0.000311831 0.000269285)
(0.115991 5.10399e-05 3.32086e-06)
(0.113714 -8.92895e-05 -5.71024e-05)
(0.114366 -1.64408e-06 0.000335894)
(0.112813 -3.1509e-05 -2.07225e-05)
(0.115487 0.000498979 -0.000325649)
(0.114085 0.000417941 -0.000127116)
(0.113239 2.1599e-05 -0.000455137)
(0.116001 -1.07552e-05 -0.000281401)
(0.114025 -0.000211246 -0.000266723)
(0.109608 -0.000111128 0.000147752)
(0.113838 -7.47964e-05 -5.36324e-05)
(0.116045 4.31364e-05 -0.000572399)
(0.115607 0.000215672 -0.000292948)
(0.114593 -6.91379e-05 0.000288702)
(0.115268 0.000264025 -0.000179418)
(0.113733 -0.000451315 0.000106068)
(0.114326 -0.000160943 7.80557e-05)
(0.114152 0.000162751 0.000203614)
(0.114927 0.000146156 -0.000245522)
(0.115077 -0.000567086 -1.36115e-05)
(0.108963 -0.000190252 -0.000128381)
(0.113116 -0.000322934 0.000135308)
(0.107863 -0.000151316 8.88936e-05)
(0.112283 0.000384608 0.000443326)
(0.113099 0.000164217 -0.000332634)
(0.109476 -0.000414687 0.00040178)
(0.108872 -0.000231614 -0.000390017)
(0.112925 0.000173913 -0.000225579)
(0.114241 -0.000334264 -3.66714e-06)
(0.115054 9.81305e-05 -0.00026321)
(0.109697 2.93209e-05 0.000227847)
(0.114064 -0.000184614 0.000211496)
(0.112828 -0.000128493 3.99709e-05)
(0.113808 -7.81622e-05 -0.000472045)
(0.114082 9.4257e-05 -0.00031193)
(0.112426 0.00166254 0.00186597)
(0.11387 8.16286e-05 -0.000451379)
(0.109478 -2.62078e-05 0.000254764)
(0.113052 -0.000216022 -9.18796e-05)
(0.114926 -5.88428e-05 -3.17047e-05)
(0.11591 0.000793149 0.000402737)
(0.115353 0.000130608 -0.000496847)
(0.11338 0.000656033 -0.000344781)
(0.109201 0.000228545 0.000403803)
(0.114241 -0.000214392 2.05595e-05)
(0.114298 -3.65739e-05 -0.000208297)
(0.115114 -0.000308738 -0.000278398)
(0.108842 5.0693e-05 1.66431e-05)
(0.110384 -3.57422e-05 0.000124002)
(0.11325 0.000240197 0.000224774)
(0.11032 0.000280034 -0.000269488)
(0.109008 -0.000314871 -0.000120535)
(0.11458 0.000175954 -0.000343988)
(0.109984 1.43552e-05 -0.000140782)
(0.112283 0.000575407 8.01132e-05)
(0.109543 -0.000387586 -0.000537865)
(0.114313 7.82682e-05 -5.75107e-05)
(0.110145 0.00018098 -0.000120584)
(0.11556 -7.10484e-05 0.000175201)
(0.115065 7.80467e-05 -0.000148258)
(0.115819 -0.00018199 0.000430708)
(0.115658 -6.20972e-05 -1.5539e-05)
(0.109778 -3.74029e-05 0.000134402)
(0.115472 0.000101299 0.000208284)
(0.115841 -5.30049e-05 -0.000240134)
(0.113541 -0.000288077 0.000127759)
(0.1145 0.000268385 -0.000164208)
(0.11447 -0.00019034 -0.0001537)
(0.115774 0.000197149 8.12888e-05)
(0.114848 0.000340659 0.000446393)
(0.111512 -3.50035e-06 -0.000331496)
(0.116218 -8.56207e-06 -1.9414e-05)
(0.1158 -0.000126601 0.000259521)
(0.114115 -3.80707e-05 0.000129172)
(0.112391 -0.000389927 -0.000537678)
(0.115163 -0.000403581 -0.000135369)
(0.114033 0.000324346 -0.000219558)
(0.108205 0.000442871 -0.000238755)
(0.10825 0.000275339 -0.000119151)
(0.113465 4.08188e-05 9.22621e-05)
(0.115103 2.41424e-05 8.60687e-05)
(0.115821 -5.83082e-05 -0.000111928)
(0.112196 -0.000177025 -9.20551e-05)
(0.114824 0.000305881 0.000176908)
(0.114148 -0.000124517 0.000250521)
(0.115849 0.000835448 0.000785125)
(0.113619 -1.3153e-05 -1.58156e-05)
(0.112538 0.000398713 -0.000244854)
(0.113333 -0.00135269 0.000847306)
(0.109455 -9.62641e-05 -0.000141686)
(0.113187 3.08885e-05 0.000147676)
(0.113683 1.08541e-05 -9.66262e-05)
(0.11526 6.88419e-05 -0.000121094)
(0.110549 -0.000173329 0.000108671)
(0.110571 0.000164687 -0.000338657)
(0.111276 9.15956e-06 -0.000299962)
(0.112206 -0.000413297 -9.1447e-05)
(0.113899 -6.16977e-05 -0.000264191)
(0.108956 -8.03111e-05 -0.000460918)
(0.114819 0.000416951 -0.000452279)
(0.112628 0.000128813 -2.32562e-05)
(0.114274 -4.73142e-05 0.000495281)
(0.112809 -0.000102037 -0.000136405)
(0.115991 -0.000291939 -0.000126859)
(0.113286 3.05414e-05 -0.000429085)
(0.109166 3.14746e-05 0.000332094)
(0.114054 0.000587107 0.000122362)
(0.11584 -0.000138711 -0.000706758)
(0.10981 0.000194467 0.000698854)
(0.11488 -0.000113682 -0.000399155)
(0.115642 -0.000732981 -0.000205918)
(0.113865 -0.000336646 0.00012898)
(0.113388 0.000203943 0.000182131)
(0.117325 -1.45664e-05 -0.000109394)
(0.111381 4.20432e-05 -0.000114574)
(0.113885 -0.000333373 -0.000182475)
(0.113733 0.000194499 -9.42568e-05)
(0.109976 -1.48307e-05 -1.3164e-05)
(0.110063 -9.31626e-05 -0.000936749)
(0.113183 0.00024159 0.000146595)
(0.111535 0.000500356 0.000175358)
(0.114572 -4.34323e-05 -0.000156995)
(0.111072 -0.00022141 0.00026192)
(0.112849 0.000294434 0.000285088)
(0.115735 3.70096e-05 0.000258961)
(0.11348 -8.13527e-06 -0.000129684)
(0.10912 0.000275175 9.11578e-05)
(0.111393 0.000218071 -3.12101e-05)
(0.114286 0.000228044 -7.70494e-05)
(0.115662 -0.00010457 2.77008e-05)
(0.108962 0.000444599 0.000369907)
(0.108784 3.06505e-05 0.000176031)
(0.115905 0.000104381 0.00057685)
(0.109245 0.000139013 6.68579e-05)
(0.114502 -0.000149795 -0.000114112)
(0.114557 0.000165792 -0.000144509)
(0.10994 -7.34795e-05 -0.000647212)
(0.114167 0.000223567 2.21851e-05)
(0.115281 4.40596e-05 -1.7364e-05)
(0.113238 3.09922e-05 0.000589701)
(0.108056 4.01056e-06 0.000231146)
(0.115735 0.000197596 -1.33638e-05)
(0.113301 -5.81426e-05 -0.000221799)
(0.109128 0.000483303 -6.14871e-05)
(0.115793 -6.70977e-05 -0.000110197)
(0.113449 -3.25687e-05 -8.21509e-05)
(0.112942 0.000329115 -0.000258866)
(0.114499 -0.000562614 9.58714e-05)
(0.10903 0.000657695 -0.000333782)
(0.112334 -2.0824e-05 -0.000688635)
(0.112593 -0.000327905 3.39393e-05)
(0.112967 0.000176612 -0.000220562)
(0.109915 -6.60648e-05 0.000356514)
(0.111522 2.32728e-05 9.80269e-05)
(0.114646 0.000552994 0.000140729)
(0.116159 -0.000419086 -0.000764141)
(0.116103 -0.000447425 0.000350407)
(0.115228 -9.84166e-05 4.67106e-05)
(0.115603 -0.000391158 -0.000120419)
(0.114611 -7.64385e-05 -0.000770564)
(0.111147 -0.000164629 0.000247158)
(0.116037 -1.3965e-05 -0.000626585)
(0.114584 -2.20906e-05 -0.000119245)
(0.115159 0.000489637 0.000419606)
(0.110156 0.000386569 -0.000150512)
(0.1141 -0.000221644 -0.000237175)
(0.113944 0.000171361 0.00023316)
(0.115985 0.000703125 0.000131499)
(0.109459 -8.50994e-05 0.000177416)
(0.108544 -0.000463935 0.000147005)
(0.115448 3.2256e-05 -0.00018754)
(0.111478 -0.000228405 -0.000227198)
(0.115087 0.000150555 -5.1037e-05)
(0.112649 -0.000128984 -0.000217569)
(0.110159 -2.55337e-05 -0.000415976)
(0.113856 4.62855e-05 -0.000504992)
(0.115624 0.0004195 -0.000110449)
(0.113224 0.000250481 1.50057e-05)
(0.114869 0.000663356 -0.000116725)
(0.109624 4.71595e-05 -0.00109237)
(0.114957 0.000845225 0.000572587)
(0.114481 -7.24747e-05 -0.000316531)
(0.108548 0.000298499 -2.18118e-05)
(0.114878 -1.99442e-05 -0.00018109)
(0.115332 -0.000327156 7.4129e-05)
(0.116645 0.000531004 0.000869158)
(0.109888 -0.000540568 -0.000713748)
(0.109456 0.00020494 -0.000494985)
(0.112452 0.000340828 -0.000325848)
(0.113616 -5.25755e-06 0.000494653)
(0.113685 -0.000129443 0.000110107)
(0.113383 0.000240784 9.011e-05)
(0.11333 0.000221525 0.000205845)
(0.115433 8.69477e-05 -2.53452e-05)
(0.113936 -0.000260125 1.50389e-05)
(0.114211 0.00015424 2.73536e-05)
(0.110104 -0.000106341 0.000437187)
(0.115703 -0.000103068 -0.000739458)
(0.109288 -0.000132676 -0.000168431)
(0.114137 0.000580505 2.73097e-06)
(0.112902 0.000285869 -0.00019669)
(0.1123 -0.000509147 -0.000274521)
(0.114963 0.000189342 -0.000144969)
(0.112733 -0.000419416 -0.000316376)
(0.110396 -0.000490666 -0.000443922)
(0.108925 2.86857e-06 -0.000313378)
(0.109639 -0.000136579 -9.21151e-05)
(0.112516 -0.000347978 -0.000235631)
(0.114855 0.000499195 0.00040529)
(0.109979 0.000294734 0.000793225)
(0.114789 -0.00026423 -3.85087e-05)
(0.112495 8.99575e-05 -0.000514544)
(0.115785 -0.000225605 -0.000286421)
(0.109228 -4.90163e-05 -0.000512599)
(0.112701 0.000213135 0.000329281)
(0.115301 -0.00031335 -0.000232783)
(0.115147 -0.000410323 1.27135e-05)
(0.114947 6.68188e-05 -0.000175704)
(0.115665 -0.000138084 -2.09048e-05)
(0.114277 7.15325e-05 0.000248477)
(0.113486 0.000407231 0.000132065)
(0.115273 -7.52776e-05 0.000283635)
(0.115099 0.000202973 4.22284e-06)
(0.115675 0.000144576 0.000140945)
(0.110834 0.000542751 -8.54889e-05)
(0.115569 -0.000442386 -0.000223087)
(0.109101 -0.000187654 0.000313749)
(0.115845 0.000466244 -0.000127518)
(0.113773 0.000213998 -4.35569e-05)
(0.113181 -1.67292e-05 -0.000264614)
(0.109711 0.00050688 2.26368e-05)
(0.113385 0.000851222 -0.000541595)
(0.107899 -0.000860317 -0.000156628)
(0.11474 -6.05203e-05 -0.000117844)
(0.113171 0.000132376 -0.000204967)
(0.115466 -3.09504e-05 -0.000178529)
(0.11295 0.000405538 -0.000182736)
(0.113343 0.000770486 -0.0001888)
(0.109654 -0.000245069 0.000307981)
(0.115538 0.000118994 9.54065e-05)
(0.109958 -0.000451845 0.000126802)
(0.108113 -0.000211571 -0.000206991)
(0.109891 -0.00019562 6.61571e-05)
(0.110468 0.000123896 0.000135112)
(0.110219 0.000594046 5.06962e-05)
(0.113538 -0.000286555 1.87146e-05)
(0.109063 0.000150014 -4.78798e-05)
(0.114736 -0.000686062 1.43954e-05)
(0.114356 5.80496e-05 -0.000367996)
(0.107937 -8.25315e-05 7.86363e-05)
(0.1146 0.000195168 6.98464e-06)
(0.109732 0.000308732 -0.000485778)
(0.11245 0.000618885 0.000128666)
(0.113672 0.00010693 0.000142888)
(0.112846 -0.000165101 -0.000697557)
(0.114552 -5.11276e-05 -0.000117871)
(0.116091 9.21502e-05 -0.000517493)
(0.114903 8.81077e-05 0.000438738)
(0.114192 4.18244e-05 -0.00020842)
(0.114006 -0.00033183 -0.000586296)
(0.114816 0.000412121 0.000135679)
(0.112222 0.000132425 5.33434e-05)
(0.112766 0.000139905 7.04393e-05)
(0.108805 0.000498967 -0.000480286)
(0.110188 0.00213443 0.00275991)
(0.115511 6.08781e-05 3.06499e-05)
(0.113811 -0.000100084 -0.000121564)
(0.114417 -0.000204494 -6.38995e-05)
(0.115008 4.8539e-05 4.66183e-06)
(0.10908 -0.000333467 -0.000128575)
(0.115288 -3.54984e-05 -0.000334347)
(0.115466 0.000458137 -0.000156372)
(0.115508 8.08169e-06 0.000213951)
(0.115405 -3.6365e-07 8.64061e-05)
(0.11468 0.000236037 0.000157165)
(0.114201 -0.000316324 -0.000256802)
(0.115559 -0.000130265 1.17645e-05)
(0.115702 -0.000143047 0.000332901)
(0.114421 0.000164993 0.000254871)
(0.115395 2.17484e-05 -0.000101237)
(0.114611 -0.000294998 -0.000312646)
(0.110623 -0.000220057 -0.000301372)
(0.115226 -5.98948e-05 0.000159789)
(0.11134 6.74584e-05 0.000430322)
(0.113683 -9.52896e-05 -8.64894e-06)
(0.113935 -0.000426479 -0.000211679)
(0.113633 -0.000505405 6.68655e-05)
(0.112185 0.000492641 -1.77265e-05)
(0.114714 0.00025977 -0.000146378)
(0.112715 0.000357214 0.000375456)
(0.11435 -1.29094e-05 -0.00014097)
(0.112654 0.000644512 -0.00025978)
(0.109175 0.000459484 -0.000379076)
(0.116138 0.000258207 -0.000186603)
(0.114181 0.000346578 -0.000120444)
(0.111942 -6.6181e-05 0.000496662)
(0.109153 -0.000451009 -2.59181e-05)
(0.115324 -0.000491584 -8.36749e-05)
(0.108812 -0.000573346 -0.000417468)
(0.115713 -0.000134683 -5.97845e-05)
(0.114152 -3.38076e-05 0.000314092)
(0.112995 0.000665816 -0.000249245)
(0.114562 -0.000222089 0.000332539)
(0.115647 -8.01883e-05 -0.000408176)
(0.114275 -0.000274569 8.93018e-05)
(0.109251 -9.12144e-05 5.06556e-05)
(0.113189 -0.000225634 -0.000249971)
(0.111076 0.000190539 -0.000311358)
(0.113562 2.95447e-05 -6.2266e-05)
(0.109073 -0.000518505 -0.000681273)
(0.114306 -0.000149137 -0.000347278)
(0.114746 -0.000322628 0.000331909)
(0.111987 0.000198028 -0.000341646)
(0.113504 2.93787e-05 1.01268e-05)
(0.112045 2.01522e-05 0.000158185)
(0.114612 -5.47204e-05 -0.000206483)
(0.111986 -0.000519676 0.000219946)
(0.113416 0.000277091 5.94156e-05)
(0.109236 -0.000218835 0.000164758)
(0.115588 -7.73266e-05 8.84268e-05)
(0.113768 -0.000375494 -0.0002171)
(0.115442 0.000354593 0.000293242)
(0.111259 0.000375541 -0.000218709)
(0.114127 -5.18718e-05 -0.000107831)
(0.114364 0.00012678 -0.00014352)
(0.112979 0.00013372 0.000514404)
(0.113158 -2.47523e-05 1.53071e-05)
(0.113351 0.000183884 0.000291862)
(0.115488 -0.000318476 6.4986e-05)
(0.113565 -0.000157937 -0.000128977)
(0.109496 -1.04322e-06 -0.000125036)
(0.108541 -0.000264524 -0.000400118)
(0.114687 -0.000268852 -0.000115467)
(0.108928 0.000343737 -0.000486849)
(0.111427 -0.000502107 -0.00075854)
(0.113549 0.000265812 -0.000173951)
(0.113758 0.000224115 -0.000112319)
(0.115645 0.000421238 -0.000193407)
(0.108809 -0.000226965 -5.69373e-05)
(0.113871 -7.32422e-05 -0.00045571)
(0.115843 -1.3081e-05 -0.000187857)
(0.110117 0.000653583 -0.001568)
(0.110013 0.0010266 0.000300039)
(0.11359 -0.000207323 -0.000466434)
(0.110229 -6.83299e-05 3.71948e-05)
(0.113853 -3.7839e-05 -0.000236814)
(0.109886 -0.000247409 7.54886e-05)
(0.115273 -0.000596537 -0.00027097)
(0.111128 0.000117233 0.000427904)
(0.11194 0.000189088 0.000249398)
(0.115971 0.000187942 0.000434665)
(0.108556 -0.000119399 0.000207453)
(0.11277 9.85941e-05 0.000222058)
(0.112639 -7.34963e-05 0.000355094)
(0.11566 -6.18401e-05 -0.00049803)
(0.115616 4.28838e-05 0.000162964)
(0.115091 8.12274e-05 -0.00018217)
(0.109953 0.000562288 0.000423393)
(0.114543 -0.000168434 -0.000424143)
(0.115097 0.000129088 0.00050809)
(0.111596 -0.000378989 -9.22095e-05)
(0.115446 9.26099e-05 -0.000201843)
(0.114893 7.59052e-05 3.77331e-05)
(0.114528 0.000255127 1.31701e-05)
(0.114915 -6.63063e-05 -0.000336617)
(0.114114 4.83676e-05 -0.000219257)
(0.11592 0.0002075 0.000193261)
(0.115413 0.000519315 0.000610668)
(0.115725 -0.000205912 0.000104808)
(0.114378 0.000283293 0.000184446)
(0.112923 -7.66277e-05 -0.0003692)
(0.114277 8.09527e-05 7.8098e-05)
(0.113944 0.00016052 -0.000171478)
(0.109388 -0.00065857 -0.00011235)
(0.113386 -0.000481637 0.000111586)
(0.114233 -6.4342e-06 0.000316146)
(0.115362 -0.000159708 -0.000124725)
(0.115303 -0.000259768 -0.000421618)
(0.113645 -0.000262062 0.000123357)
(0.11625 0.000615986 0.000106023)
(0.115318 0.000133195 -0.000111009)
(0.112574 -0.000506094 0.000634465)
(0.11403 0.000126246 -0.000368872)