/*--------------------------------*- C++ -*----------------------------------*\
| =========                 |                                                 |
| \\      /  F ield         | OpenFOAM: The Open Source CFD Toolbox           |
|  \\    /   O peration     | Version:  2212                                  |
|   \\  /    A nd           | Website:  www.openfoam.com                      |
|    \\/     M anipulation  |                                                 |
\*---------------------------------------------------------------------------*/
FoamFile
{
    version     2.0;
    format      ascii;
    arch        "LSB;label=32;scalar=64";
    class       surfaceVectorField;
    location    "0.014";
    object      Uf;
}
// * * * * * * * * * * * * * * * * * * * * * * * * * * * * * * * * * * * * * //

dimensions      [0 1 -1 0 0 0 0];

internalField   nonuniform List<vector> 
68568
(
(0.114232 0.000418181 -0.000210569)
(0.11373 0.000640434 -0.000212601)
(0.11348 0.000420735 -0.000104319)
(0.115314 0.000799101 -0.000288002)
(0.114211 -0.000225177 -8.52771e-05)
(0.114158 -0.000311964 -0.000244422)
(0.113506 -0.000226996 5.00615e-05)
(0.110312 -7.98809e-05 -3.14937e-05)
(0.114766 0.000189302 7.79084e-05)
(0.114539 -0.000354956 0.000470485)
(0.113867 -0.000161165 3.68761e-05)
(0.112065 -0.000469085 0.000471724)
(0.115784 -0.000119464 -8.43928e-05)
(0.114888 0.000106867 -0.000152462)
(0.115913 4.04841e-05 -6.08255e-05)
(0.11599 3.10553e-06 -8.07741e-05)
(0.112118 -0.000166485 -7.13745e-05)
(0.114179 -0.000364764 -5.46106e-05)
(0.111669 -0.000152 -0.000203163)
(0.113822 -0.000385203 -0.000224332)
(0.114472 5.38392e-05 -8.88119e-05)
(0.113694 0.000146103 1.877e-05)
(0.114487 0.000141776 9.92323e-06)
(0.111053 0.000116007 -0.000313306)
(0.112973 -2.7167e-05 -0.000257249)
(0.109689 -3.237e-05 -3.83463e-05)
(0.111005 0.0001514 -0.000412427)
(0.112997 1.70574e-05 -0.000309021)
(0.113093 0.000168485 0.000341518)
(0.114683 0.000139532 -0.000119557)
(0.113684 -7.85132e-05 -5.25195e-05)
(0.114125 -0.000111373 -0.000233852)
(0.113283 7.2911e-05 -0.000219721)
(0.113314 0.000165487 -0.0004736)
(0.114845 -0.00021266 -6.14146e-05)
(0.114541 -0.000212951 -0.00024756)
(0.115293 3.6169e-05 -0.000429824)
(0.115524 -0.00025077 -0.000227493)
(0.115363 0.000438537 -0.000143751)
(0.114741 0.000308687 -0.00019622)
(0.115203 0.000238462 -0.000182191)
(0.113443 7.07595e-06 -0.000303966)
(0.115667 -0.00027869 -0.000495501)
(0.115403 -0.000327281 -0.000400864)
(0.11425 -6.44813e-05 3.319e-05)
(0.113653 -0.000207439 4.9552e-05)
(0.11065 6.64901e-05 -0.00019562)
(0.115239 -8.15272e-05 -0.000215769)
(0.115234 -5.40501e-05 0.000112934)
(0.114858 -1.47668e-05 1.9899e-05)
(0.113137 -3.57401e-05 3.75196e-05)
(0.112821 -0.00025717 -7.76275e-05)
(0.1138 -0.000281222 -0.00017608)
(0.113464 -0.000233026 -4.18946e-05)
(0.110152 -0.000292078 -9.31194e-05)
(0.112982 -0.000228617 0.000540238)
(0.109737 -0.000143818 0.000269548)
(0.11101 -0.000168053 0.000483361)
(0.113047 -0.000132212 0.000209801)
(0.112889 7.92319e-05 5.6416e-05)
(0.113446 0.000174765 8.95189e-05)
(0.113216 8.01203e-05 -2.74118e-05)
(0.114195 -6.57469e-05 -5.76492e-05)
(0.110417 0.000282397 0.00025704)
(0.110471 -0.000304329 0.000495254)
(0.113042 -8.1792e-05 0.000136134)
(0.112832 0.000120199 -0.000478895)
(0.11123 -0.000190684 -6.05474e-05)
(0.110131 0.000160597 -0.000539156)
(0.113179 -3.42805e-05 -0.000315929)
(0.113942 -1.2103e-05 -5.74145e-05)
(0.114687 -0.000243696 -3.89188e-05)
(0.114473 -0.000329313 -2.66705e-06)
(0.111545 -0.000122979 1.23094e-05)
(0.109872 -0.000141764 -0.000199319)
(0.111121 4.0861e-05 -9.53521e-05)
(0.110094 0.000227781 -0.000142511)
(0.103308 -7.58568e-05 -0.000245981)
(0.114276 -0.000212322 -0.000248724)
(0.11541 7.06482e-05 -0.000306527)
(0.114515 -3.32795e-05 -0.000291152)
(0.114873 -5.60589e-05 -0.000380418)
(0.115042 0.000286935 -0.000109757)
(0.114857 0.000296772 6.39854e-05)
(0.113164 0.000366332 0.000100832)
(0.115429 0.000429338 -7.32707e-05)
(0.111093 0.000201588 -0.000181331)
(0.111399 -1.30478e-05 -0.000150791)
(0.113262 0.00025487 -0.000238992)
(0.11355 0.000114397 -1.23639e-05)
(0.109627 1.0307e-05 3.87742e-05)
(0.112508 -6.7029e-05 -0.000109954)
(0.11094 0.000244963 -0.000365067)
(0.112643 -4.97777e-06 0.000123287)
(0.11325 0.000205328 -0.000111273)
(0.113248 -6.93484e-05 4.5271e-05)
(0.114782 4.8029e-05 0.000471785)
(0.113882 8.74783e-06 -9.00367e-05)
(0.114581 -0.000142132 -1.04847e-05)
(0.111407 -6.89706e-05 0.000277017)
(0.116899 0.000186884 0.000280478)
(0.115364 0.000243702 0.000122489)
(0.11723 6.43819e-05 -7.64492e-05)
(0.116289 -0.000148924 -0.000506431)
(0.113732 0.00026979 0.000354737)
(0.109617 0.000396946 -1.61517e-05)
(0.110867 0.000284959 0.000174817)
(0.114947 0.000234773 0.000153816)
(0.114295 8.32994e-05 0.000350673)
(0.114935 0.000262272 0.000136414)
(0.115511 -0.000201108 -0.00012716)
(0.114721 3.06935e-05 -2.00232e-05)
(0.115598 -0.00015092 -0.000111027)
(0.114392 -8.49459e-05 -7.64336e-05)
(0.112796 -0.000241901 -9.84221e-05)
(0.112796 -9.37208e-05 -0.000168654)
(0.110404 0.000175645 2.60386e-05)
(0.110089 -0.000264674 0.000248308)
(0.115171 0.0001375 -0.000261818)
(0.114795 5.24965e-05 -0.000243565)
(0.114943 1.09243e-05 -0.000373314)
(0.115332 -1.41714e-05 -0.000344404)
(0.111134 2.64592e-05 -0.000263051)
(0.11032 -0.000132723 -2.50089e-05)
(0.113489 -5.07211e-05 -4.66855e-05)
(0.113545 9.26285e-05 -1.06712e-05)
(0.111242 7.32484e-05 2.22673e-05)
(0.109617 -6.27925e-06 1.58717e-05)
(0.109592 -0.000164262 -0.000164378)
(0.103928 -0.00012647 1.2855e-05)
(0.115217 0.000399533 -0.000276724)
(0.109469 9.9722e-05 2.88714e-05)
(0.109543 -0.000291884 -9.03975e-05)
(0.107956 -0.000135192 4.72837e-05)
(0.1033 -0.000163155 5.54614e-06)
(0.115575 -0.000192425 0.000214625)
(0.115422 -0.00041059 0.000225813)
(0.11559 -9.19588e-05 0.000356817)
(0.115023 -0.00027286 0.000242231)
(0.114528 -0.000156561 0.000202334)
(0.11449 -8.42149e-05 0.000308908)
(0.115412 -7.8924e-05 0.000399527)
(0.108633 0.000410385 -0.000302902)
(0.109593 -0.000210546 5.99749e-07)
(0.103977 8.66115e-05 -0.000104553)
(0.11197 -6.07657e-05 -0.000101683)
(0.110196 -3.4247e-05 -0.000258482)
(0.104196 0.000101354 -0.000275077)
(0.110693 -1.61205e-05 0.000144607)
(0.110668 -0.000231023 -3.12229e-05)
(0.111391 -0.000228996 -1.75556e-05)
(0.103485 -0.000131153 0.000140242)
(0.115244 -8.94722e-05 8.5399e-05)
(0.114235 -8.44795e-05 1.19092e-05)
(0.11434 -0.000168168 -0.000214507)
(0.115162 -0.000654966 -0.000328906)
(0.114219 -0.000592157 -0.000553963)
(0.11525 -0.000405878 -0.000707072)
(0.114775 -0.00036391 0.000421045)
(0.114933 -0.000493426 0.000139311)
(0.114428 -0.000129515 0.000168781)
(0.115675 -0.000419969 -0.000115861)
(0.115037 -0.000414323 -4.27626e-05)
(0.114687 -0.000264843 -0.000266253)
(0.115642 -7.32207e-05 -0.000385859)
(0.113512 8.52544e-05 -0.000195665)
(0.112661 0.000345152 -0.000288685)
(0.109665 7.04388e-05 -0.000138104)
(0.113429 0.000329214 -0.000406664)
(0.11369 8.74065e-05 -0.000309501)
(0.11194 0.000222296 -0.000615424)
(0.110889 0.000195978 -0.000242156)
(0.112907 -7.90437e-05 0.000182072)
(0.11262 3.63097e-05 6.87242e-05)
(0.114245 9.25913e-05 -0.000209979)
(0.113488 -6.88838e-05 0.000127774)
(0.114777 -5.86017e-05 -0.000283973)
(0.114795 -8.96377e-05 -0.000242665)
(0.114921 0.000182003 -0.000197575)
(0.115692 0.000278378 -0.000442749)
(0.115986 4.79485e-05 -0.000162506)
(0.111016 1.4813e-05 -0.000364025)
(0.10939 0.000169022 -0.000131465)
(0.10987 6.91445e-05 -5.39808e-05)
(0.102742 0.000158019 -0.00015274)
(0.114742 0.00037129 4.89035e-05)
(0.11401 0.000281358 1.37758e-05)
(0.115411 0.000239672 3.44662e-05)
(0.114995 0.000101973 0.000102008)
(0.108766 -0.00012628 -3.35547e-06)
(0.103453 -1.24723e-05 0.000124916)
(0.111791 1.32911e-05 -0.000249537)
(0.111606 -0.000171784 -3.24585e-05)
(0.113914 -9.24739e-06 -0.000214313)
(0.113925 -0.000129206 -8.814e-05)
(0.112134 0.000124136 0.000185675)
(0.112533 7.68314e-05 0.000151373)
(0.113955 -0.00019545 1.09725e-05)
(0.110979 9.09368e-05 -0.000449345)
(0.110003 6.23388e-05 -0.000201612)
(0.11113 0.000169778 -2.66496e-05)
(0.103745 0.000376312 -0.000151272)
(0.11467 0.000158525 0.000422664)
(0.114518 -5.53979e-05 0.000139198)
(0.113826 0.000101854 0.000311177)
(0.111453 0.000112298 0.000364316)
(0.114689 -0.000311927 0.000172909)
(0.113914 -6.23101e-05 0.000336501)
(0.114622 -0.000165845 4.94529e-05)
(0.111044 -1.9014e-05 0.000234361)
(0.109431 5.89118e-06 -0.000139092)
(0.109551 0.000319315 -8.4245e-05)
(0.104282 7.32877e-05 -0.000111083)
(0.11304 -0.000225677 -0.000307536)
(0.112808 9.19786e-05 -0.000164505)
(0.113028 8.19055e-05 -2.75671e-05)
(0.114345 0.00033447 -1.05932e-05)
(0.113532 0.000325879 7.43239e-05)
(0.115024 0.000142222 -0.000170936)
(0.113938 0.000270836 -0.000253529)
(0.112843 -9.25414e-05 -0.000294126)
(0.110915 -0.000119332 -0.000378547)
(0.110973 -0.000125162 -0.000230478)
(0.104149 -0.000215556 -0.000207421)
(0.114618 1.60178e-05 -5.48578e-05)
(0.114686 0.000162943 9.67651e-05)
(0.110741 0.000120454 -0.000123531)
(0.11295 -2.32629e-05 -9.68145e-05)
(0.113126 0.000194517 -5.44145e-06)
(0.114414 0.000209854 4.50895e-05)
(0.113279 0.00018418 0.000180253)
(0.115729 5.97243e-05 -0.00044748)
(0.115811 -4.97553e-05 -0.000395601)
(0.115732 -0.000110354 -0.00030688)
(0.115163 -4.34599e-06 -0.000298175)
(0.112334 0.000284169 -0.00074726)
(0.11405 0.000123835 -0.000656573)
(0.114476 -0.000193393 -0.000524572)
(0.113659 -0.000182692 5.21723e-05)
(0.11442 -0.000172028 -1.30726e-05)
(0.113669 -7.19551e-05 0.000112524)
(0.111123 7.67108e-06 -0.000165376)
(0.111221 -0.000644757 -0.000152539)
(0.111521 0.000194566 -0.000126463)
(0.103675 -1.92541e-05 -0.000224665)
(0.115568 0.000345684 -5.27533e-06)
(0.11576 0.000258677 -0.000221813)
(0.115225 0.000137848 -0.000101241)
(0.115697 0.000188171 -0.000365516)
(0.1152 0.000234879 -3.32687e-05)
(0.114212 9.85829e-05 -3.80451e-05)
(0.114903 -0.000104581 -0.000178018)
(0.114536 0.000160195 -0.000260543)
(0.112233 -0.000283388 -0.000586388)
(0.112057 7.47589e-05 -0.000147018)
(0.113107 -0.00017625 -0.000552091)
(0.107743 -0.000590746 -0.000467209)
(0.114384 -0.000157529 -0.00037141)
(0.114401 -0.000298793 -0.000566953)
(0.115349 -0.000220827 -0.000277701)
(0.115315 -0.000142705 -0.000316069)
(0.114834 -6.92455e-05 -0.00020581)
(0.113981 -0.000130523 -0.000186483)
(0.113884 4.85486e-05 -0.000101126)
(0.111353 0.000118607 -0.000402173)
(0.114845 0.000174494 0.000157983)
(0.114562 0.0001847 -5.28004e-05)
(0.11322 1.16926e-06 -0.00016836)
(0.109768 -9.86077e-05 -0.000504482)
(0.109419 -6.72388e-05 -0.000317562)
(0.110536 6.5993e-05 -0.000514333)
(0.103295 0.000208974 -0.000248211)
(0.115134 -0.000414521 -2.92363e-05)
(0.115112 -0.000476408 0.000131248)
(0.115784 -0.000463306 9.30131e-05)
(0.111638 0.000760902 -0.000437951)
(0.11391 8.56983e-05 -0.000242862)
(0.113645 0.000256103 -0.000205171)
(0.113828 -0.000192865 0.00034172)
(0.114172 1.09287e-06 0.0001577)
(0.114498 9.11347e-05 0.000280266)
(0.110792 -8.50791e-05 0.000274105)
(0.111207 -0.000226946 -7.85675e-05)
(0.115045 -3.54584e-05 4.3361e-05)
(0.113388 0.000154211 -2.62517e-05)
(0.115115 0.000289925 3.52982e-05)
(0.109828 0.000401377 -0.000245048)
(0.112521 -9.66697e-06 -6.13885e-05)
(0.112682 5.38542e-05 6.0546e-05)
(0.107847 0.000110947 -0.000196127)
(0.108701 0.000227543 0.000216603)
(0.108337 -9.3776e-06 0.000121841)
(0.103612 6.51746e-05 0.000105608)
(0.115549 9.82976e-05 3.32752e-05)
(0.114556 6.33701e-05 -0.000207539)
(0.115571 -3.47903e-05 -2.97236e-05)
(0.11517 -0.000260301 7.50979e-05)
(0.115371 -0.000303292 -0.000235307)
(0.115038 2.1981e-05 -7.2387e-05)
(0.115073 -7.14913e-05 -0.000219636)
(0.111148 -0.000113221 4.66973e-05)
(0.113459 -0.000145238 -0.000102553)
(0.114507 -0.000200102 -9.65617e-05)
(0.114726 -6.25548e-05 -0.000134637)
(0.113458 -1.47664e-05 0.000123215)
(0.115542 -0.000107019 -0.00013051)
(0.114497 -2.12534e-05 -0.000312749)
(0.114677 4.17959e-05 6.10873e-05)
(0.115545 -9.26589e-05 -0.000109234)
(0.115678 -5.23004e-05 0.000125843)
(0.11509 -0.000122221 -1.76332e-05)
(0.115683 -7.63907e-05 -0.000181791)
(0.114872 -1.37253e-05 -0.000161396)
(0.114772 -0.000118927 -0.000200379)
(0.115542 5.33422e-05 -0.000408778)
(0.109793 0.00102908 -0.000709052)
(0.111926 0.000225523 -0.000948713)
(0.111111 0.000548731 -0.000707108)
(0.102138 0.000213497 -0.000427547)
(0.114845 -3.71222e-05 -0.000143871)
(0.115025 -0.000169216 -0.000113743)
(0.115668 -1.08852e-05 -0.000340693)
(0.114142 -0.000101618 0.0001963)
(0.115066 -1.04816e-05 4.0142e-05)
(0.110985 7.74942e-05 -4.35378e-05)
(0.111532 -4.49252e-05 -5.06462e-05)
(0.111284 -3.40969e-05 -4.01323e-05)
(0.113592 -0.000155068 0.000106379)
(0.113329 -0.000211364 -7.06072e-05)
(0.110558 -0.000223074 -0.000688485)
(0.110966 -0.000295846 -5.9668e-05)
(0.10315 -0.00023856 -9.37156e-05)
(0.112962 0.000363926 -0.000454362)
(0.114004 0.00017939 -0.000572853)
(0.110419 -0.000145014 -0.000268306)
(0.110337 -0.000365991 -6.93566e-05)
(0.112604 -0.000464153 -0.00013204)
(0.109978 -0.000324523 -0.000248323)
(0.112453 -0.000353127 -0.00013584)
(0.113851 0.000561008 -6.61585e-05)
(0.113791 0.000663191 -0.000104104)
(0.112928 0.000703753 0.000191732)
(0.110988 0.00060336 0.000154716)
(0.11242 0.000329801 -0.000108176)
(0.113011 4.32916e-05 -0.000224647)
(0.114562 0.000328964 -6.36629e-06)
(0.115095 -0.000157057 8.31357e-05)
(0.114883 -0.000110945 0.000157501)
(0.110782 -5.2857e-05 0.000192668)
(0.113706 0.00010971 0.000130615)
(0.113544 0.000213901 5.41937e-05)
(0.114361 7.31483e-05 5.82271e-06)
(0.110736 1.71707e-05 -0.000219688)
(0.110529 -0.000429719 -6.86333e-06)
(0.111007 -7.65542e-05 -0.000101128)
(0.110103 -0.000557455 -0.000282931)
(0.103566 -0.000340558 1.26835e-05)
(0.114379 0.00019065 9.97157e-05)
(0.114479 -3.89522e-05 7.42646e-05)
(0.112787 -3.15075e-06 -0.000282215)
(0.11454 -0.000103416 -0.000168966)
(0.114336 7.29411e-05 0.000170232)
(0.113483 -2.93989e-06 0.000201075)
(0.113484 0.000313924 7.85584e-05)
(0.112791 -0.000233472 -0.000268579)
(0.110269 -3.0881e-06 -0.000146411)
(0.109326 -1.98605e-05 -0.000196078)
(0.11063 -0.000312293 -0.00023158)
(0.109944 3.6597e-05 -0.000296798)
(0.103408 -7.9041e-05 1.58645e-05)
(0.111179 5.87451e-05 -0.000278055)
(0.103239 7.22453e-05 -0.000306658)
(0.11494 -0.000232517 -5.24379e-05)
(0.115948 2.83426e-06 0.000197978)
(0.116017 -0.000128938 -8.8355e-05)
(0.104329 0.000131244 0.000188125)
(0.109956 -0.000250357 -0.000487137)
(0.110777 -0.000130571 -0.000163329)
(0.110423 -0.000367206 -0.000416432)
(0.102776 -0.000100229 -0.000665203)
(0.109987 0.000507445 -4.81059e-05)
(0.11255 0.000429308 1.54497e-05)
(0.109604 -5.55721e-05 0.000331878)
(0.108862 0.000161588 9.50735e-05)
(0.110076 0.000389866 0.000302461)
(0.1035 -1.90472e-05 0.000104664)
(0.115137 -0.000523179 9.00556e-05)
(0.113906 -0.000521371 0.000281349)
(0.114136 -0.000362504 0.000189135)
(0.115169 -0.00047816 7.15518e-05)
(0.111971 -0.000103234 -0.000483022)
(0.111185 -0.000169709 -0.000224856)
(0.110715 -9.07642e-05 -0.000184104)
(0.103237 0.000140275 -0.000209909)
(0.114399 8.36716e-05 -0.000284539)
(0.113773 0.000122403 -0.000260804)
(0.114095 -0.000393427 -0.000209429)
(0.11145 -2.89815e-05 -0.000387541)
(0.111067 -0.00027088 -0.000338377)
(0.111036 -0.000249256 -0.000409639)
(0.112994 -0.000284891 -0.000401376)
(0.114885 3.95483e-05 -0.000266021)
(0.114816 0.000124485 -0.000309795)
(0.114174 0.000166877 -0.000225937)
(0.110829 0.000294816 -0.000403887)
(0.110943 9.84209e-05 3.42983e-06)
(0.109573 -0.000222761 0.000110674)
(0.11032 -0.000270011 0.000330016)
(0.103528 -0.000218065 -2.99427e-05)
(0.11403 0.000233015 1.30203e-05)
(0.111044 0.000216663 -0.00036843)
(0.110844 -1.43252e-05 4.48176e-05)
(0.113606 -0.000505259 6.84299e-05)
(0.111068 -0.000314094 0.000125222)
(0.113432 -0.000341391 0.000276422)
(0.11475 -9.43759e-05 -0.000109582)
(0.113155 -0.000149306 -0.00020917)
(0.114635 -0.000127544 -0.000171061)
(0.114433 0.000207073 0.000170576)
(0.114452 -7.72804e-05 6.03508e-05)
(0.111036 -0.000122317 0.000112674)
(0.113185 -0.000345873 -0.00011505)
(0.113519 -0.000153474 -0.000270315)
(0.114413 -4.38603e-05 -0.000162625)
(0.114281 -0.000244123 -1.5108e-05)
(0.114484 -0.000248087 0.000198177)
(0.115378 -0.000118674 0.000133565)
(0.115685 -0.000240345 0.000204041)
(0.114659 4.51914e-05 -0.000300043)
(0.114623 3.07023e-05 -0.000433806)
(0.11576 7.85819e-05 -0.000391597)
(0.112799 0.000301928 -0.000317948)
(0.114036 0.000202735 -0.00025501)
(0.114292 1.22767e-05 -0.000496097)
(0.112023 -0.000509697 -0.00015146)
(0.114966 0.000325408 -0.00050226)
(0.113605 -0.000166746 8.04271e-05)
(0.114873 0.00020001 0.0002404)
(0.114849 9.87161e-05 5.10169e-05)
(0.114995 -0.000114361 8.98622e-05)
(0.114174 0.000123249 6.98809e-05)
(0.114656 -4.02892e-06 0.000178475)
(0.110557 1.53332e-05 6.21458e-05)
(0.109798 5.0442e-05 -0.000349609)
(0.109839 -8.93852e-05 -0.000203425)
(0.110431 -0.000561989 -0.000207754)
(0.112819 -0.000445531 -0.000161469)
(0.112954 -0.000425577 -0.000231066)
(0.114355 -0.000360255 7.82945e-05)
(0.114168 -0.000203949 -5.67154e-05)
(0.115374 -0.000191604 -0.000276531)
(0.115429 -0.000157101 -9.20218e-06)
(0.114992 -0.000170959 -0.000192509)
(0.11397 -0.000333358 -0.000259486)
(0.1139 1.26234e-05 -0.000176109)
(0.114878 7.067e-05 -2.96912e-05)
(0.114871 0.000263132 -0.000232502)
(0.115533 5.84856e-05 -0.000471562)
(0.115045 0.000164726 -0.000140529)
(0.115533 -9.60283e-05 -0.000345049)
(0.114846 -0.000161265 -2.26428e-07)
(0.114473 2.06853e-05 5.3694e-05)
(0.113831 -0.000414772 0.000126192)
(0.115225 -0.000294513 4.48514e-05)
(0.114105 -1.6976e-06 4.11692e-05)
(0.111615 -4.80504e-05 -0.000316749)
(0.114777 -3.73356e-06 2.78034e-05)
(0.11142 0.000145877 -0.000545183)
(0.114739 1.18313e-05 -0.000123141)
(0.115445 -2.01306e-05 -0.000333851)
(0.114569 6.80421e-05 -0.000280872)
(0.114898 4.93695e-05 0.000254167)
(0.11077 4.24994e-05 -7.40786e-05)
(0.109437 -7.65194e-05 -0.000341426)
(0.104041 -2.84451e-05 -0.000250928)
(0.10995 -0.000549364 -0.000609611)
(0.103184 -0.000381347 -0.000144467)
(0.115707 0.000288416 0.000527328)
(0.114675 0.00028845 0.000134008)
(0.113976 -0.000206916 -0.000224069)
(0.110786 -0.000165027 -0.000141657)
(0.114797 4.06703e-05 -0.000434373)
(0.114642 -8.40232e-07 -0.000253838)
(0.113908 -8.75289e-05 -0.000165528)
(0.110597 -7.6836e-05 -0.000122103)
(0.115534 0.000192608 0.000439154)
(0.115609 1.90685e-05 0.000472084)
(0.115617 3.62155e-05 0.000436359)
(0.114801 0.000123163 0.000450642)
(0.114659 0.000458061 9.50838e-05)
(0.11461 0.000318026 4.50271e-05)
(0.115309 0.000386397 -1.80654e-05)
(0.109222 -2.62496e-05 -0.000213663)
(0.110519 8.95215e-05 -6.0782e-05)
(0.102786 -0.000122989 -0.000279713)
(0.11124 0.000244508 -0.000326943)
(0.110499 -0.000129724 -0.000289273)
(0.109865 9.7246e-05 -0.000375887)
(0.103442 -0.000114605 -0.000583907)
(0.115119 -6.94275e-05 3.40294e-06)
(0.113827 -0.000179057 -0.000313303)
(0.115209 -0.000271907 -0.000106698)
(0.113022 -0.000182657 -0.000216293)
(0.114493 -0.00023145 -0.000291892)
(0.110174 -9.86049e-05 -0.000352079)
(0.110634 -5.25335e-05 -0.000445229)
(0.103383 -0.000177073 -0.000259725)
(0.111313 -0.000202714 -0.000152114)
(0.10981 2.31746e-05 -3.75835e-05)
(0.109545 -9.05517e-06 0.000118991)
(0.104297 -7.3355e-05 4.37766e-05)
(0.115123 -0.000329009 4.47762e-06)
(0.114333 -0.000190473 0.000112803)
(0.114228 -0.000147834 -0.000159691)
(0.115165 -8.24954e-05 -0.000181538)
(0.111128 -5.66984e-05 -0.000765453)
(0.110947 0.000191158 -0.000467786)
(0.112921 -4.64338e-05 -0.000471856)
(0.103843 -0.000122267 -0.000687637)
(0.113575 0.000214652 0.000103389)
(0.113877 -0.000246452 4.41765e-05)
(0.113687 -5.76684e-05 0.00010261)
(0.110622 -1.03092e-05 0.000203156)
(0.111279 -0.000259903 -0.000227912)
(0.113474 -2.95247e-05 -0.00041252)
(0.113307 8.57332e-05 -0.000528456)
(0.113858 -2.94185e-05 -0.000166434)
(0.115166 -9.52071e-05 -7.0022e-05)
(0.114419 0.000106622 0.000146601)
(0.111663 0.000269755 -0.000629995)
(0.110002 0.000406012 -0.000413858)
(0.111277 0.000764087 -0.000479428)
(0.102617 -0.000128976 -0.000488044)
(0.115927 -5.31001e-05 6.5454e-05)
(0.115894 -0.000134505 0.000104424)
(0.114521 -4.39627e-06 2.80115e-05)
(0.115893 3.77173e-05 5.20472e-05)
(0.114539 -9.52455e-06 -0.000295967)
(0.112587 -2.45095e-05 -0.000244046)
(0.112256 8.42507e-05 -0.000463892)
(0.114352 -5.6684e-05 -0.000125304)
(0.112011 -0.000738815 -0.000115357)
(0.11228 -0.000594006 0.000111024)
(0.103794 -0.000185979 -0.000200693)
(0.11146 -0.000540661 0.000716259)
(0.110541 -0.000230946 0.000645198)
(0.111807 -0.000471706 0.000429837)
(0.103038 -4.02571e-06 0.000128796)
(0.113252 -0.000216805 -9.22291e-05)
(0.109886 -0.000205316 -4.5803e-05)
(0.111458 -0.000221836 -0.000622914)
(0.115916 -7.95201e-05 -0.000154582)
(0.115135 -5.64814e-05 -0.000242693)
(0.110286 0.000269091 0.000257074)
(0.109654 0.000116472 0.000178191)
(0.110929 -0.00010372 -7.79759e-05)
(0.103027 -3.84323e-05 0.000189812)
(0.111887 -0.000153249 -0.000539194)
(0.111827 0.000301852 -0.000240826)
(0.103823 -0.000315909 -0.00059892)
(0.109644 -7.99707e-05 0.000223887)
(0.111438 9.0495e-05 0.000175633)
(0.109906 -0.000221266 5.81328e-05)
(0.103854 -0.000112119 4.79117e-05)
(0.109867 -0.000586381 -6.45352e-05)
(0.111593 -0.000507886 0.000423058)
(0.110782 -0.00075388 -7.30506e-05)
(0.102814 -0.000321573 -0.000149004)
(0.112522 0.000135488 -0.000184903)
(0.113339 0.000125018 0.000109851)
(0.113582 -0.000117444 2.09598e-05)
(0.109924 7.55966e-07 4.19882e-05)
(0.110385 0.000471845 0.000161593)
(0.109813 0.000259658 0.000261181)
(0.10379 0.000205179 0.000210018)
(0.115133 -0.000436171 -1.35534e-05)
(0.11476 -0.000327087 6.93001e-05)
(0.115215 -0.000341473 -7.04029e-05)
(0.114956 -0.000416 4.1962e-05)
(0.114671 -0.000193868 0.000147777)
(0.114731 -0.000131444 -6.38903e-05)
(0.115669 -0.000229366 8.71322e-05)
(0.115883 -0.000194718 0.000176473)
(0.108605 0.000123079 -0.000714091)
(0.10872 6.39616e-05 -0.000228389)
(0.110208 0.000105409 -0.000320083)
(0.104088 -0.00025586 -0.000302426)
(0.111901 -0.00022866 0.000249455)
(0.112592 -0.000676361 4.45676e-05)
(0.11251 -0.000253917 8.29443e-05)
(0.107196 -0.000212875 0.000141375)
(0.113142 0.000522923 -0.000249127)
(0.114182 0.000322273 -0.000426116)
(0.114268 0.000284662 -0.000499133)
(0.111215 0.000119049 -0.000647856)
(0.11128 -3.47728e-05 -1.91888e-05)
(0.109423 -5.11589e-05 -9.11221e-05)
(0.109054 -0.000194591 -0.000161563)
(0.103949 8.53994e-05 -6.74079e-05)
(0.114747 -0.000120442 0.00031358)
(0.111314 -1.6204e-05 1.89255e-05)
(0.114278 -0.000325092 -0.00034109)
(0.115483 -6.55736e-05 -0.000323892)
(0.115007 -0.000130201 -7.65682e-05)
(0.114737 -8.15856e-06 -0.000128181)
(0.114162 0.000294536 -4.37152e-05)
(0.113298 0.000271606 -4.23864e-05)
(0.11114 0.000387944 0.00018043)
(0.114946 7.68704e-05 -3.14101e-05)
(0.11434 0.000149047 0.000178762)
(0.114946 8.22114e-05 0.000292148)
(0.114941 0.000129459 0.000156439)
(0.115002 -5.10454e-05 -2.78444e-05)
(0.114918 -0.000206485 -4.34373e-05)
(0.110993 -0.000175363 -8.87888e-05)
(0.114151 -6.07598e-05 -0.000251087)
(0.11342 -0.000143617 -6.75647e-05)
(0.114147 -0.000137921 -3.71654e-05)
(0.110071 1.99144e-05 -0.000319651)
(0.114325 -5.50804e-05 -0.000110945)
(0.114544 0.000196503 -9.35808e-06)
(0.110983 0.000108113 2.77343e-05)
(0.111145 -0.000386478 0.000471472)
(0.113643 -0.00040087 0.000382138)
(0.11375 -0.000544696 0.00041389)
(0.112877 7.00319e-05 0.000152593)
(0.113972 -0.00012945 -0.000108043)
(0.114037 -1.7523e-05 -9.42634e-06)
(0.110718 0.000157556 0.000187275)
(0.110842 0.00039965 0.000131403)
(0.10884 0.00036619 -0.000262531)
(0.103095 0.000737353 -0.000227677)
(0.114237 -1.23573e-07 0.000130826)
(0.115172 0.000167237 -0.000233568)
(0.115485 0.000619617 -0.000226613)
(0.113765 -0.000234797 0.000102523)
(0.113806 -0.000219216 0.000275512)
(0.109583 -0.000413234 0.000356604)
(0.11434 0.000270515 9.69179e-05)
(0.115048 -9.22073e-06 8.86977e-05)
(0.114967 0.000192211 -0.000101268)
(0.11505 0.000267551 -5.6019e-05)
(0.110773 -4.19169e-05 -9.7464e-05)
(0.111459 -0.000155624 5.22895e-05)
(0.110987 -0.000287005 -5.24894e-05)
(0.102974 9.86159e-05 2.61539e-05)
(0.109663 9.22915e-05 0.000274555)
(0.109508 -0.000113891 0.000258311)
(0.110647 -5.21256e-05 0.000452028)
(0.103428 -0.000177315 0.00026099)
(0.113834 -0.000116012 -0.000375152)
(0.114568 6.4678e-06 4.2509e-05)
(0.115296 -0.000154908 -0.00011886)
(0.115013 0.000131309 -3.91205e-06)
(0.114179 -0.000244027 -5.49062e-05)
(0.115164 -2.44676e-06 -8.34907e-05)
(0.113901 0.000134757 -4.66515e-05)
(0.112441 -0.000125344 0.000588661)
(0.114051 -0.000138028 0.000153768)
(0.113793 -0.000155981 0.000346084)
(0.112887 -0.000177662 0.000571368)
(0.113698 -8.16341e-05 7.53688e-05)
(0.114644 -0.000214391 2.05811e-05)
(0.111005 -1.93465e-05 0.000192763)
(0.114909 -8.01323e-05 -0.000334205)
(0.115 7.53462e-05 -0.000219973)
(0.113869 -5.66698e-05 -3.02321e-05)
(0.110946 0.000179863 -0.000186622)
(0.113604 3.97027e-05 -0.000334671)
(0.111222 9.42671e-07 -0.000338498)
(0.113573 0.000161207 -0.000202112)
(0.111076 0.000297283 0.000191469)
(0.113484 0.000415548 0.000313877)
(0.111663 0.000190195 0.000493244)
(0.113728 0.000313926 0.000285114)
(0.115396 9.2969e-05 -0.000158577)
(0.11397 0.000292271 -0.000271809)
(0.114301 -0.000165796 -0.000447585)
(0.111049 8.75644e-05 3.99284e-05)
(0.103457 8.55137e-06 -0.000165131)
(0.111201 0.000147289 -9.20369e-05)
(0.113354 3.97428e-05 -8.27395e-05)
(0.115518 0.000233316 -5.44617e-05)
(0.115394 2.02872e-05 -3.85543e-05)
(0.114877 7.53888e-05 4.47815e-05)
(0.115479 4.92842e-05 0.000112889)
(0.114978 -0.000324484 2.09092e-05)
(0.114894 -0.000391614 -0.000159253)
(0.114928 -0.000378702 -0.000120213)
(0.114979 -0.000368431 -0.000271942)
(0.115004 -0.000420814 1.56548e-05)
(0.114908 -0.000428685 -1.63198e-05)
(0.113754 -0.000359713 9.76125e-05)
(0.113342 -0.000722641 0.000231993)
(0.114604 -0.000699176 -3.95355e-05)
(0.1143 -0.000703299 -0.00019758)
(0.113357 -0.000107785 -0.000220823)
(0.113316 2.96312e-05 -0.000418768)
(0.111019 -1.54739e-05 0.000132701)
(0.114929 0.000145425 -0.000163556)
(0.111346 -8.33591e-05 -0.000131952)
(0.113464 0.000355361 -0.000170105)
(0.113522 0.000377829 -0.000289918)
(0.114243 -7.75079e-05 -0.000180209)
(0.110733 -0.000143992 -0.000151048)
(0.114995 6.91527e-05 -0.000204484)
(0.113963 0.000163675 -0.000256522)
(0.114474 -4.36982e-05 -0.000322809)
(0.103628 3.89974e-05 -0.000209565)
(0.113941 0.000102817 -0.000171282)
(0.111153 -8.43038e-06 -0.000119496)
(0.111498 0.000144128 -0.000196987)
(0.113566 0.000209309 4.86996e-05)
(0.111326 0.000230268 -0.000198215)
(0.113769 0.000446753 -0.000133772)
(0.114095 -4.33315e-05 -0.000159988)
(0.113748 -1.5425e-05 -0.000223164)
(0.113615 9.40305e-05 -1.15687e-05)
(0.111309 0.000119274 -0.00025421)
(0.115026 -9.4375e-06 -0.000266673)
(0.113794 -8.14889e-05 -0.000440378)
(0.114622 -0.000178 -0.00038739)
(0.113524 -0.000262738 -0.000404475)
(0.113398 -0.00035916 -0.000323291)
(0.114822 -0.000238337 -0.000197286)
(0.114166 -0.000293183 -6.74437e-05)
(0.114884 0.000135926 -0.000327576)
(0.11508 -4.45144e-05 -0.000247596)
(0.110445 -0.000538429 -0.000244885)
(0.111149 -0.000696546 -0.000329883)
(0.103223 -8.65994e-05 -0.000264782)
(0.112841 -0.000377633 6.73344e-05)
(0.11422 -0.000344167 -3.09679e-05)
(0.115119 -0.000218703 -0.000202228)
(0.113936 -5.26602e-05 -0.000215824)
(0.115256 -0.000288295 -0.000159523)
(0.11536 -7.31015e-05 6.73983e-05)
(0.115061 1.34193e-05 -0.000114526)
(0.114473 0.000107049 0.000146746)
(0.111616 -0.000154966 -0.000382614)
(0.114457 -0.00019769 -0.00041887)
(0.108111 0.000297885 0.000210068)
(0.10957 -9.50477e-05 0.000626919)
(0.109381 -0.000182099 0.000388608)
(0.102068 -0.000224231 0.000452357)
(0.114439 -0.000373453 -2.46421e-05)
(0.113974 -0.000466848 0.000127899)
(0.111478 -0.000397782 0.00053337)
(0.109257 -0.000588062 -0.000293851)
(0.103828 -0.000227281 -0.00016664)
(0.113153 0.000167957 -0.000208127)
(0.113274 0.000242208 5.60599e-06)
(0.101553 -2.36043e-06 -0.000233228)
(0.11407 -0.000175217 0.000211845)
(0.115226 -0.00026479 0.000218812)
(0.109958 -3.12633e-05 0.000221811)
(0.111896 0.000375465 0.000284768)
(0.11237 -1.84013e-05 7.48828e-05)
(0.110677 0.000293476 -0.000149407)
(0.110746 0.000139899 -0.000212578)
(0.111037 0.000260093 -0.000430032)
(0.103035 3.94728e-05 -6.21276e-05)
(0.113755 -0.00011188 4.19725e-05)
(0.11339 -7.84052e-05 3.91997e-05)
(0.112904 -4.9527e-05 9.92502e-05)
(0.114397 0.000440568 -0.000166431)
(0.115087 0.000371118 -0.000196652)
(0.112984 -3.88519e-05 -0.000155811)
(0.113688 -0.000124639 -0.000256071)
(0.115013 -0.000447466 -0.000207494)
(0.114644 0.000133148 0.000234539)
(0.111373 -0.000214884 -9.18398e-05)
(0.111246 -6.21904e-05 -0.0001496)
(0.102707 -5.84088e-05 -9.25335e-06)
(0.110028 -0.0004821 4.23069e-05)
(0.109045 -0.000260074 0.00031784)
(0.103606 -0.000234659 7.62144e-05)
(0.114665 -0.000505921 0.000188606)
(0.113397 -0.000105239 0.000334501)
(0.114197 -0.000313552 0.000362383)
(0.113277 -0.000223436 1.53317e-05)
(0.114732 0.000138921 -0.000376968)
(0.115443 3.88338e-05 -0.000373722)
(0.113775 0.000188669 -0.000330444)
(0.110592 0.00041147 0.000102884)
(0.111231 0.00017248 4.62639e-05)
(0.102317 0.000285466 -0.000378787)
(0.115102 -0.000564699 7.28289e-05)
(0.115146 -0.000574427 0.000186937)
(0.114955 -0.000502911 0.000180076)
(0.112329 -6.18906e-05 -0.000128478)
(0.110705 0.00013172 -0.000353022)
(0.103745 1.1755e-05 -0.000283723)
(0.109389 -6.25008e-05 0.00015744)
(0.109384 -0.000259784 0.000102056)
(0.104075 -0.000102728 -3.37461e-05)
(0.113754 0.000178541 -0.000164635)
(0.11359 0.000166323 -0.000129488)
(0.114482 0.000240329 7.3803e-05)
(0.11105 -0.000119868 -0.000130548)
(0.113371 -0.00016643 -0.000268011)
(0.114792 -0.000260806 1.51485e-05)
(0.11326 -0.000168337 0.000309783)
(0.114343 -0.000107338 -1.33165e-05)
(0.112691 -0.000654368 0.000273321)
(0.113732 -0.000493539 9.61779e-05)
(0.113802 -0.00051916 4.62217e-05)
(0.109574 -0.00043075 2.353e-05)
(0.109836 -0.000122444 0.000422332)
(0.112514 0.000162022 0.000331387)
(0.111243 -3.20575e-05 4.15756e-05)