/*--------------------------------*- C++ -*----------------------------------*\
| =========                 |                                                 |
| \\      /  F ield         | OpenFOAM: The Open Source CFD Toolbox           |
|  \\    /   O peration     | Version:  2212                                  |
|   \\  /    A nd           | Website:  www.openfoam.com                      |
|    \\/     M anipulation  |                                                 |
\*---------------------------------------------------------------------------*/
FoamFile
{
    version     2.0;
    format      ascii;
    arch        "LSB;label=32;scalar=64";
    class       volScalarField;
    location    "0.036";
    object      epsilon;
}
// * * * * * * * * * * * * * * * * * * * * * * * * * * * * * * * * * * * * * //

dimensions      [0 2 -3 0 0 0 0];

internalField   nonuniform List<scalar> 
31639
(
0.641851
0.637851
0.642254
0.637425
0.652611
0.64172
0.661512
0.646574
0.645065
0.636541
0.64087
0.636567
0.63574
0.633933
0.634716
0.663073
0.644986
0.653389
0.651551
0.639771
0.680222
0.643817
0.635983
0.654473
0.659406
0.645363
0.637176
0.53343
0.655999
0.639955
0.636134
0.656339
0.635122
0.659383
0.677778
0.639265
0.6804
0.640107
0.637242
0.693273
0.668942
0.674719
0.632398
0.642465
0.644689
0.636406
0.639112
0.651534
0.643034
0.637504
0.63617
0.682742
0.641811
0.688351
0.651519
0.648169
0.680734
0.639803
0.636837
0.679336
0.646177
0.646991
0.66718
0.637612
0.6441
0.635301
0.640634
0.638703
0.67418
0.63672
0.637572
0.63458
0.634332
0.638018
0.641898
0.681035
0.634955
0.652581
0.63548
0.644732
0.6581
0.694788
0.635359
0.639127
0.630539
0.635691
0.636399
0.636234
0.666433
0.637068
0.638197
0.647453
0.674003
0.637356
0.656554
0.638146
0.647214
0.637482
0.639246
0.678005
0.639525
0.636643
0.633037
0.678731
0.67441
0.637142
0.679465
0.68627
0.662039
0.687141
0.627949
0.674539
0.641675
0.655354
0.635107
0.683528
0.660361
0.65771
0.644475
0.638793
0.644136
0.637755
0.634094
0.644621
0.650302
0.639576
0.640429
0.659535
0.660301
0.633286
0.633737
0.631093
0.631212
0.656063
0.642138
0.637446
0.675706
0.681252
0.63601
0.638891
0.638627
0.637903
0.637134
0.680619
0.69019
0.634442
0.639648
0.677484
0.67235
0.637619
0.672161
0.646904
0.652914
0.642551
0.677141
0.636903
0.647067
0.674541
0.667532
0.655843
0.635551
0.680108
0.672055
0.681062
0.68262
0.638512
0.679413
0.638537
0.636868
0.673909
0.633809
0.638094
0.676423
0.636691
0.634621
0.64031
0.638468
0.638768
0.636986
0.631679
0.636608
0.646272
0.630413
0.689956
0.648803
0.637421
0.631992
0.638714
0.682816
0.678927
0.646084
0.643242
0.640996
0.638043
0.63747
0.653731
0.658337
0.63412
0.676171
0.651642
0.638288
0.64009
0.627705
0.628386
0.652812
0.640088
0.637058
0.634134
0.639707
0.692463
0.639325
0.655439
0.640946
0.641014
0.64937
0.633248
0.673214
0.660056
0.643471
0.638004
0.634172
0.653254
0.678958
0.647603
0.68054
0.65688
0.640271
0.662665
0.677274
0.644785
0.64144
0.63843
0.669813
0.685301
0.640298
0.640084
0.671622
0.633094
0.673573
0.678875
0.636563
0.63856
0.636735
0.662158
0.67394
0.645695
0.633942
0.637544
0.669759
0.638437
0.632377
0.682416
0.664533
0.63836
0.64155
0.65815
0.67476
0.634504
0.633929
0.660358
0.63677
0.635468
0.648037
0.636921
0.637653
0.6512
0.67305
0.657502
0.628136
0.63202
0.626502
0.654806
0.65256
0.65064
0.637722
0.644807
0.676746
0.653808
0.666802
0.636072
0.652418
0.640416
0.639285
0.65812
0.67229
0.678684
0.673699
0.686569
0.632809
0.670039
0.645774
0.63425
0.654288
0.670332
0.641916
0.655772
0.677337
0.640889
0.656316
0.678323
0.640433
0.666691
0.638032
0.634911
0.677494
0.651473
0.635749
0.684576
0.685692
0.635665
0.63664
0.624989
0.679946
0.680583
0.635953
0.665151
0.656766
0.639381
0.641198
0.638261
0.636894
0.636572
0.674523
0.6331
0.687231
0.688181
0.640181
0.636039
0.635051
0.636906
0.643453
0.669513
0.632738
0.635024
0.638904
0.644607
0.639601
0.638271
0.632612
0.642923
0.6349
0.638047
0.636024
0.64426
0.634706
0.647516
0.639325
0.630697
0.676566
0.651383
0.63839
0.652845
0.645055
0.631233
0.637222
0.677145
0.636321
0.638538
0.681555
0.642113
0.673116
0.649897
0.631629
0.683862
0.639418
0.639387
0.676006
0.646231
0.674153
0.646446
0.642974
0.649164
0.686537
0.642902
0.672314
0.643406
0.636422
0.64013
0.643275
0.676386
0.631705
0.67504
0.636562
0.684033
0.635124
0.632553
0.635544
0.634987
0.654891
0.646311
0.639409
0.643231
0.638068
0.685638
0.644834
0.637846
0.632175
0.634907
0.646021
0.643683
0.647987
0.680965
0.653454
0.640508
0.634832
0.685104
0.638212
0.636385
0.640503
0.628201
0.632787
0.653542
0.633348
0.665102
0.642724
0.638283
0.684646
0.646507
0.640723
0.675992
0.675516
0.676382
0.661384
0.685863
0.641634
0.626477
0.660935
0.645814
0.676173
0.634318
0.636103
0.63886
0.638718
0.650941
0.639954
0.642845
0.659468
0.634648
0.635731
0.677662
0.638105
0.640581
0.635609
0.643594
0.637677
0.635408
0.643169
0.640415
0.638404
0.64408
0.6742
0.641242
0.687634
0.665025
0.637596
0.680746
0.693673
0.655109
0.637651
0.640122
0.678771
0.643142
0.664164
0.636425
0.644735
0.549778
0.636115
0.689061
0.636025
0.634934
0.63962
0.634501
0.652567
0.670377
0.644629
0.634683
0.633953
0.683213
0.681789
0.638093
0.680076
0.672404
0.642835
0.684198
0.65201
0.665995
0.647007
0.673332
0.63598
0.63648
0.635435
0.635078
0.675217
0.636474
0.638348
0.647023
0.64427
0.637433
0.633497
0.646472
0.659404
0.638289
0.636202
0.635561
0.654121
0.637031
0.638004
0.684491
0.692033
0.641835
0.645592
0.635542
0.641709
0.646292
0.651908
0.634439
0.642656
0.657857
0.643629
0.672755
0.638102
0.649482
0.6402
0.678773
0.667794
0.668662
0.636259
0.63537
0.681198
0.643592
0.660827
0.641583
0.646486
0.633141
0.651835
0.678747
0.638313
0.63274
0.668764
0.638658
0.636751
0.628466
0.638591
0.537183
0.672001
0.636395
0.638751
0.674993
0.675179
0.639207
0.638622
0.642863
0.673832
0.653711
0.636965
0.637863
0.671973
0.672207
0.640315
0.636144
0.680576
0.683888
0.639427
0.679904
0.637226
0.641236
0.679542
0.635496
0.649306
0.655959
0.690727
0.636766
0.660348
0.670768
0.633913
0.638711
0.639994
0.63609
0.682544
0.653096
0.645975
0.652894
0.681244
0.662891
0.653531
0.630829
0.636297
0.642119
0.633302
0.636718
0.663269
0.633592
0.642824
0.644942
0.668149
0.63841
0.647404
0.644904
0.677004
0.684953
0.635127
0.659419
0.637949
0.638989
0.671061
0.645519
0.63587
0.659717
0.643253
0.672004
0.634758
0.640219
0.687627
0.63694
0.638054
0.53671
0.675572
0.683293
0.657663
0.637529
0.640124
0.641422
0.637154
0.636258
0.639318
0.640939
0.678695
0.634237
0.685945
0.638436
0.653464
0.651967
0.63649
0.63761
0.666198
0.678979
0.686763
0.652326
0.635138
0.659743
0.636598
0.660695
0.633752
0.678624
0.636544
0.639785
0.637593
0.636368
0.630871
0.637146
0.656537
0.641066
0.641253
0.640661
0.672341
0.634361
0.671759
0.638083
0.654157
0.640264
0.673281
0.63783
0.680979
0.635667
0.655544
0.642489
0.641982
0.636932
0.668998
0.622778
0.674772
0.695845
0.682003
0.681463
0.672891
0.643689
0.688443
0.627102
0.64685
0.689088
0.63915
0.678516
0.650885
0.633786
0.650452
0.643671
0.634663
0.632156
0.640787
0.647532
0.633581
0.657251
0.651828
0.678757
0.568493
0.638493
0.638408
0.642546
0.637573
0.677616
0.638035
0.641192
0.635944
0.633394
0.634223
0.637806
0.63706
0.637989
0.643155
0.640018
0.640854
0.674563
0.637596
0.65338
0.642418
0.632603
0.63478
0.65582
0.641488
0.643504
0.641162
0.657951
0.683914
0.635852
0.646385
0.659524
0.683601
0.633527
0.675822
0.628282
0.648889
0.636475
0.647635
0.638311
0.646714
0.680701
0.63818
0.66153
0.649361
0.671748
0.633262
0.635593
0.63859
0.640741
0.635294
0.645364
0.659956
0.643994
0.682235
0.632431
0.64439
0.630246
0.674712
0.634551
0.63535
0.638867
0.66331
0.639778
0.634083
0.640304
0.678462
0.682335
0.6357
0.675861
0.659054
0.643911
0.640114
0.631575
0.679299
0.633244
0.634898
0.668393
0.673362
0.630895
0.671441
0.655106
0.675809
0.642356
0.664342
0.656674
0.638579
0.678493
0.636991
0.637371
0.636373
0.641198
0.634049
0.678814
0.632691
0.644926
0.656295
0.636754
0.637259
0.645397
0.637075
0.635785
0.644015
0.64033
0.643224
0.634041
0.653085
0.63923
0.63505
0.672283
0.631024
0.645663
0.634165
0.647501
0.644566
0.637249
0.640073
0.632093
0.646383
0.638158
0.643416
0.647839
0.675082
0.645766
0.636231
0.688787
0.651403
0.639211
0.653875
0.639826
0.636055
0.635967
0.632582
0.641792
0.641429
0.641539
0.643201
0.639154
0.65648
0.677188
0.636945
0.686495
0.641257
0.652302
0.639998
0.643337
0.638238
0.681102
0.639733
0.6745
0.638448
0.663571
0.638142
0.638424
0.635119
0.676037
0.636892
0.638519
0.651068
0.645161
0.649205
0.686136
0.639341
0.64024
0.639048
0.632654
0.634602
0.635457
0.660626
0.63705
0.667388
0.652398
0.637566
0.671268
0.669064
0.645285
0.635515
0.657782
0.649429
0.649181
0.656951
0.636247
0.662638
0.637876
0.646033
0.690762
0.647265
0.631367
0.646813
0.653235
0.634255
0.635865
0.674422
0.675192
0.638014
0.639431
0.630888
0.66442
0.634971
0.637873
0.673395
0.640592
0.633835
0.635167
0.645665
0.632601
0.645115
0.63316
0.631338
0.650907
0.672582
0.641408
0.637421
0.665328
0.634199
0.683365
0.638328
0.646621
0.676705
0.642276
0.654053
0.635718
0.649881
0.643452
0.683902
0.68432
0.649871
0.672995
0.635518
0.635084
0.638714
0.637153
0.660715
0.638698
0.644315
0.655568
0.655897
0.634239
0.639745
0.646599
0.679885
0.642564
0.640117
0.632772
0.637707
0.687947
0.673062
0.640366
0.634761
0.661524
0.639132
0.654744
0.638022
0.642708
0.647294
0.636094
0.651494
0.676113
0.635785
0.653118
0.675406
0.661272
0.635983
0.657261
0.641625
0.642334
0.654616
0.679501
0.635947
0.674286
0.645292
0.65073
0.670454
0.646407
0.679887
0.640269
0.646325
0.642338
0.690726
0.674662
0.630906
0.639691
0.65392
0.634164
0.644666
0.634617
0.680243
0.676907
0.64686
0.644925
0.641902
0.641118
0.633397
0.647419
0.634603
0.646225
0.650641
0.633807
0.687655
0.644527
0.63627
0.637595
0.645494
0.644761
0.657789
0.635027
0.641285
0.683347
0.63904
0.667103
0.638672
0.65242
0.632234
0.680551
0.634491
0.640711
0.645274
0.637568
0.684301
0.632938
0.640053
0.633103
0.675818
0.63869
0.644614
0.628424
0.643945
0.639942
0.637032
0.638769
0.660298
0.646577
0.681191
0.682457
0.68065
0.667822
0.640595
0.682199
0.638875
0.636905
0.65107
0.642029
0.641128
0.639945
0.636387
0.641563
0.658648
0.638774
0.653644
0.663242
0.633003
0.635912
0.639228
0.634735
0.657664
0.645532
0.642174
0.63405
0.643431
0.640154
0.657973
0.640912
0.651848
0.645803
0.635872
0.638533
0.63517
0.638057
0.635754
0.651289
0.64056
0.642243
0.679291
0.68975
0.635314
0.665066
0.651837
0.657037
0.678364
0.646146
0.639667
0.67466
0.656307
0.63719
0.637888
0.637464
0.636868
0.678726
0.639837
0.654334
0.653574
0.642245
0.643208
0.687284
0.664613
0.664924
0.647898
0.642719
0.642768
0.643946
0.647374
0.637967
0.647037
0.663314
0.658644
0.695033
0.65167
0.642586
0.646354
0.64776
0.641383
0.67732
0.642532
0.655522
0.649492
0.644963
0.634576
0.682115
0.637818
0.678232
0.63594
0.643786
0.653292
0.644695
0.647621
0.643811
0.664523
0.642252
0.654945
0.654007
0.650306
0.685055
0.630773
0.639824
0.646511
0.633133
0.639663
0.674123
0.661687
0.647283
0.675865
0.635187
0.645708
0.637807
0.633954
0.637316
0.676981
0.683385
0.67526
0.640777
0.688063
0.633473
0.641847
0.671978
0.653762
0.637309
0.640513
0.662841
0.660087
0.638905
0.640064
0.643587
0.647284
0.667591
0.639526
0.646936
0.643771
0.651197
0.638197
0.645257
0.639117
0.648746
0.684348
0.684677
0.64302
0.656027
0.647048
0.692512
0.639698
0.646474
0.635194
0.681336
0.651198
0.637746
0.646338
0.66218
0.68072
0.642234
0.669638
0.64967
0.649821
0.63529
0.637431
0.639091
0.686916
0.682483
0.638615
0.656232
0.657152
0.647066
0.687002
0.628353
0.636467
0.662785
0.634644
0.635678
0.642814
0.636334
0.642138
0.643072
0.640989
0.683084
0.651953
0.637781
0.684292
0.643185
0.641577
0.665777
0.637004
0.593713
0.63802
0.634529
0.637442
0.686042
0.638825
0.64208
0.683177
0.651855
0.636977
0.662272
0.642113
0.676321
0.675544
0.641228
0.654017
0.635821
0.639266
0.634894
0.632895
0.637628
0.635671
0.635776
0.643842
0.672535
0.637847
0.651177
0.639453
0.650894
0.66241
0.659843
0.643201
0.682356
0.644479
0.641912
0.644599
0.695613
0.644606
0.6901
0.641841
0.690492
0.643072
0.643398
0.647918
0.638766
0.672946
0.675145
0.639805
0.644104
0.650989
0.641469
0.660074
0.631191
0.643458
0.636533
0.675514
0.666498
0.635366
0.63545
0.651897
0.648959
0.671244
0.643245
0.636951
0.636812
0.639357
0.642075
0.638241
0.637773
0.638318
0.676808
0.637598
0.643661
0.637571
0.64395
0.645699
0.690041
0.660219
0.638507
0.644859
0.641116
0.644848
0.637794
0.633079
0.639864
0.642127
0.634202
0.636869
0.657515
0.655493
0.632854
0.638378
0.640357
0.683347
0.644854
0.675439
0.637496
0.676701
0.675424
0.633948
0.679072
0.664924
0.642682
0.635697
0.636917
0.656239
0.639615
0.643187
0.679267
0.683786
0.664165
0.660424
0.637992
0.644947
0.647206
0.685321
0.646503
0.637619
0.637095
0.677063
0.676114
0.645326
0.645076
0.649245
0.658607
0.679514
0.656697
0.663525
0.63911
0.635851
0.679978
0.645271
0.64214
0.671825
0.68665
0.636447
0.660134
0.662017
0.632778
0.645997
0.632532
0.64265
0.633425
0.659574
0.6406
0.659503
0.635548
0.657409
0.641574
0.641087
0.634609
0.671123
0.630805
0.629575
0.645027
0.637682
0.643805
0.670257
0.565601
0.641781
0.657236
0.637868
0.65183
0.629843
0.678982
0.636646
0.641044
0.685565
0.646652
0.641532
0.686144
0.672209
0.639479
0.637209
0.637896
0.658133
0.67657
0.634441
0.643873
0.640529
0.64491
0.633937
0.679507
0.639475
0.639587
0.678364
0.674755
0.693899
0.663667
0.632248
0.658118
0.642536
0.638494
0.65226
0.651606
0.682443
0.684814
0.643978
0.643225
0.679797
0.643715
0.651802
0.683
0.64338
0.654139
0.677212
0.647978
0.630944
0.682169
0.689682
0.635666
0.641605
0.666771
0.642636
0.663547
0.670847
0.677336
0.64511
0.673837
0.684145
0.641344
0.629716
0.642952
0.650899
0.639778
0.642119
0.637829
0.530089
0.649411
0.672747
0.632519
0.645398
0.634596
0.655099
0.635928
0.66791
0.636044
0.638162
0.647874
0.681867
0.674075
0.686717
0.65583
0.676237
0.649758
0.665358
0.652653
0.635079
0.644499
0.656492
0.64081
0.64625
0.640689
0.634493
0.68183
0.642253
0.636618
0.636474
0.6362
0.639547
0.666497
0.648774
0.639264
0.677823
0.652199
0.635348
0.635013
0.629881
0.644167
0.647664
0.685115
0.673088
0.637571
0.639518
0.64684
0.632919
0.659065
0.65368
0.669709
0.681608
0.680953
0.687794
0.635753
0.638706
0.634357
0.635694
0.654465
0.644947
0.697484
0.637297
0.645338
0.64182
0.632394
0.642545
0.637063
0.639091
0.641529
0.55558
0.657173
0.642872
0.641247
0.63725
0.644046
0.644552
0.638322
0.637917
0.660937
0.636022
0.647311
0.63407
0.635442
0.682064
0.635248
0.64049
0.645518
0.633841
0.670375
0.684634
0.637561
0.64197
0.662739
0.633803
0.633394
0.633111
0.63019
0.654275
0.643501
0.645
0.641328
0.692174
0.694045
0.642628
0.654296
0.671442
0.636
0.675436
0.650276
0.639666
0.649534
0.655334
0.632045
0.6546
0.645079
0.642234
0.648738
0.637816
0.656714
0.68407
0.639402
0.693349
0.698214
0.566121
0.667382
0.683194
0.647747
0.641328
0.674409
0.656065
0.690546
0.677342
0.634881
0.642151
0.67946
0.684715
0.633725
0.680355
0.640493
0.642951
0.654814
0.633057
0.676998
0.677099
0.64549
0.643827
0.677345
0.676495
0.654647
0.659597
0.641955
0.636572
0.686417
0.641094
0.680638
0.690147
0.659739
0.650248
0.662483
0.655069
0.659227
0.636243
0.683269
0.673959
0.639161
0.632686
0.63841
0.690789
0.68954
0.652323
0.63362
0.634798
0.64128
0.649598
0.632759
0.634498
0.670557
0.636618
0.658362
0.672473
0.689005
0.631971
0.636982
0.639354
0.637261
0.637827
0.678106
0.653821
0.683426
0.701147
0.653132
0.68097
0.662078
0.638613
0.598477
0.674262
0.636869
0.635953
0.637581
0.643138
0.706833
0.639591
0.671431
0.642445
0.68178
0.638987
0.686832
0.641685
0.654887
0.662269
0.654285
0.687972
0.660699
0.635473
0.636789
0.642695
0.640183
0.642598
0.680983
0.640113
0.559264
0.638597
0.641857
0.63898
0.649503
0.622364
0.644049
0.653738
0.655238
0.654887
0.638068
0.640751
0.653807
0.667837
0.644585
0.651427
0.636184
0.634908
0.638774
0.651634
0.649799
0.631732
0.642878
0.631158
0.637968
0.641003
0.647421
0.592785
0.633691
0.657678
0.641895
0.642625
0.632205
0.674238
0.664534
0.640735
0.629513
0.635622
0.63098
0.636958
0.640302
0.6397
0.671536
0.665668
0.636196
0.63907
0.639765
0.636688
0.665169
0.633878
0.684408
0.635085
0.652363
0.633995
0.65055
0.640677
0.6341
0.635013
0.673438
0.638216
0.636577
0.651751
0.667985
0.642862
0.635089
0.637759
0.637549
0.637969
0.644827
0.674376
0.634937
0.659459
0.642466
0.658004
0.65717
0.67468
0.680798
0.65562
0.639029
0.643507
0.666229
0.652645
0.676738
0.648271
0.642341
0.686571
0.670628
0.662643
0.644516
0.644816
0.652906
0.607744
0.651724
0.579652
0.666242
0.634067
0.636405
0.640322
0.61983
0.644842
0.686966
0.667162
0.645346
0.664166
0.658817
0.638178
0.64112
0.641113
0.626854
0.682788
0.626543
0.637541
0.654219
0.636391
0.630714
0.641816
0.621577
0.640334
0.658612
0.669986
0.640379
0.686554
0.688117
0.655455
0.644026
0.65166
0.64882
0.641904
0.648958
0.688869
0.654337
0.640423
0.645178
0.682859
0.660295
0.661079
0.631077
0.635332
0.655368
0.640565
0.642924
0.642085
0.675836
0.636271
0.680716
0.632193
0.629963
0.634348
0.631659
0.638266
0.63172
0.673548
0.63166
0.634862
0.667866
0.636439
0.638939
0.656032
0.641593
0.651862
0.636573
0.642095
0.632533
0.639466
0.638294
0.641511
0.634283
0.677328
0.63226
0.679784
0.66798
0.646457
0.641004
0.638638
0.640997
0.619873
0.637471
0.677976
0.644024
0.638423
0.642642
0.634628
0.678567
0.682802
0.638326
0.692655
0.633255
0.639929
0.688358
0.645392
0.645531
0.650471
0.675348
0.664428
0.682686
0.644199
0.684692
0.641244
0.631142
0.689895
0.64487
0.640283
0.636879
0.632278
0.662677
0.63766
0.643025
0.668481
0.644266
0.638896
0.650264
0.669696
0.629251
0.646529
0.639456
0.658642
0.632001
0.649493
0.654685
0.662221
0.652688
0.625542
0.633444
0.640346
0.669388
0.639076
0.638716
0.635727
0.645943
0.698546
0.630738
0.664493
0.632909
0.634151
0.638218
0.659199
0.643074
0.64051
0.643341
0.63194
0.649178
0.675935
0.669741
0.641345
0.636808
0.599903
0.657226
0.637977
0.672767
0.638251
0.683269
0.638927
0.639241
0.638675
0.676412
0.637687
0.674969
0.642982
0.648838
0.661334
0.649024
0.668328
0.65666
0.644242
0.675383
0.658992
0.633244
0.691975
0.647391
0.639726
0.69018
0.658058
0.626448
0.650187
0.643402
0.641009
0.641705
0.6279
0.656232
0.680438
0.683875
0.540087
0.636964
0.624084
0.635342
0.637978
0.669861
0.669004
0.634864
0.645621
0.679949
0.639244
0.632975
0.660273
0.629299
0.634177
0.632355
0.673413
0.650406
0.641935
0.692159
0.627691
0.624796
0.637235
0.633758
0.638404
0.641509
0.679965
0.642265
0.654661
0.635609
0.633518
0.615254
0.628686
0.637824
0.651993
0.633814
0.638769
0.630854
0.674162
0.650376
0.637471
0.622475
0.641136
0.642179
0.651589
0.642621
0.678436
0.638706
0.672547
0.644926
0.641656
0.649158
0.648661
0.650744
0.649713
0.642157
0.649322
0.630145
0.610723
0.636829
0.68259
0.639214
0.636035
0.664939
0.634244
0.629862
0.630422
0.640059
0.681965
0.637175
0.634809
0.637543
0.647571
0.643901
0.683882
0.675469
0.632508
0.676317
0.635533
0.640517
0.669819
0.650218
0.634445
0.657621
0.664713
0.662276
0.656465
0.644049
0.630654
0.656547
0.638484
0.624043
0.641204
0.680699
0.63656
0.641338
0.629394
0.674757
0.66322
0.645221
0.531045
0.665386
0.635451
0.641307
0.639716
0.616818
0.637163
0.642943
0.654973
0.636799
0.653162
0.648397
0.642961
0.632636
0.63289
0.63358
0.630562
0.63066
0.666633
0.678951
0.644776
0.561495
0.646746
0.634752
0.632072
0.630055
0.638875
0.626427
0.646726
0.630264
0.673346
0.641281
0.652429
0.633477
0.63018
0.627838
0.643569
0.646214
0.651471
0.637309
0.648639
0.646402
0.645095
0.652419
0.662669
0.662545
0.674789
0.654505
0.643181
0.676583
0.638959
0.635002
0.633116
0.631048
0.639432
0.633015
0.628602
0.614992
0.643466
0.636469
0.631308
0.64833
0.687214
0.632493
0.655019
0.636605
0.642112
0.638361
0.636901
0.644778
0.685663
0.658228
0.678737
0.639851
0.643019
0.672461
0.646137
0.643073
0.655997
0.645202
0.660358
0.672229
0.63509
0.669287
0.67021
0.55916
0.571333
0.629245
0.666429
0.641786
0.63709
0.666559
0.637533
0.633309
0.622409
0.635197
0.677431
0.636362
0.545295
0.633229
0.66099
0.668453
0.630715
0.679366
0.660284
0.652266
0.636374
0.629002
0.628999
0.65384
0.638553
0.598043
0.646099
0.642235
0.636681
0.645944
0.670333
0.623883
0.636021
0.636998
0.552525
0.672708
0.630878
0.677443
0.67278
0.635642
0.639215
0.657373
0.654912
0.646096
0.631275
0.648564
0.559242
0.686546
0.636121
0.681643
0.643327
0.669738
0.643889
0.636338
0.637702
0.670172
0.655642
0.639276
0.639489
0.648082
0.633997
0.641623
0.641277
0.636275
0.668576
0.641929
0.660999
0.620824
0.627554
0.63024
0.642259
0.631922
0.649626
0.649097
0.675599
0.630033
0.629724
0.68768
0.636137
0.638365
0.646633
0.675796
0.64095
0.653426
0.655668
0.549545
0.657811
0.636897
0.699575
0.640715
0.691251
0.673305
0.645625
0.639323
0.684411
0.642072
0.637015
0.563827
0.685721
0.632799
0.636671
0.700402
0.640128
0.697969
0.697178
0.642766
0.640358
0.6512
0.628675
0.640169
0.634101
0.65471
0.617028
0.657375
0.643971
0.644584
0.627047
0.669916
0.605156
0.654302
0.65699
0.635357
0.627691
0.645956
0.642904
0.641825
0.630968
0.637646
0.646763
0.645517
0.634409
0.639348
0.631384
0.630217
0.6414
0.643137
0.601533
0.600282
0.630036
0.648706
0.65905
0.618154
0.623791
0.659697
0.642762
0.602833
0.672253
0.66452
0.630375
0.608483
0.640984
0.639532
0.639633
0.670794
0.643089
0.657439
0.665674
0.652024
0.680741
0.62936
0.637167
0.636137
0.635096
0.675495
0.646763
0.635876
0.639421
0.639148
0.535693
0.63922
0.64515
0.641973
0.622007
0.633434
0.542704
0.634167
0.632676
0.660202
0.687252
0.661598
0.628499
0.631151
0.66422
0.66927
0.636577
0.639644
0.637077
0.66704
0.690118
0.661211
0.661593
0.638686
0.640268
0.647091
0.640516
0.634697
0.575605
0.638329
0.635799
0.642656
0.655265
0.637198
0.614537
0.671106
0.653802
0.640761
0.586468
0.584454
0.640004
0.647227
0.630266
0.686426
0.634846
0.628299
0.626166
0.62398
0.622533
0.635571
0.640835
0.635994
0.63443
0.646777
0.628042
0.635503
0.637705
0.640866
0.62731
0.627444
0.670715
0.659826
0.682542
0.650722
0.612261
0.645254
0.672766
0.643181
0.658193
0.666316
0.648727
0.634364
0.634736
0.622927
0.637082
0.642917
0.629353
0.675379
0.634541
0.667642
0.643097
0.623911
0.640564
0.635672
0.631921
0.622541
0.660706
0.665924
0.655526
0.661101
0.647373
0.555234
0.637938
0.649086
0.629383
0.644796
0.657773
0.65735
0.558738
0.63911
0.638803
0.610006
0.671092
0.664891
0.629519
0.630992
0.669056
0.536682
0.629728
0.679496
0.635162
0.642571
0.639014
0.681896
0.636056
0.668684
0.66256
0.670839
0.628943
0.638154
0.64747
0.641457
0.642249
0.641719
0.6798
0.690031
0.644543
0.642735
0.644467
0.629741
0.67311
0.627854
0.659216
0.586273
0.640386
0.656429
0.66748
0.649056
0.631367
0.668783
0.666541
0.619288
0.620074
0.635522
0.652566
0.663395
0.67606
0.633794
0.645768
0.605325
0.629865
0.646683
0.636741
0.627434
0.603794
0.61126
0.631616
0.65771
0.640202
0.629332
0.630754
0.65251
0.585481
0.607821
0.621425
0.586159
0.626414
0.626939
0.65204
0.622969
0.63454
0.5886
0.592399
0.675605
0.636953
0.587215
0.662724
0.647334
0.615933
0.638696
0.593076
0.674124
0.675497
0.638345
0.551815
0.642562
0.683774
0.643308
0.637516
0.672188
0.639719
0.600171
0.685428
0.646913
0.635576
0.639244
0.637965
0.632743
0.629065
0.628371
0.630549
0.631101
0.637857
0.621142
0.624946
0.631044
0.61984
0.630341
0.640613
0.649475
0.612506
0.629893
0.638468
0.643674
0.653186
0.648251
0.678493
0.628526
0.648409
0.637321
0.638686
0.617731
0.639723
0.677533
0.64618
0.657926
0.664962
0.599952
0.670124
0.605974
0.640004
0.641862
0.636818
0.61552
0.674892
0.635105
0.614566
0.667843
0.629294
0.625442
0.558941
0.606943
0.652782
0.659057
0.617001
0.597045
0.607224
0.671818
0.629098
0.60562
0.634321
0.67338
0.65152
0.606836
0.632699
0.600174
0.640124
0.626465
0.644189
0.645866
0.618019
0.607157
0.653936
0.666835
0.63725
0.654552
0.684294
0.576865
0.63519
0.666403
0.652179
0.675682
0.636688
0.625598
0.633411
0.542632
0.637518
0.643505
0.637437
0.629187
0.631691
0.634757
0.627741
0.653312
0.643174
0.636409
0.640112
0.654245
0.65357
0.64981
0.57816
0.661151
0.587251
0.621563
0.636007
0.605482
0.639443
0.651561
0.643917
0.643037
0.628303
0.599284
0.604945
0.542895
0.639567
0.626274
0.65527
0.64978
0.679235
0.626105
0.64248
0.61204
0.609604
0.614493
0.600918
0.636334
0.644527
0.63285
0.635329
0.614022
0.678653
0.662352
0.677599
0.586057
0.631457
0.545125
0.533514
0.649308
0.586073
0.681414
0.638532
0.680495
0.670573
0.610361
0.668147
0.660986
0.608045
0.573994
0.634036
0.679212
0.630705
0.643622
0.621339
0.633134
0.626334
0.60689
0.602692
0.6728
0.653355
0.634431
0.650208
0.63263
0.650527
0.622796
0.64562
0.638637
0.649159
0.6259
0.534688
0.529997
0.597215
0.635348
0.620853
0.638773
0.583998
0.681208
0.636988
0.651291
0.607896
0.684112
0.619845
0.612594
0.655526
0.689029
0.600621
0.6438
0.546522
0.60116
0.560894
0.633501
0.673928
0.661241
0.625219
0.66082
0.592797
0.66456
0.555457
0.635414
0.639668
0.640559
0.58499
0.688488
0.594926
0.634703
0.588458
0.608077
0.64215
0.613824
0.6914
0.616528
0.641903
0.619757
0.631533
0.640551
0.604623
0.658264
0.676367
0.621905
0.680015
0.559511
0.677594
0.659863
0.61289
0.629676
0.637148
0.640725
0.592878
0.668611
0.632538
0.58445
0.629619
0.669026
0.588359
0.637954
0.562372
0.632776
0.648485
0.637914
0.60565
0.63624
0.637248
0.670574
0.636469
0.642156
0.664545
0.548261
0.615917
0.62234
0.656807
0.648242
0.576481
0.635788
0.602132
0.60017
0.555536
0.530112
0.538855
0.649464
0.625354
0.648136
0.627666
0.653318
0.644673
0.640734
0.620139
0.558327
0.61927
0.638247
0.625411
0.635495
0.597872
0.681278
0.620206
0.636322
0.64102
0.609798
0.620286
0.635374
0.642641
0.607659
0.642726
0.611827
0.610379
0.606709
0.668879
0.582753
0.607467
0.591648
0.626677
0.590111
0.586503
0.610311
0.664199
0.585329
0.682352
0.657202
0.657656
0.56028
0.639207
0.623685
0.589953
0.621032
0.644919
0.639658
0.536876
0.63015
0.58566
0.637674
0.660493
0.645033
0.594765
0.646478
0.637083
0.62903
0.589546
0.593581
0.638439
0.630925
0.559016
0.55385
0.636629
0.564423
0.56827
0.607072
0.589742
0.638326
0.582866
0.585219
0.593482
0.626627
0.605423
0.584694
0.552892
0.629552
0.589039
0.659628
0.653527
0.63948
0.639699
0.608351
0.574019
0.597646
0.547026
0.548362
0.640219
0.649611
0.612739
0.645387
0.629653
0.63319
0.626018
0.558793
0.598267
0.675149
0.624934
0.658159
0.573083
0.648006
0.636973
0.66929
0.669901
0.619165
0.588275
0.593386
0.619021
0.630918
0.645111
0.640633
0.592169
0.577844
0.686105
0.586521
0.543573
0.572925
0.622802
0.596843
0.618674
0.588022
0.614198
0.618221
0.548513
0.664495
0.65629
0.591441
0.636484
0.595858
0.606094
0.638413
0.59226
0.676149
0.606419
0.607966
0.648375
0.581131
0.58692
0.641558
0.619675
0.579775
0.635969
0.640045
0.618311
0.631294
0.594913
0.61887
0.576484
0.605448
0.632796
0.611319
0.606513
0.626521
0.624418
0.571777
0.569821
0.556969
0.63791
0.649436
0.559706
0.631968
0.654437
0.602433
0.605093
0.666953
0.561414
0.602464
0.578194
0.58137
0.643243
0.625823
0.662863
0.650136
0.612265
0.606595
0.613892
0.614883
0.568841
0.573575
0.604833
0.559504
0.675609
0.598994
0.619454
0.582505
0.609919
0.6614
0.587002
0.561486
0.595836
0.572427
0.633746
0.634111
0.598654
0.550409
0.585535
0.568286
0.642182
0.651037
0.652808
0.644561
0.616198
0.64131
0.637272
0.671955
0.625363
0.642001
0.584295
0.635879
0.614517
0.598093
0.541728
0.671909
0.598524
0.634791
0.585044
0.63347
0.528365
0.550111
0.566352
0.630009
0.581003
0.575924
0.616322
0.612128
0.646592
0.587708
0.62667
0.65455
0.640296
0.638737
0.531217
0.593759
0.646439
0.574944
0.61367
0.582768
0.554725
0.61197
0.590227
0.596085
0.593504
0.588298
0.568873
0.569805
0.643373
0.635613
0.638397
0.612584
0.580361
0.588233
0.581713
0.621432
0.600214
0.636825
0.570579
0.603643
0.557693
0.636349
0.573945
0.570911
0.647084
0.637459
0.593666
0.617605
0.533395
0.567617
0.597833
0.554745
0.605473
0.627937
0.647486
0.629938
0.649117
0.621654
0.604807
0.595104
0.574306
0.583915
0.584213
0.66874
0.589633
0.622881
0.612426
0.57833
0.596528
0.660496
0.655719
0.673624
0.648165
0.530008
0.566506
0.680708
0.622699
0.584278
0.643399
0.666132
0.669973
0.603201
0.586795
0.614781
0.547184
0.533276
0.621076
0.543546
0.615392
0.583842
0.561432
0.584107
0.589427
0.611277
0.645979
0.550291
0.547499
0.598051
0.566995
0.593013
0.558154
0.580367
0.584115
0.620278
0.568233
0.616003
0.644397
0.619645
0.604799
0.57606
0.612067
0.604768
0.611505
0.562111
0.592852
0.616843
0.629593
0.592732
0.647192
0.574122
0.634022
0.537142
0.571311
0.559498
0.65163
0.616927
0.636339
0.663549
0.605942
0.61229
0.640323
0.610829
0.614873
0.565331
0.583738
0.623592
0.577489
0.630369
0.609721
0.539978
0.594344
0.579902
0.568337
0.53455
0.5883
0.588885
0.640865
0.553818
0.615024
0.624631
0.542368
0.569135
0.636904
0.569156
0.598296
0.586605
0.601743
0.533655
0.555123
0.585575
0.575389
0.584213
0.57551
0.583269
0.549525
0.621788
0.617257
0.575174
0.561695
0.601164
0.631609
0.589259
0.609677
0.635166
0.537024
0.54877
0.595909
0.532647
0.657682
0.617607
0.564217
0.58779
0.607969
0.552175
0.649221
0.638156
0.537017
0.643103
0.625897
0.600181
0.548059
0.566807
0.553163
0.586696
0.632316
0.658655
0.560285
0.571331
0.594246
0.562651
0.668163
0.576145
0.558804
0.537854
0.573319
0.570755
0.580053
0.59091
0.59696
0.600023
0.569299
0.573501
0.552446
0.64495
0.571828
0.530314
0.575393
0.573233
0.550972
0.621036
0.576453
0.631995
0.594914
0.616645
0.645333
0.604826
0.603822
0.587036
0.601878
0.65668
0.595096
0.570798
0.54843
0.612515
0.547334
0.528147
0.545376
0.619091
0.541193
0.539675
0.598615
0.620737
0.611811
0.623843
0.550746
0.541869
0.576035
0.586036
0.565176
0.635614
0.562993
0.637509
0.534872
0.529696
0.568897
0.556619
0.623386
0.5823
0.613708
0.58976
0.575153
0.576693
0.573077
0.625973
0.562774
0.565285
0.631517
0.561114
0.628552
0.534572
0.539726
0.584535
0.569305
0.575336
0.563199
0.589683
0.627647
0.658407
0.669946
0.645062
0.536087
0.539154
0.57324
0.589398
0.537947
0.535544
0.552864
0.54073
0.613303
0.637341
0.580123
0.60581
0.634176
0.537216
0.584012
0.578849
0.590535
0.624174
0.547758
0.597438
0.599286
0.624603
0.642455
0.570202
0.567771
0.628912
0.657364
0.620723
0.544902
0.633019
0.622864