/*--------------------------------*- C++ -*----------------------------------*\
| =========                 |                                                 |
| \\      /  F ield         | OpenFOAM: The Open Source CFD Toolbox           |
|  \\    /   O peration     | Version:  2212                                  |
|   \\  /    A nd           | Website:  www.openfoam.com                      |
|    \\/     M anipulation  |                                                 |
\*---------------------------------------------------------------------------*/
FoamFile
{
    version     2.0;
    format      ascii;
    arch        "LSB;label=32;scalar=64";
    class       volScalarField;
    location    "0.036";
    object      k;
}
// * * * * * * * * * * * * * * * * * * * * * * * * * * * * * * * * * * * * * //

dimensions      [0 2 -2 0 0 0 0];

internalField   nonuniform List<scalar> 
31639
(
0.0187256
0.0182923
0.0185768
0.0192308
0.0185425
0.0181385
0.0182907
0.0188788
0.0187037
0.0189518
0.0189673
0.018908
0.018431
0.0190568
0.0180417
0.0180207
0.0188176
0.018323
0.0178588
0.0183769
0.0170281
0.0190713
0.0191061
0.0179588
0.0178362
0.018603
0.0183362
0.0157642
0.0182556
0.0191826
0.0189675
0.0181591
0.0190672
0.0178697
0.0174359
0.0191385
0.0166728
0.0193444
0.0190262
0.0165071
0.0173495
0.0173116
0.0188319
0.0190239
0.0190578
0.018978
0.0180962
0.0183078
0.0187865
0.0191703
0.018924
0.0166176
0.0192843
0.0169943
0.0181422
0.0187067
0.0171368
0.0184242
0.0182636
0.0171051
0.0185438
0.0189855
0.0179032
0.0182693
0.018687
0.0191666
0.0184706
0.0184135
0.0176676
0.0191399
0.0190771
0.01763
0.0187772
0.0183883
0.0191804
0.0174261
0.0189205
0.0183305
0.0180954
0.0189488
0.0178298
0.0164503
0.0190449
0.0186083
0.0185519
0.0189144
0.0191312
0.0190328
0.0174964
0.0192392
0.0185119
0.0185668
0.0172102
0.0181806
0.0175875
0.0181396
0.0183483
0.0183766
0.0184842
0.0171656
0.0192106
0.018935
0.0181085
0.0169756
0.0171338
0.0190266
0.0169542
0.0168232
0.0176839
0.016997
0.018645
0.0172051
0.0182361
0.0181095
0.0183799
0.0169458
0.0184061
0.0184116
0.0189932
0.0182655
0.0189147
0.0188995
0.0187865
0.0186749
0.0185794
0.0191021
0.0183835
0.0177584
0.017567
0.0188085
0.0189254
0.0187939
0.018871
0.0182296
0.018898
0.0184095
0.0171203
0.0168839
0.0188521
0.0183946
0.0183618
0.0189504
0.0189724
0.0168692
0.0166752
0.0191019
0.0189085
0.0173
0.0171724
0.0189668
0.01783
0.0186401
0.017911
0.0188389
0.0174805
0.019162
0.0184875
0.0176412
0.0174233
0.0179426
0.0189901
0.0176019
0.0178253
0.0170521
0.0173408
0.0181665
0.0174367
0.0191678
0.0188795
0.0168809
0.0177022
0.0179464
0.0174082
0.0184218
0.0192165
0.0189031
0.0185131
0.0192069
0.0184782
0.0183305
0.0181328
0.0182717
0.0178735
0.0166452
0.0186862
0.0192606
0.0180464
0.0191311
0.0173187
0.0171357
0.0195121
0.0189554
0.0187638
0.0182574
0.0183805
0.01822
0.0182277
0.0187839
0.0170183
0.0181971
0.0190649
0.01926
0.0185867
0.0186303
0.0185864
0.0183378
0.0181427
0.0179697
0.0189452
0.0166948
0.0182866
0.0182906
0.0186693
0.0189689
0.0189175
0.0190155
0.01744
0.0179648
0.0190103
0.0189404
0.0186748
0.0183683
0.0170282
0.0184182
0.0170699
0.0184948
0.018894
0.0179688
0.0173497
0.018843
0.0186743
0.0192825
0.0174941
0.0172178
0.0187352
0.0188015
0.0170822
0.0190209
0.017888
0.0169501
0.0181228
0.0186705
0.018294
0.0180573
0.0180006
0.0188748
0.0180497
0.0179457
0.0172676
0.0182605
0.0179412
0.0174943
0.0180773
0.0191873
0.0190146
0.0181553
0.0174601
0.0187598
0.0187188
0.018571
0.0192049
0.0189728
0.0187317
0.0190153
0.0181042
0.0184027
0.0168167
0.0178732
0.0188509
0.0179394
0.0185348
0.0180778
0.0185998
0.019357
0.0192021
0.0185653
0.0171658
0.0183294
0.0177569
0.0189563
0.0184001
0.0191047
0.0192246
0.0181939
0.017289
0.0178721
0.0174683
0.0171356
0.0188741
0.0175795
0.0191606
0.0181351
0.017995
0.0174952
0.0193424
0.0181571
0.0182591
0.0190582
0.0186578
0.0179454
0.018285
0.0175262
0.0183459
0.0181135
0.017406
0.01821
0.0180197
0.0163326
0.0168456
0.018898
0.0191139
0.0185923
0.0170486
0.017585
0.0187743
0.0175677
0.0175037
0.019107
0.0192521
0.0180538
0.0189749
0.019143
0.0173951
0.0190543
0.0169439
0.0170602
0.0190351
0.0188693
0.018927
0.0191602
0.0188712
0.0174925
0.0181869
0.0181502
0.0190547
0.0193014
0.0192885
0.0181765
0.0178811
0.018724
0.01878
0.0186463
0.0179612
0.0183342
0.018053
0.0183914
0.0187861
0.0179833
0.0173886
0.0188174
0.0193246
0.0181736
0.0191956
0.0189918
0.0182518
0.0174138
0.018207
0.0182284
0.0170341
0.0192726
0.0175475
0.0186779
0.0188789
0.016854
0.0183335
0.0182678
0.0171374
0.0185647
0.0174928
0.0183982
0.0192459
0.0188399
0.0168277
0.018647
0.0174848
0.0186653
0.0189541
0.0190864
0.0190695
0.0175826
0.018747
0.0169945
0.0180812
0.0169816
0.0190659
0.0188121
0.0189884
0.0189032
0.0176611
0.0193
0.0182905
0.0187205
0.0182093
0.0177971
0.018384
0.0187522
0.0185589
0.0187535
0.0186173
0.0188827
0.0183274
0.0174018
0.0184912
0.0188237
0.0187145
0.0168442
0.0190589
0.018908
0.0182923
0.0184971
0.0186585
0.0186325
0.0190625
0.0169493
0.0186847
0.0190451
0.0168727
0.0185257
0.0186253
0.0175179
0.017103
0.0171576
0.0181889
0.0171858
0.0182688
0.0180606
0.0181299
0.0192489
0.0173048
0.0188542
0.0190857
0.0183117
0.0188469
0.0181939
0.0190555
0.0183474
0.0186712
0.0191603
0.0182539
0.0172082
0.0183573
0.0191289
0.0189392
0.0188318
0.0191619
0.0180247
0.0186707
0.0189086
0.0192228
0.0192238
0.0174141
0.0182231
0.0165903
0.0185191
0.0181393
0.0173622
0.0171502
0.0181831
0.0187941
0.0189512
0.0171753
0.0188105
0.0180468
0.0182197
0.0189154
0.0149166
0.0181398
0.0170322
0.018006
0.0189323
0.0192857
0.0187553
0.0184506
0.0167335
0.0188168
0.018315
0.0187411
0.0170935
0.017399
0.0182246
0.01726
0.017457
0.0186334
0.0170552
0.0181667
0.016968
0.0188387
0.0172702
0.0191401
0.0188922
0.0188796
0.0190036
0.0179671
0.0188941
0.0190364
0.0185948
0.0189723
0.0183727
0.0188469
0.0193958
0.0180992
0.0190333
0.0191148
0.0182242
0.0177269
0.0191747
0.0183481
0.016723
0.0170026
0.0183975
0.0191526
0.0190929
0.0182256
0.019427
0.0194786
0.0187448
0.0184973
0.0183369
0.0183041
0.0174935
0.018229
0.0187604
0.0191869
0.0178744
0.0176472
0.0175965
0.0178965
0.0181773
0.0166331
0.0188239
0.0180172
0.0187394
0.0184074
0.01886
0.0184632
0.0174282
0.0185839
0.0190069
0.0176823
0.0189128
0.0192219
0.0181358
0.0181952
0.015816
0.0176908
0.0182466
0.0183639
0.0174693
0.0173638
0.0184023
0.0174946
0.0187851
0.0179026
0.0183481
0.0189841
0.0182946
0.0170039
0.0180859
0.0184162
0.019061
0.0172455
0.0165319
0.0189762
0.0171086
0.0184843
0.0193099
0.0172693
0.0182895
0.0191921
0.0185611
0.0172389
0.0189682
0.0185656
0.0171269
0.0188635
0.018486
0.0181269
0.018784
0.0168076
0.0178845
0.0184559
0.0182006
0.0182918
0.018688
0.0193778
0.0189199
0.018714
0.0191044
0.018935
0.0188213
0.0178462
0.0187465
0.0191611
0.0194589
0.0176674
0.0183966
0.0185967
0.0195796
0.017493
0.0167762
0.019106
0.0175416
0.019307
0.0180199
0.0173323
0.0184985
0.0189625
0.0186623
0.0187242
0.0168875
0.0188221
0.0184897
0.016952
0.0190994
0.0189167
0.0155382
0.0173725
0.0176716
0.0182379
0.0184417
0.0184198
0.018278
0.0183477
0.0189178
0.0183645
0.0183066
0.0174464
0.01915
0.0170918
0.0183178
0.0183576
0.0180652
0.0192581
0.0183037
0.0177453
0.0169963
0.0174405
0.0183226
0.019012
0.0174702
0.0191944
0.018553
0.0188551
0.0173609
0.0180159
0.0188279
0.0192196
0.0190191
0.0187408
0.0183943
0.0184888
0.0192421
0.0192242
0.0190922
0.0178352
0.0189422
0.0173499
0.0191045
0.0190246
0.018221
0.0175427
0.018067
0.0164729
0.0190157
0.0186525
0.0193459
0.0182753
0.0178453
0.0172209
0.0187916
0.0170034
0.0167602
0.0175978
0.0179725
0.0173599
0.0183229
0.0172257
0.0186348
0.0187264
0.0166921
0.0192119
0.0174699
0.0177676
0.0179823
0.0179927
0.018869
0.0190535
0.0191909
0.0190716
0.0183112
0.0183624
0.0182263
0.0182109
0.0169952
0.0137726
0.0191211
0.0181711
0.0188675
0.0189449
0.0172007
0.0190289
0.0191581
0.0187899
0.0188217
0.0187538
0.0185218
0.0191453
0.0192425
0.0184486
0.0189867
0.0189922
0.0175605
0.0189806
0.0180549
0.0188268
0.0178348
0.0182022
0.0178432
0.0193287
0.0181468
0.0184354
0.018453
0.0175475
0.0191737
0.0186005
0.0181391
0.0174224
0.0187328
0.0168636
0.0188621
0.0189188
0.0178772
0.0192573
0.0192803
0.0192068
0.0171686
0.0183555
0.018531
0.0185423
0.0174908
0.0187956
0.018942
0.0178966
0.018358
0.017824
0.018815
0.018187
0.018263
0.0168935
0.0187866
0.0186695
0.0188743
0.0180035
0.0182762
0.0185095
0.0182844
0.0180223
0.0186037
0.0188247
0.0181598
0.0168744
0.0169184
0.0181397
0.0166386
0.0171871
0.0185741
0.0185402
0.0188429
0.0168262
0.018106
0.019056
0.0175428
0.0170109
0.0183721
0.0174739
0.018926
0.0177436
0.0191118
0.0179007
0.0180507
0.0191805
0.016898
0.0180058
0.0180926
0.0188993
0.0191372
0.0190105
0.0175855
0.0186952
0.0191361
0.0180573
0.0191555
0.0188879
0.0187733
0.0190098
0.0183671
0.0193752
0.0192831
0.0193277
0.0186718
0.0180843
0.0185198
0.0182691
0.0170722
0.0179945
0.0188028
0.0189305
0.0192875
0.0182501
0.0191838
0.0189541
0.0178607
0.0190024
0.0189697
0.0188144
0.0189715
0.0172998
0.0180862
0.0189249
0.0168014
0.0184402
0.0182009
0.0183742
0.0181295
0.0191592
0.0187654
0.018884
0.0182651
0.0188031
0.0184767
0.0190811
0.0184795
0.0182902
0.0174392
0.0189834
0.0176395
0.0180708
0.0184128
0.0180001
0.018579
0.0191821
0.0173747
0.0191645
0.0173947
0.0185064
0.0183418
0.0181064
0.0182328
0.0191012
0.0172147
0.0187812
0.0189997
0.0192399
0.0185502
0.0185898
0.0166572
0.0190411
0.0189519
0.0187135
0.0187592
0.0189244
0.018365
0.0188145
0.0183979
0.0175046
0.0183649
0.0191444
0.016867
0.0176597
0.0195601
0.018895
0.0179283
0.018161
0.0186101
0.017924
0.0181641
0.0176077
0.0188957
0.0192256
0.016787
0.0185682
0.0189752
0.0189998
0.0194062
0.0180406
0.0189366
0.0175935
0.0175285
0.0191606
0.0189837
0.018186
0.0174637
0.0188194
0.0189625
0.0178971
0.0191084
0.0189537
0.0190133
0.0187711
0.018887
0.0185354
0.0184598
0.0180839
0.0179522
0.0170705
0.0185427
0.0184214
0.0174565
0.0190131
0.0170525
0.0180207
0.0183235
0.0174165
0.0182177
0.018066
0.0186545
0.0185561
0.0189699
0.0173641
0.0174204
0.0182153
0.0172072
0.0178562
0.0189402
0.0181693
0.0190183
0.018642
0.0182475
0.0191544
0.0181271
0.0186138
0.0181797
0.0182186
0.0187019
0.0176967
0.0184447
0.0188903
0.0190388
0.0192642
0.0174025
0.0171356
0.0183249
0.018978
0.017544
0.0180426
0.0188542
0.0182763
0.0195153
0.0182952
0.0180452
0.0189734
0.017249
0.01898
0.0193353
0.0174815
0.0179262
0.0181904
0.0181263
0.0192245
0.0191429
0.0188477
0.0176563
0.018894
0.0172296
0.0181888
0.0191404
0.0181452
0.0194661
0.0169458
0.0183204
0.018728
0.0184379
0.0171328
0.0170467
0.0189138
0.0191509
0.0181515
0.0190985
0.0187034
0.0182057
0.0173357
0.0178381
0.0186738
0.0183707
0.0183322
0.019253
0.0189889
0.0194783
0.019091
0.0186804
0.0187143
0.0187597
0.0175468
0.0190304
0.0187121
0.0184491
0.0186232
0.0192109
0.0183965
0.0191096
0.0181831
0.0167333
0.019272
0.0180282
0.0190466
0.0180624
0.0189004
0.0175884
0.0187137
0.0194683
0.0183579
0.0183427
0.0171907
0.0188178
0.0190977
0.0185782
0.0172374
0.0195408
0.0183903
0.0185085
0.0191459
0.0190407
0.0188651
0.0182257
0.0185459
0.0194341
0.0175711
0.0177052
0.0175018
0.017823
0.0185605
0.0171156
0.0191836
0.0190022
0.0194204
0.0181684
0.0182556
0.0184152
0.0189903
0.0184288
0.0186723
0.01908
0.0192952
0.0185821
0.018928
0.0183955
0.0180981
0.0187048
0.0181014
0.0193211
0.0192121
0.0192011
0.0193331
0.0190669
0.0179529
0.0194127
0.0186105
0.0186095
0.0180727
0.0185782
0.0192227
0.0183192
0.0188803
0.0181602
0.0183443
0.0188027
0.0177132
0.0172778
0.0181528
0.0183993
0.0193369
0.0180356
0.0170764
0.0186486
0.0189675
0.0178789
0.0180589
0.0184002
0.0191914
0.0190879
0.0180736
0.018043
0.018367
0.0190608
0.0181341
0.0184948
0.0184708
0.0171511
0.0182277
0.0182167
0.0188695
0.0190485
0.0184183
0.0191673
0.0189111
0.018324
0.0186005
0.0173296
0.0176452
0.0171681
0.0192336
0.0185943
0.019308
0.0197916
0.0188511
0.0171307
0.0189443
0.018199
0.018846
0.0187547
0.0188578
0.0171932
0.0192414
0.0174316
0.0183838
0.0185401
0.0184568
0.0194902
0.0183039
0.0188749
0.0175127
0.0182497
0.0185768
0.0191442
0.017836
0.0179096
0.0187085
0.0190045
0.0187878
0.0187177
0.0191808
0.0174466
0.0185107
0.0182645
0.0179234
0.018872
0.0193156
0.019204
0.0189371
0.0192975
0.0175433
0.0174712
0.0175396
0.019287
0.0172579
0.0188306
0.0186753
0.0173688
0.0181317
0.018901
0.0191052
0.0179002
0.0181071
0.0180216
0.018462
0.0192418
0.0185464
0.0173946
0.0184174
0.0193817
0.0190973
0.0194446
0.0191667
0.0196593
0.0192268
0.0191001
0.0177185
0.0172391
0.0184881
0.0179092
0.0192451
0.0174653
0.0185781
0.0183333
0.0191944
0.0177162
0.0189011
0.0188732
0.0186926
0.0183207
0.017435
0.0190273
0.0181818
0.0194123
0.0185048
0.0194052
0.0192147
0.0184571
0.0172345
0.0173906
0.0182067
0.0188127
0.0180091
0.0195647
0.0175913
0.0189814
0.0187973
0.0182272
0.0186694
0.0189531
0.0191774
0.0191355
0.0192387
0.0185692
0.0187042
0.0171677
0.0180031
0.019173
0.0177141
0.018805
0.0182133
0.0174793
0.018283
0.0180201
0.0182505
0.0187414
0.0189483
0.0175707
0.0181892
0.018496
0.0174483
0.0180131
0.0182051
0.0184213
0.0188288
0.0175026
0.017444
0.0183034
0.0182002
0.0191498
0.0193909
0.0191047
0.017959
0.0181005
0.0184556
0.0178967
0.0191418
0.0174178
0.0183747
0.0183975
0.0192664
0.0189963
0.018526
0.0186779
0.0191039
0.0174841
0.0185395
0.0192199
0.0180376
0.0163591
0.018424
0.0175384
0.0186304
0.0170478
0.019258
0.0193433
0.0192337
0.0185255
0.017475
0.0173038
0.0189979
0.0193039
0.0192695
0.0185089
0.0187055
0.0186998
0.0193181
0.0190201
0.0170654
0.0185755
0.0185752
0.0186753
0.0181624
0.0188495
0.0169593
0.0192731
0.0189865
0.0184986
0.0185255
0.0188184
0.0183503
0.0192367
0.0187465
0.0175964
0.0182382
0.0189195
0.0181541
0.018528
0.018764
0.017081
0.0175124
0.0191246
0.0193536
0.0190324
0.0193369
0.0188017
0.018979
0.018657
0.0185063
0.0186518
0.0190294
0.0181436
0.0184772
0.0178565
0.0183537
0.0190248
0.0169218
0.0185947
0.0170579
0.0189852
0.0171116
0.017184
0.0181535
0.0168561
0.0186522
0.0186834
0.018976
0.0190096
0.0179997
0.0177918
0.0194836
0.0180519
0.0175961
0.0185339
0.0178982
0.0191449
0.0187992
0.0186459
0.0175234
0.0190652
0.019031
0.0191591
0.0172435
0.0179312
0.0185083
0.0190083
0.0194898
0.0173376
0.0172352
0.0191121
0.0187521
0.0192479
0.0183466
0.016894
0.0187887
0.0190304
0.0172501
0.0170295
0.0190394
0.0175158
0.0174972
0.0190541
0.019371
0.0187572
0.0195269
0.0182063
0.0182797
0.019131
0.0179293
0.0190917
0.0180856
0.0187003
0.0190759
0.0181422
0.0172531
0.0188245
0.0189125
0.0181031
0.018269
0.0184814
0.0178849
0.0168019
0.0185573
0.0188568
0.0191128
0.0180949
0.0187174
0.0171994
0.0188336
0.0193401
0.0171114
0.0191123
0.0185225
0.0165694
0.017245
0.0184621
0.0183056
0.0189128
0.0182097
0.0175751
0.0189473
0.0193317
0.0191809
0.0187546
0.0191138
0.017287
0.019126
0.0183537
0.0173435
0.0173846
0.0164693
0.017354
0.0186715
0.01829
0.0186663
0.0183916
0.0176103
0.0178493
0.0169282
0.0169358
0.0195062
0.0193736
0.017589
0.01923
0.0191695
0.0175952
0.0183006
0.0186585
0.0179138
0.018014
0.019083
0.0177852
0.0169345
0.0191487
0.01935
0.0180633
0.0192006
0.0183373
0.0177802
0.0175105
0.0183639
0.017213
0.0174438
0.0185442
0.018608
0.0182645
0.01924
0.0191424
0.0183024
0.0191413
0.0135595
0.0183805
0.0172307
0.0183257
0.0192172
0.0181875
0.017939
0.018196
0.0174621
0.0186013
0.0182723
0.0179093
0.0173424
0.0167392
0.0167572
0.018185
0.017336
0.0183969
0.0172856
0.0182327
0.0190662
0.0186922
0.0183119
0.0185004
0.0188453
0.0183062
0.0188586
0.0171013
0.018517
0.0191886
0.0191759
0.0181116
0.0194739
0.0177366
0.0190002
0.0181928
0.0171732
0.0190728
0.0191759
0.0186955
0.0187162
0.0191506
0.0187023
0.0167969
0.0168734
0.01812
0.0193007
0.018605
0.0189294
0.0180655
0.0182361
0.0177074
0.017176
0.0171669
0.017193
0.0187814
0.0185341
0.019101
0.0179875
0.0181386
0.019448
0.0173272
0.0183745
0.0193057
0.0191524
0.0177197
0.0180993
0.0188599
0.0192219
0.019181
0.015736
0.0187107
0.0189787
0.0186727
0.0183955
0.019478
0.0190093
0.0191498
0.0185291
0.0179189
0.0183989
0.0192347
0.0187526
0.0182745
0.0173186
0.0190316
0.0190381
0.0191596
0.0188617
0.0170045
0.0165524
0.0181502
0.0188684
0.0184623
0.0184956
0.0188192
0.0188646
0.018881
0.0181095
0.0189038
0.0184399
0.0190239
0.0174948
0.0174771
0.0180523
0.0193738
0.0174418
0.0189524
0.0173553
0.018309
0.0183766
0.0193789
0.0183809
0.018936
0.0192905
0.0190527
0.0185911
0.0190083
0.0184001
0.0181172
0.0168734
0.0192898
0.0164572
0.0172651
0.0160461
0.016805
0.017038
0.0182133
0.0185133
0.0174114
0.0180632
0.0165577
0.0175641
0.0179862
0.0191581
0.0170524
0.017306
0.018864
0.0170749
0.0181936
0.0188914
0.0188393
0.018226
0.0174098
0.0170189
0.0180294
0.0193262
0.0178708
0.0172702
0.0187748
0.0181065
0.0185669
0.0182491
0.0175308
0.0191866
0.0168649
0.0172944
0.0183787
0.0192295
0.0181342
0.0183417
0.0184655
0.0183906
0.0167736
0.017615
0.0180775
0.0191252
0.0187906
0.0172215
0.0166866
0.0183313
0.0192298
0.0181765
0.0183351
0.0179284
0.0180208
0.018228
0.0171989
0.0191221
0.0180007
0.0172114
0.0166298
0.0187677
0.018334
0.0192098
0.0185061
0.018946
0.017279
0.0182953
0.0168581
0.0166742
0.0191601
0.0175429
0.0184237
0.0183711
0.0180601
0.0172508
0.0191693
0.0189191
0.0191829
0.0186807
0.0162816
0.0183439
0.0167883
0.0192776
0.0174371
0.0191487
0.0165743
0.0186372
0.0189876
0.0180842
0.0181449
0.0167705
0.017888
0.0182871
0.0189296
0.0187664
0.0191585
0.0191589
0.017308
0.0192
0.0167699
0.0185302
0.0186736
0.019015
0.0190807
0.0180985
0.0193162
0.0183042
0.0179388
0.0179206
0.0185235
0.01911
0.0178157
0.0175447
0.0191806
0.0188723
0.0182083
0.0193863
0.0186149
0.0187345
0.0189801
0.0189445
0.0191365
0.0181614
0.0179968
0.0190436
0.0189566
0.0166217
0.0181973
0.0177867
0.0192516
0.0185878
0.0189504
0.0173328
0.0172329
0.0184351
0.0187606
0.0189105
0.0190897
0.0189916
0.0184629
0.018779
0.017413
0.018737
0.0182921
0.0191084
0.0191152
0.0190949
0.0185592
0.0191273
0.0177737
0.0191059
0.0177488
0.0180841
0.0181426
0.0184291
0.0180452
0.0188035
0.0171358
0.0190188
0.0189462
0.0183517
0.0173085
0.0193118
0.0187357
0.0190478
0.0182306
0.0183759
0.0189641
0.017151
0.0190905
0.0184487
0.0185099
0.0177554
0.0178655
0.0179515
0.0171652
0.0180641
0.019329
0.0185329
0.0167398
0.0187749
0.0170565
0.0186635
0.0186115
0.0168943
0.0169904
0.0179855
0.0185444
0.0189757
0.0180747
0.0184025
0.0183724
0.0167036
0.0181091
0.0191026
0.0190954
0.0191051
0.0185449
0.0187344
0.0173765
0.0173244
0.0193172
0.01837
0.0187179
0.018916
0.0194035
0.0184634
0.0185135
0.0168317
0.0187368
0.01902
0.0180452
0.0191509
0.0189655
0.0186377
0.0176394
0.0188156
0.0181963
0.0166934
0.0184493
0.0175993
0.0172472
0.0187048
0.0184367
0.0191248
0.0190622
0.0185578
0.0192908
0.0165947
0.0180732
0.0192516
0.0192885
0.016989
0.0187045
0.0174841
0.0177725
0.0190917
0.0179768
0.018703
0.0194154
0.0188181
0.0167408
0.0189045
0.0173141
0.0189795
0.0186956
0.0185212
0.0189707
0.0184965
0.0189628
0.0172549
0.0189917
0.0191023
0.0174697
0.0186044
0.0183216
0.018251
0.0189746
0.0183111
0.0189502
0.0192496
0.0191431
0.0183109
0.0191304
0.0183876
0.0187517
0.0177943
0.0177155
0.0171604
0.016871
0.0186707
0.0187336
0.0182988
0.019216
0.0178162
0.0191733
0.0169172
0.019357
0.0192517
0.0187829
0.0191322
0.0177601
0.0168725
0.0182256
0.0172864
0.018939
0.0184045
0.0169265
0.0181942
0.0193721
0.0189026
0.0170836
0.0178109
0.0167823
0.0194279
0.0171988
0.0189941
0.0175744
0.0174642
0.0192031
0.0191902
0.0190988
0.0187601
0.0171128
0.0186383
0.0192663
0.0175027
0.0191986
0.0186756
0.0193583
0.0167428
0.0187188
0.0179939
0.0187099
0.0181436
0.0180643
0.0180924
0.0180383
0.0182916
0.0182782
0.018604
0.0181578
0.0192713
0.0175445
0.0182309
0.0184059
0.0188315
0.0193028
0.0174664
0.0188174
0.017332
0.0180764
0.0190698
0.0191411
0.0183875
0.0186767
0.0188176
0.017962
0.0182257
0.0182872
0.0171498
0.0170217
0.0186452
0.0189224
0.0177254
0.0181943
0.0189509
0.0173545
0.0185302
0.0174671
0.0187527
0.0191959
0.0183773
0.0171472
0.0189576
0.0170808
0.0186726
0.0192697
0.0166629
0.0194754
0.0174875
0.0181064
0.0181451
0.0171484
0.0180179
0.0178524
0.0168182
0.0191784
0.0191948
0.0164678
0.0180537
0.0186007
0.0186084
0.0186425
0.0193528
0.0190686
0.0180086
0.0177807
0.0169746
0.0167222
0.0159848
0.0192543
0.0187312
0.0187223
0.0187574
0.0171664
0.0171353
0.018155
0.0191136
0.0167926
0.0186979
0.0182381
0.0184047
0.0186408
0.0177865
0.0188153
0.0180111
0.0184409
0.019324
0.0163098
0.0183475
0.0188267
0.0189835
0.0186832
0.01895
0.0185186
0.0172286
0.0193551
0.0197221
0.0183099
0.0183215
0.0174909
0.0181335
0.0187322
0.0190553
0.0183248
0.0181779
0.0179992
0.0169314
0.0181012
0.0191946
0.0184849
0.0194737
0.0184859
0.018406
0.019307
0.0173296
0.0189003
0.0171512
0.0192889
0.0187866
0.0180648
0.0195538
0.017987
0.0183979
0.0193051
0.0181898
0.0191022
0.01849
0.0188488
0.0172564
0.0183423
0.0181994
0.017685
0.0188833
0.0178912
0.0179337
0.0192621
0.0173518
0.019108
0.0183061
0.0190872
0.0180185
0.0186143
0.0173261
0.0175038
0.0192923
0.0173373
0.0182616
0.0189377
0.0170624
0.0183354
0.0189151
0.0180196
0.0173025
0.0178888
0.0182875
0.0180659
0.0188284
0.0183853
0.0190777
0.0183355
0.019049
0.0167801
0.0173761
0.0192491
0.0180548
0.017038
0.0173498
0.018442
0.0154632
0.0170315
0.0183042
0.0182266
0.0192864
0.017656
0.0189498
0.0190959
0.0192321
0.0189591
0.0192071
0.0180798
0.017791
0.0188607
0.0180944
0.0178564
0.0190274
0.0181698
0.016837
0.0170473
0.0182369
0.0159972
0.0188571
0.0188591
0.0178434
0.0188771
0.0189394
0.0186932
0.0195512
0.0180918
0.0172
0.0179755
0.0181949
0.0188718
0.0178474
0.018598
0.0192375
0.0182295
0.0180171
0.0184133
0.0193016
0.0189049
0.0196778
0.0191546
0.0184684
0.0186618
0.0176099
0.0181055
0.0192329
0.0177814
0.0192291
0.0178422
0.0188698
0.0165235
0.0188028
0.0182581
0.0187967
0.017883
0.0187401
0.0182279
0.0188795
0.0165426
0.0177293
0.0182658
0.0180549
0.0184825
0.0184094
0.0183886
0.0191136
0.0186174
0.0170324
0.0178633
0.0172026
0.0185154
0.0183585
0.0173221
0.0195762
0.0184099
0.0184263
0.0189884
0.0177369
0.0174012
0.0191506
0.017343
0.0169595
0.0168958
0.0169131
0.0169063
0.0179872
0.0192171
0.0189549
0.0182917
0.0184628
0.0188373
0.0180746
0.0188171
0.0169508
0.0190249
0.0139692
0.0188675
0.0170748
0.0170532
0.0189066
0.0170819
0.0185041
0.0187795
0.0189334
0.017658
0.0185049
0.0181889
0.018239
0.0172663
0.0188876
0.0185721
0.0189939
0.0184471
0.0172743
0.0185719
0.01819
0.0181187
0.016947
0.0176367
0.0175169
0.0168787
0.0170774
0.0182856
0.0180735
0.0173334
0.0180458
0.0190919
0.0190459
0.0192853
0.0139204
0.0170602
0.0190838
0.0171974
0.0189109
0.016919
0.019149
0.0189587
0.0189663
0.0172464
0.0183487
0.0192208
0.0191948
0.018695
0.0190892
0.0183067
0.0185489
0.0181984
0.0171002
0.0185839
0.0179877
0.0180716
0.0181138
0.0171591
0.0182025
0.0190271
0.0177361
0.0177779
0.0171314
0.0187355
0.0187222
0.016792
0.0182259
0.0182939
0.0187804
0.0173032
0.0184231
0.0184907
0.0196049
0.0152369
0.0184999
0.0181551
0.017039
0.0190422
0.0176032
0.0174997
0.0186973
0.0191766
0.0169479
0.019069
0.0185724
0.0171868
0.0169891
0.0190876
0.0191507
0.0170795
0.0183594
0.016912
0.017696
0.0192243
0.0179455
0.0187106
0.0188466
0.0192181
0.0179676
0.0180142
0.0178547
0.018352
0.0185593
0.0178937
0.0189181
0.0172327
0.017357
0.0185128
0.0182884
0.0187333
0.0179982
0.0188034
0.0188507
0.0183886
0.0190724
0.0187547
0.0181253
0.0176791
0.0187797
0.0180745
0.0177375
0.0185925
0.0192633
0.0188718
0.0183032
0.0171868
0.0186497
0.0177945
0.0169896
0.0179435
0.0183902
0.0169903
0.0187111
0.0176123
0.0163161
0.0169847
0.0187184
0.0160664
0.0181086
0.018896
0.0186086
0.0171282
0.0186676
0.0196504
0.0172679
0.0168909
0.0173858
0.0189273
0.0182622
0.0181113
0.0190115
0.0170854
0.0188691
0.0183072
0.0192082
0.0192834
0.0141948
0.0183741
0.0188335
0.0189646
0.0181787
0.0180747
0.0155833
0.018492
0.0191361
0.0179326
0.0169595
0.0182876
0.0188706
0.0185707
0.0169285
0.0185488
0.018862
0.0190827
0.0181676
0.0185194
0.0168417
0.0170915
0.0170382
0.0183508
0.0180786
0.0186437
0.0192691
0.0190061
0.0164407
0.0189911
0.0190302
0.0187109
0.0180668
0.0189587
0.0176638
0.0174173
0.0180265
0.0184171
0.017702
0.0167499
0.0186926
0.0180654
0.0188985
0.0175779
0.0162869
0.0178668
0.0189824
0.0186628
0.0176153
0.0179729
0.018959
0.0190176
0.0178234
0.0180997
0.0188555
0.0192199
0.0187662
0.0192337
0.0186947
0.0186058
0.0168551
0.0183341
0.0173112
0.0189143
0.0186254
0.0178762
0.0171332
0.0192997
0.0168759
0.0180172
0.0172003
0.0181734
0.0164273
0.0184125
0.0182341
0.0182731
0.0182388
0.0176872
0.0190602
0.0172725
0.0187739
0.0181152
0.0181608
0.0165991
0.0188388
0.0184221
0.017304
0.017729
0.0183075
0.0182598
0.0185585
0.0154055
0.0185309
0.018106
0.018256
0.0177534
0.0178645
0.0178279
0.0155338
0.0189998
0.0183204
0.0116166
0.0173534
0.0187494
0.0189527
0.0187748
0.017477
0.0155056
0.0189356
0.0172803
0.0188491
0.019219
0.018538
0.0175266
0.019
0.0169665
0.016523
0.0166471
0.0185716
0.0181569
0.0179403
0.0192564
0.0188213
0.0185205
0.0175824
0.0166068
0.019373
0.0184192
0.0194262
0.0188614
0.0171834
0.0179912
0.0184833
0.0171356
0.0182752
0.0179661
0.0184215
0.0197956
0.0183385
0.0182872
0.0171304
0.0182831
0.0178956
0.0187162
0.0181202
0.0169703
0.0173983
0.0185702
0.018797
0.0172263
0.0187347
0.0176976
0.0186827
0.0175216
0.0174085
0.0155293
0.0191165
0.0189305
0.0186421
0.0190356
0.0180305
0.0173665
0.0167485
0.0157159
0.0184274
0.016892
0.0181699
0.0179509
0.0189829
0.0180624
0.018859
0.017639
0.012121
0.0172844
0.0189083
0.0128215
0.0183808
0.0193617
0.0184526
0.0192116
0.0170443
0.0173371
0.0175466
0.0192177
0.0153917
0.0192492
0.0172747
0.0160532
0.0188555
0.0173862
0.0189947
0.0126289
0.0165743
0.0185208
0.0188907
0.019171
0.0187128
0.0190405
0.0186402
0.018604
0.0189334
0.0187828
0.018157
0.017847
0.0154871
0.0188709
0.0178113
0.0178347
0.0191155
0.0191559
0.0185594
0.0170223
0.0190906
0.0187198
0.0181209
0.017313
0.0169115
0.0187041
0.0191237
0.0189431
0.0189941
0.0184324
0.0183986
0.0170378
0.0188847
0.018328
0.018549
0.0180109
0.0169152
0.0160059
0.0179569
0.0195349
0.0186734
0.0183138
0.0174227
0.0178789
0.0175419
0.0171132
0.018946
0.0179521
0.014621
0.0151719
0.0163504
0.0172351
0.0186373
0.0181031
0.0183437
0.0178972
0.0163568
0.0183952
0.0189127
0.0165323
0.0194955
0.0167996
0.0191071
0.0174986
0.0188989
0.0188545
0.0184139
0.0187112
0.017908
0.0172894
0.017535
0.0178446
0.0187026
0.0184202
0.0174854
0.0175675
0.0184346
0.0169102
0.0182968
0.0175137
0.0188788
0.017719
0.0181002
0.0148339
0.0189688
0.0192559
0.0184056
0.0187565
0.0179614
0.0181264
0.0188054
0.0186382
0.0185456
0.0192131
0.0184324
0.0169421
0.016782
0.019596
0.0170103
0.0169442
0.016716
0.0186165
0.0191708
0.0182798
0.0192488
0.0195839
0.0191327
0.0186777
0.017904
0.0170315
0.0183251
0.0163076
0.0185703
0.0183451
0.0180452
0.0179832
0.0175459
0.0182108
0.019239
0.0164457
0.0176701
0.0182799
0.0166028
0.0189594
0.0159772
0.0163905
0.0169123
0.0188212
0.0173555
0.0170121
0.0174412
0.0167287
0.0182804
0.0153172
0.015501
0.0182514
0.0170529
0.0165383
0.0181666
0.0171633
0.0177195
0.0182213
0.0176148
0.0169536
0.0184039
0.0173718
0.0177352
0.0169409
0.0178496
0.0178702
0.0158494
0.0190584
0.0181313
0.0183844
0.0176463
0.0172087
0.0169136
0.0181273
0.0180952
0.0190595
0.0183942
0.018755
0.0177851
0.0183093
0.0189275
0.0188812
0.0152991
0.0155851
0.0167269
0.0188629
0.0168262
0.0183144
0.0150696
0.0176812
0.0183917
0.017796
0.0180481
0.0176129
0.0178282
0.0178437
0.0192211
0.0173328
0.0178506
0.0193008
0.0167218
0.0179572
0.0170744
0.0187487
0.0174655
0.0168595
0.0182084
0.0170399
0.0154874
0.0160467
0.0170289
0.0176179
0.0158334
0.019168
0.0174449
0.016604
0.0178511
0.0188779
0.0179011
0.0161236
0.0192753
0.0183559
0.016917
0.0178549
0.0181485
0.0171075
0.0180769
0.0182041
0.0179523
0.0168763
0.016583
0.0180239
0.0173342
0.016087
0.0164493
0.0165717
0.0182281
0.0166327
0.0188112
0.0180651
0.0181095
0.0175315
0.0189318
0.0169328
0.0182374
0.0176145
0.012541
0.0190388
0.0162144
0.0182372
0.0188614
0.0189923
0.0155324
0.0187204
0.0191081
0.017163
0.0183649
0.0179539
0.0174779
0.0155164
0.0180858
0.0172854
0.0189353
0.0194149
0.0175607
0.0191122
0.0171226
0.0172277
0.0166593
0.0153949
0.0158812
0.0191027
0.0158553
0.0187989
0.0172841
0.0162943
0.0178122
0.0191206
0.0158216
0.0131151
0.0171254
0.0185126
0.0188381
0.0183752
0.0120652
0.0177188
0.0186803
0.0184667
0.0192214
0.0176805
0.0159603
0.0190146
0.0159371
0.0182907
0.0177327
0.0175297
0.0174461
0.018421
0.0170507
0.0169362
0.015755
0.0170915
0.018606
0.0180384
0.0179668
0.0165847
0.017338
0.0175078
0.0170829
0.0185577
0.0164937
0.0168845
0.0183292
0.0188278
0.0164908
0.018721
0.0173882
0.0194457
0.0162125
0.0189907
0.0177874
0.018355
0.0183444
0.0174536
0.0169897
0.0193804
0.0180913
0.0181446
0.0178696
0.0167473
0.0186404
0.0189605
0.0166968
0.0169714
0.0175016
0.0161563
0.0174091
0.018218
0.0155937
0.0191754
0.015716
0.0175259
0.018117
0.0159741
0.0173959
0.0178278
0.0169874
0.0179419
0.0169378
0.0181408
0.016194
0.0184712
0.0162487
0.017496
0.0145553
0.0179552
0.0164377
0.0168446
0.0184713
0.0167117
0.017255
0.0192908
0.0183104
0.0183885
0.0188896
0.0159153
0.0180897
0.0172962
0.0180803
0.0181837
0.0175905
0.0189859
0.0183465
0.0167347
0.0166119
0.018611
0.0179833
0.0180807
0.0155755
0.0188922
0.019386
0.0186428
0.017993
0.0168862
0.0171568
0.0176416
0.0166233
0.0167927
0.0184866
0.0177462
0.0173884
0.0176448
0.0175816
0.0178763
0.0162123
0.017275
0.0167893
0.0155853
0.0190951
0.0178173
0.0170193
0.0188474
0.0178368
0.0175624
0.0183237
0.0157831
0.0167903
0.0162314
0.016365
0.0192341
0.018349
0.0152566
0.0188886
0.0160669
0.0178795
0.0181579
0.0177621
0.0187612
0.0174883
0.0180312
0.0176555
0.0174439
0.0173421
0.0186709
0.0161847
0.0165979
0.0174242
0.015693
0.0174516
0.0158782
0.0171018
0.0189273
0.0180573
0.0151263
0.0152459
0.0167391
0.0163236
0.0172956
0.0167899
0.017561
0.0183347
0.0153257
0.0182655
0.0177974
0.0173785
0.0161247
0.0178031
0.0159142
0.0148334
0.0168774
0.0165744
0.016663
0.0172943
0.0172043
0.0175625
0.016474
0.0185957
0.0166006
0.0176962
0.0168304
0.0178241
0.0172709
0.0162448
0.0181878
0.0175997
0.0155589
0.0167848
0.0174267
0.0192636
0.0189643
0.0185456
0.0191158