/*--------------------------------*- C++ -*----------------------------------*\
| =========                 |                                                 |
| \\      /  F ield         | OpenFOAM: The Open Source CFD Toolbox           |
|  \\    /   O peration     | Version:  2212                                  |
|   \\  /    A nd           | Website:  www.openfoam.com                      |
|    \\/     M anipulation  |                                                 |
\*---------------------------------------------------------------------------*/
FoamFile
{
    version     2.0;
    format      ascii;
    arch        "LSB;label=32;scalar=64";
    class       volScalarField;
    location    "0.036";
    object      nut;
}
// * * * * * * * * * * * * * * * * * * * * * * * * * * * * * * * * * * * * * //

dimensions      [0 2 -1 0 0 0 0];

internalField   nonuniform List<scalar> 
31639
(
4.91678e-05
4.72127e-05
4.8359e-05
5.22165e-05
4.74158e-05
4.61424e-05
4.55164e-05
4.96102e-05
4.88083e-05
5.07829e-05
5.05223e-05
5.05466e-05
4.80907e-05
5.15585e-05
4.61549e-05
4.40783e-05
4.94106e-05
4.62447e-05
4.40556e-05
4.75075e-05
3.83641e-05
5.08439e-05
5.16585e-05
4.43511e-05
4.34202e-05
4.8262e-05
4.74899e-05
4.19286e-05
4.57228e-05
5.17499e-05
5.08998e-05
4.52174e-05
5.15183e-05
4.35851e-05
4.03688e-05
5.15679e-05
3.67703e-05
5.26139e-05
5.11259e-05
3.53736e-05
4.04974e-05
3.99756e-05
5.04708e-05
5.06984e-05
5.07033e-05
5.09342e-05
4.61146e-05
4.62999e-05
4.93972e-05
5.18823e-05
5.06633e-05
3.64016e-05
5.21489e-05
3.77606e-05
4.54668e-05
4.85903e-05
3.88264e-05
4.77502e-05
4.71396e-05
3.87623e-05
4.78947e-05
5.01403e-05
4.32377e-05
4.71117e-05
4.8794e-05
5.20418e-05
4.79283e-05
4.77767e-05
4.16696e-05
5.17813e-05
5.13733e-05
4.40818e-05
5.00248e-05
4.76972e-05
5.15811e-05
4.01302e-05
5.07417e-05
4.63401e-05
4.63744e-05
5.01217e-05
4.34756e-05
3.50541e-05
5.13786e-05
4.87603e-05
4.91255e-05
5.065e-05
5.17601e-05
5.12427e-05
4.13414e-05
5.22913e-05
4.83272e-05
4.79191e-05
3.95507e-05
4.66741e-05
4.24014e-05
4.64066e-05
4.68153e-05
4.76768e-05
4.81031e-05
3.91137e-05
5.19359e-05
5.06846e-05
4.66207e-05
3.82114e-05
3.91766e-05
5.11361e-05
3.80743e-05
3.71163e-05
4.25122e-05
3.78391e-05
4.98243e-05
3.94955e-05
4.66433e-05
4.50381e-05
4.78722e-05
3.78103e-05
4.61726e-05
4.63863e-05
5.0377e-05
4.7005e-05
4.99877e-05
5.0407e-05
5.00936e-05
4.86916e-05
4.7774e-05
5.13465e-05
4.7493e-05
4.30342e-05
4.20624e-05
5.02749e-05
5.08657e-05
5.03714e-05
5.07756e-05
4.55883e-05
5.0055e-05
4.78502e-05
3.90396e-05
3.76598e-05
5.02917e-05
4.76645e-05
4.75146e-05
5.0667e-05
5.08461e-05
3.76294e-05
3.62588e-05
5.17609e-05
5.03056e-05
3.97591e-05
3.94739e-05
5.07775e-05
4.25667e-05
4.83393e-05
4.42206e-05
4.97104e-05
4.06137e-05
5.18862e-05
4.75391e-05
4.1523e-05
4.09292e-05
4.41789e-05
5.10677e-05
4.09998e-05
4.25509e-05
3.84247e-05
3.9646e-05
4.65175e-05
4.0275e-05
5.17845e-05
5.03703e-05
3.80566e-05
4.44979e-05
4.54271e-05
4.03212e-05
4.7971e-05
5.23693e-05
5.02246e-05
4.83126e-05
5.19775e-05
4.82428e-05
4.78737e-05
4.64834e-05
4.64928e-05
4.56076e-05
3.61411e-05
4.84364e-05
5.2379e-05
4.63779e-05
5.15723e-05
3.95341e-05
3.89245e-05
5.30348e-05
5.02731e-05
4.94344e-05
4.70187e-05
4.76976e-05
4.57025e-05
4.54213e-05
5.00772e-05
3.85495e-05
4.57337e-05
5.12504e-05
5.21574e-05
4.95325e-05
4.97113e-05
4.7626e-05
4.72822e-05
4.65015e-05
4.5829e-05
5.04961e-05
3.6225e-05
4.70747e-05
4.59371e-05
4.89417e-05
5.05193e-05
4.95996e-05
5.13906e-05
4.06616e-05
4.40053e-05
5.05466e-05
5.06054e-05
4.94936e-05
4.64835e-05
3.84361e-05
4.71444e-05
3.85348e-05
4.68657e-05
5.01797e-05
4.38515e-05
4.00003e-05
4.95594e-05
4.89301e-05
5.24151e-05
4.11217e-05
3.89327e-05
4.93376e-05
4.97038e-05
3.91024e-05
5.14321e-05
4.27543e-05
3.80888e-05
4.64358e-05
4.91309e-05
4.73041e-05
4.43188e-05
4.32707e-05
4.96568e-05
4.62521e-05
4.54625e-05
4.00669e-05
4.70055e-05
4.58108e-05
4.03631e-05
4.4258e-05
5.19045e-05
5.07208e-05
4.5074e-05
4.06618e-05
4.9919e-05
4.97461e-05
4.7004e-05
5.21294e-05
5.09812e-05
4.87299e-05
5.10932e-05
4.62611e-05
4.68048e-05
3.78162e-05
4.37268e-05
5.0916e-05
4.58279e-05
4.93511e-05
4.49183e-05
4.77133e-05
5.18297e-05
5.20367e-05
4.81082e-05
3.91872e-05
4.62477e-05
4.25577e-05
5.08442e-05
4.67043e-05
5.12931e-05
5.20309e-05
4.52676e-05
4.00152e-05
4.2357e-05
4.0764e-05
3.84909e-05
5.06644e-05
4.15104e-05
5.11656e-05
4.66682e-05
4.45426e-05
4.10951e-05
5.24547e-05
4.5246e-05
4.4299e-05
5.10061e-05
4.77365e-05
4.27278e-05
4.69851e-05
4.14659e-05
4.74765e-05
4.65086e-05
4.02473e-05
4.58106e-05
4.59674e-05
3.50697e-05
3.72467e-05
5.05644e-05
5.16474e-05
4.97778e-05
3.84722e-05
4.08926e-05
4.98819e-05
4.17591e-05
4.19849e-05
5.13886e-05
5.20246e-05
4.59604e-05
5.08786e-05
5.18104e-05
4.03738e-05
5.16127e-05
3.75984e-05
3.80636e-05
5.09389e-05
5.03816e-05
5.0769e-05
5.18763e-05
4.98112e-05
4.11326e-05
4.70474e-05
4.66888e-05
5.11457e-05
5.20147e-05
5.23516e-05
4.65864e-05
4.54878e-05
4.90771e-05
4.99955e-05
4.90429e-05
4.56498e-05
4.69574e-05
4.62136e-05
4.70135e-05
4.96817e-05
4.61486e-05
4.02218e-05
4.89242e-05
5.26475e-05
4.55319e-05
5.141e-05
5.14263e-05
4.70505e-05
4.03042e-05
4.68859e-05
4.6833e-05
3.8316e-05
5.2061e-05
4.11702e-05
4.83122e-05
5.0785e-05
3.73836e-05
4.73095e-05
4.69733e-05
3.91007e-05
4.79987e-05
4.08511e-05
4.71259e-05
5.18473e-05
4.92092e-05
3.71217e-05
4.86761e-05
4.09254e-05
4.87334e-05
5.08044e-05
5.12179e-05
5.08775e-05
4.11351e-05
5.00714e-05
3.85063e-05
4.6223e-05
3.79424e-05
5.1511e-05
5.03525e-05
5.10593e-05
5.06461e-05
4.28656e-05
5.18696e-05
4.70886e-05
4.90354e-05
4.67696e-05
4.15765e-05
4.7171e-05
4.96168e-05
4.90355e-05
4.98537e-05
4.8287e-05
4.98538e-05
4.66529e-05
4.00227e-05
4.7093e-05
4.97886e-05
4.96522e-05
3.72724e-05
5.12241e-05
5.05608e-05
4.70173e-05
4.90173e-05
4.95154e-05
4.7809e-05
5.16368e-05
3.8874e-05
4.88864e-05
5.11439e-05
3.74236e-05
4.77769e-05
4.8728e-05
4.08567e-05
3.89717e-05
3.91711e-05
4.50197e-05
3.87563e-05
4.6814e-05
4.68597e-05
4.47585e-05
5.16354e-05
3.9858e-05
5.04372e-05
5.15385e-05
4.72383e-05
5.00512e-05
4.57669e-05
5.10665e-05
4.71288e-05
4.75768e-05
5.20612e-05
4.71713e-05
3.93277e-05
4.75299e-05
5.14102e-05
5.07897e-05
4.95924e-05
5.18223e-05
4.60178e-05
4.87796e-05
5.02457e-05
5.20931e-05
5.16396e-05
4.04816e-05
4.66084e-05
3.60241e-05
4.64136e-05
4.64447e-05
3.98534e-05
3.81617e-05
4.5422e-05
4.98541e-05
5.04956e-05
3.91134e-05
4.95152e-05
4.41336e-05
4.69438e-05
4.9945e-05
3.64244e-05
4.65557e-05
3.789e-05
4.5878e-05
5.08067e-05
5.23347e-05
4.98951e-05
4.69502e-05
3.75921e-05
4.94336e-05
4.75665e-05
4.98627e-05
3.84899e-05
3.99614e-05
4.68464e-05
3.94246e-05
4.07899e-05
4.86101e-05
3.82626e-05
4.55554e-05
3.89076e-05
4.93671e-05
3.98666e-05
5.18426e-05
5.04687e-05
5.04842e-05
5.11788e-05
4.30283e-05
5.04796e-05
5.10924e-05
4.80956e-05
5.0282e-05
4.76602e-05
5.04637e-05
5.23729e-05
4.47104e-05
5.10801e-05
5.16877e-05
4.7031e-05
4.32362e-05
5.19446e-05
4.74901e-05
3.67708e-05
3.75964e-05
4.74611e-05
5.11374e-05
5.16231e-05
4.65871e-05
5.25564e-05
5.23806e-05
4.98442e-05
4.79158e-05
4.60008e-05
4.68496e-05
4.09391e-05
4.68681e-05
4.87707e-05
5.17531e-05
4.23627e-05
4.19714e-05
4.16762e-05
4.53049e-05
4.68031e-05
3.65526e-05
4.95509e-05
4.4211e-05
4.92607e-05
4.71701e-05
5.05623e-05
4.7067e-05
4.02753e-05
4.86947e-05
5.13854e-05
4.20773e-05
5.04066e-05
5.22235e-05
4.71014e-05
4.6659e-05
4.19098e-05
4.19149e-05
4.70849e-05
4.75159e-05
4.06906e-05
4.01895e-05
4.76809e-05
4.31329e-05
4.94027e-05
4.28076e-05
4.63488e-05
5.09222e-05
4.72236e-05
3.87245e-05
4.37946e-05
4.76706e-05
5.14018e-05
3.93293e-05
3.59668e-05
5.0684e-05
3.87459e-05
4.82565e-05
5.23338e-05
3.94979e-05
4.7373e-05
5.1055e-05
4.72685e-05
3.8722e-05
5.08527e-05
4.69773e-05
3.93573e-05
5.05194e-05
4.81529e-05
4.62075e-05
4.99228e-05
3.72498e-05
4.40775e-05
4.74568e-05
4.56637e-05
4.42029e-05
4.74161e-05
5.17114e-05
5.10704e-05
4.95354e-05
5.11558e-05
5.09523e-05
5.00719e-05
4.32162e-05
4.99201e-05
5.14031e-05
5.28395e-05
4.20451e-05
4.77111e-05
4.80771e-05
5.35e-05
4.06797e-05
3.698e-05
5.17277e-05
4.1997e-05
5.25879e-05
4.57353e-05
4.02895e-05
4.77097e-05
5.0894e-05
4.75135e-05
4.9053e-05
3.81947e-05
5.0231e-05
4.80589e-05
3.76124e-05
5.15447e-05
5.04749e-05
4.04859e-05
4.02066e-05
4.11325e-05
4.55188e-05
4.80116e-05
4.77033e-05
4.68766e-05
4.7551e-05
5.06231e-05
4.74768e-05
4.70588e-05
4.03627e-05
5.2039e-05
3.83293e-05
4.73013e-05
4.64144e-05
4.5051e-05
5.24417e-05
4.72894e-05
4.2541e-05
3.82908e-05
3.98616e-05
4.63182e-05
5.12191e-05
4.16355e-05
5.20868e-05
4.6889e-05
5.04872e-05
3.99723e-05
4.58907e-05
4.98668e-05
5.21419e-05
5.11581e-05
5.01044e-05
4.77938e-05
4.686e-05
5.19812e-05
5.18695e-05
5.12066e-05
4.25802e-05
5.09055e-05
4.03295e-05
5.14799e-05
4.97957e-05
4.66688e-05
4.11376e-05
4.60586e-05
3.58631e-05
5.11964e-05
4.77655e-05
5.24269e-05
4.68218e-05
4.49984e-05
3.9896e-05
5.10312e-05
3.85619e-05
3.63318e-05
4.0867e-05
4.26595e-05
4.0308e-05
4.69414e-05
3.87907e-05
4.98371e-05
4.87916e-05
3.63908e-05
5.19732e-05
4.04819e-05
4.36513e-05
4.59187e-05
4.47938e-05
4.97826e-05
5.1481e-05
5.24337e-05
5.10864e-05
4.66031e-05
4.78962e-05
4.5489e-05
4.57904e-05
3.82986e-05
3.00297e-05
5.15361e-05
4.65486e-05
4.98616e-05
5.0664e-05
3.92961e-05
5.10771e-05
5.15179e-05
4.99658e-05
5.03371e-05
4.99091e-05
4.84082e-05
5.1783e-05
5.2234e-05
4.76273e-05
5.06933e-05
5.06566e-05
4.11428e-05
5.08532e-05
4.49023e-05
4.96569e-05
4.52529e-05
4.69753e-05
4.36921e-05
5.24153e-05
4.60567e-05
4.77065e-05
4.6578e-05
4.05203e-05
5.20352e-05
4.81726e-05
4.48999e-05
3.99627e-05
4.9852e-05
3.78716e-05
5.09643e-05
4.96431e-05
4.51917e-05
5.15352e-05
5.24129e-05
5.1338e-05
3.89721e-05
4.75149e-05
4.67187e-05
4.76524e-05
4.09879e-05
5.02078e-05
5.08062e-05
4.51401e-05
4.73382e-05
4.50067e-05
4.93681e-05
4.51074e-05
4.66126e-05
3.76486e-05
5.02258e-05
4.86809e-05
5.08713e-05
4.32354e-05
4.7375e-05
4.85308e-05
4.70969e-05
4.40701e-05
4.86867e-05
5.02984e-05
4.6353e-05
3.77722e-05
3.77541e-05
4.65856e-05
3.68655e-05
4.03394e-05
4.82208e-05
4.83298e-05
5.05955e-05
3.75107e-05
4.65925e-05
5.14756e-05
4.14387e-05
3.86765e-05
4.81507e-05
4.09274e-05
4.92093e-05
4.19276e-05
5.11764e-05
4.34099e-05
4.4656e-05
5.18498e-05
3.78765e-05
4.5807e-05
4.62225e-05
5.05152e-05
5.14053e-05
5.12986e-05
4.10017e-05
4.97178e-05
5.1102e-05
4.47145e-05
5.18628e-05
5.03842e-05
4.91467e-05
5.10516e-05
4.77546e-05
5.24612e-05
5.22628e-05
5.22685e-05
4.94879e-05
4.50688e-05
4.82899e-05
4.73006e-05
3.90184e-05
4.61824e-05
4.92814e-05
5.08587e-05
5.17073e-05
4.65055e-05
5.19759e-05
5.05147e-05
4.54212e-05
5.02771e-05
5.075e-05
4.95147e-05
5.00011e-05
3.98998e-05
4.5589e-05
5.06634e-05
3.68848e-05
4.69813e-05
4.66428e-05
4.64693e-05
4.62328e-05
5.194e-05
4.98335e-05
5.07358e-05
4.67835e-05
4.96084e-05
4.78928e-05
5.09454e-05
4.80856e-05
4.58625e-05
4.04192e-05
5.09199e-05
4.0792e-05
4.58317e-05
4.67769e-05
4.55632e-05
4.82888e-05
5.18863e-05
3.98899e-05
5.167e-05
4.03735e-05
4.82792e-05
4.56286e-05
4.62368e-05
4.6864e-05
5.17022e-05
3.94522e-05
4.9845e-05
5.08819e-05
5.11707e-05
4.80036e-05
4.7908e-05
3.63944e-05
5.10378e-05
5.04899e-05
4.93197e-05
5.00614e-05
5.07909e-05
4.77683e-05
4.8225e-05
4.78196e-05
4.13209e-05
4.6527e-05
5.17369e-05
3.81434e-05
4.19511e-05
5.3362e-05
5.05606e-05
4.39783e-05
4.57079e-05
4.80144e-05
4.40128e-05
4.66707e-05
4.21087e-05
5.03768e-05
5.14931e-05
3.67162e-05
4.79403e-05
5.13256e-05
5.023e-05
5.18864e-05
4.61828e-05
5.07551e-05
4.13064e-05
4.0955e-05
5.17882e-05
5.07236e-05
4.71808e-05
4.13117e-05
5.01997e-05
5.07343e-05
4.28091e-05
5.1299e-05
5.10098e-05
5.12234e-05
4.9115e-05
5.07505e-05
4.793e-05
4.84378e-05
4.66189e-05
4.45615e-05
3.89934e-05
4.82453e-05
4.79138e-05
4.1221e-05
5.13006e-05
3.8297e-05
4.57872e-05
4.67313e-05
4.03425e-05
4.65057e-05
4.49112e-05
4.92659e-05
4.76851e-05
5.03333e-05
3.96781e-05
3.99118e-05
4.59503e-05
3.95959e-05
4.51538e-05
5.08369e-05
4.65168e-05
5.10907e-05
4.73384e-05
4.69197e-05
5.12485e-05
4.51109e-05
4.75418e-05
4.6899e-05
4.66944e-05
4.8683e-05
4.14566e-05
4.76509e-05
5.01722e-05
5.15552e-05
5.23747e-05
3.96195e-05
3.92632e-05
4.71951e-05
5.10661e-05
4.18749e-05
4.58405e-05
4.88637e-05
4.71177e-05
5.33311e-05
4.65389e-05
4.60728e-05
4.97307e-05
3.96049e-05
5.09945e-05
5.15172e-05
4.07227e-05
4.37359e-05
4.68253e-05
4.49909e-05
5.18407e-05
5.13448e-05
4.88395e-05
4.12906e-05
5.05209e-05
3.96232e-05
4.61416e-05
5.0669e-05
4.41975e-05
5.27588e-05
3.8013e-05
4.71792e-05
4.884e-05
4.76321e-05
3.82467e-05
3.87647e-05
5.10311e-05
5.16003e-05
4.53464e-05
5.17652e-05
4.88369e-05
4.7005e-05
3.97614e-05
4.23069e-05
4.85176e-05
4.70961e-05
4.71196e-05
5.20357e-05
5.12348e-05
5.27422e-05
5.16888e-05
4.85994e-05
4.84448e-05
4.9973e-05
4.02967e-05
5.05706e-05
4.95275e-05
4.80451e-05
4.83572e-05
5.15157e-05
4.63047e-05
5.17549e-05
4.64011e-05
3.68775e-05
5.23078e-05
4.38486e-05
5.1121e-05
4.50053e-05
5.08521e-05
4.09105e-05
4.96751e-05
5.32399e-05
4.7005e-05
4.74945e-05
3.88671e-05
5.03522e-05
5.12848e-05
4.90655e-05
3.95693e-05
5.3807e-05
4.72196e-05
4.90603e-05
5.12326e-05
5.0988e-05
5.02806e-05
4.68021e-05
4.68812e-05
5.25714e-05
4.07915e-05
4.13398e-05
4.05027e-05
4.28101e-05
4.83992e-05
3.8647e-05
5.18428e-05
5.10243e-05
5.21355e-05
4.62721e-05
4.67832e-05
4.76928e-05
5.10019e-05
4.76429e-05
4.76412e-05
5.12924e-05
5.12625e-05
4.68555e-05
5.09385e-05
4.78924e-05
4.61163e-05
4.96084e-05
4.48399e-05
5.20462e-05
5.17297e-05
5.23324e-05
5.22808e-05
5.11114e-05
4.40865e-05
5.29193e-05
4.78202e-05
4.82625e-05
4.62293e-05
4.86482e-05
5.23577e-05
4.73364e-05
5.04628e-05
4.55733e-05
4.72811e-05
4.9543e-05
4.157e-05
3.8952e-05
4.6681e-05
4.58123e-05
5.16271e-05
4.4557e-05
3.86875e-05
4.844e-05
5.06183e-05
4.26422e-05
4.47214e-05
4.78211e-05
5.1965e-05
5.14403e-05
4.61619e-05
4.31684e-05
4.74515e-05
4.99718e-05
4.52833e-05
4.79339e-05
4.77378e-05
3.85206e-05
4.4992e-05
4.4917e-05
4.94602e-05
5.08095e-05
4.74992e-05
5.13471e-05
4.97191e-05
4.73679e-05
4.81239e-05
4.07474e-05
4.25448e-05
3.81666e-05
5.109e-05
4.84252e-05
5.19094e-05
5.4424e-05
4.98655e-05
3.89943e-05
5.02697e-05
4.54728e-05
4.92162e-05
4.90826e-05
5.04363e-05
3.9003e-05
5.22418e-05
4.03216e-05
4.78295e-05
4.80533e-05
4.69295e-05
5.303e-05
4.65598e-05
4.98026e-05
4.15375e-05
4.66711e-05
4.74221e-05
5.04355e-05
4.40269e-05
4.21397e-05
4.99398e-05
5.08034e-05
4.91383e-05
4.98025e-05
5.17634e-05
4.06374e-05
4.66051e-05
4.63835e-05
4.27782e-05
5.04633e-05
5.20026e-05
5.20398e-05
5.09112e-05
5.25884e-05
4.09158e-05
4.01995e-05
4.10025e-05
5.22476e-05
3.89573e-05
5.03782e-05
4.89043e-05
4.04043e-05
4.52584e-05
5.04503e-05
5.12885e-05
4.3506e-05
4.47033e-05
4.57501e-05
4.79265e-05
5.17758e-05
4.78265e-05
4.07906e-05
4.77356e-05
5.22595e-05
5.09863e-05
5.22552e-05
5.18062e-05
5.39069e-05
5.20566e-05
5.06105e-05
4.12874e-05
3.90649e-05
4.7841e-05
4.40021e-05
5.15164e-05
3.9643e-05
4.85588e-05
4.67921e-05
5.22019e-05
4.14595e-05
4.93749e-05
5.02671e-05
4.86546e-05
4.56197e-05
4.01902e-05
5.07346e-05
4.44301e-05
5.22043e-05
4.74261e-05
5.33465e-05
5.21288e-05
4.7974e-05
3.89166e-05
3.98823e-05
4.67159e-05
4.85387e-05
4.44182e-05
5.32404e-05
4.05399e-05
5.16052e-05
4.99639e-05
4.51137e-05
4.94282e-05
5.0859e-05
5.14918e-05
5.17891e-05
5.18756e-05
4.82582e-05
4.91211e-05
3.88322e-05
4.47427e-05
5.18742e-05
4.12705e-05
4.94826e-05
4.6534e-05
4.1301e-05
4.72278e-05
4.92243e-05
4.6985e-05
4.98188e-05
5.06925e-05
4.05016e-05
4.66107e-05
4.79523e-05
4.01065e-05
4.47988e-05
4.68278e-05
4.61155e-05
4.9691e-05
4.07658e-05
4.05399e-05
4.70212e-05
4.55833e-05
5.19083e-05
5.29367e-05
5.17395e-05
4.58643e-05
4.6244e-05
4.82246e-05
4.53403e-05
5.12188e-05
4.0599e-05
4.76397e-05
4.678e-05
5.22436e-05
4.98963e-05
4.66313e-05
4.75837e-05
5.10667e-05
4.032e-05
4.7999e-05
5.17927e-05
4.54267e-05
3.46254e-05
4.73934e-05
4.01152e-05
4.86699e-05
3.7881e-05
5.19044e-05
5.23386e-05
5.13864e-05
4.83547e-05
4.08411e-05
3.99144e-05
5.07698e-05
5.20688e-05
5.13343e-05
4.80647e-05
4.77079e-05
4.98606e-05
5.21974e-05
5.11504e-05
3.88006e-05
4.65936e-05
4.88749e-05
4.93964e-05
4.55415e-05
4.9275e-05
3.85637e-05
5.19719e-05
5.09361e-05
4.83624e-05
4.831e-05
4.96388e-05
4.74835e-05
5.22199e-05
4.95504e-05
4.1174e-05
4.69525e-05
5.00502e-05
4.65223e-05
4.79786e-05
4.90751e-05
3.80537e-05
4.18067e-05
5.15538e-05
5.22759e-05
5.08502e-05
5.21866e-05
4.98832e-05
5.1207e-05
4.89598e-05
4.80021e-05
4.93693e-05
5.11733e-05
4.50594e-05
4.68757e-05
4.53452e-05
4.74908e-05
5.08697e-05
3.77133e-05
4.82569e-05
3.87711e-05
5.08858e-05
3.89429e-05
3.93474e-05
4.67852e-05
3.76564e-05
4.70901e-05
4.88829e-05
5.09805e-05
5.10629e-05
4.44335e-05
4.45414e-05
5.31182e-05
4.31766e-05
4.07525e-05
4.65481e-05
4.36554e-05
5.17051e-05
4.93173e-05
4.83465e-05
4.03258e-05
5.06007e-05
5.11218e-05
5.18549e-05
3.95241e-05
4.28e-05
4.77745e-05
5.041e-05
5.26563e-05
4.10767e-05
3.93439e-05
5.00604e-05
4.76962e-05
5.21718e-05
4.76428e-05
3.77755e-05
4.9237e-05
5.07587e-05
3.9863e-05
3.80113e-05
5.12611e-05
4.18283e-05
4.16209e-05
5.16376e-05
5.22775e-05
5.00605e-05
5.33993e-05
4.70969e-05
4.55948e-05
5.14201e-05
4.38687e-05
5.16158e-05
4.47789e-05
4.90559e-05
5.10852e-05
4.66783e-05
3.99184e-05
5.05585e-05
5.11318e-05
4.57266e-05
4.7105e-05
4.77483e-05
4.29511e-05
4.4921e-05
4.8293e-05
4.86918e-05
5.15416e-05
4.52086e-05
5.00611e-05
3.92111e-05
5.01429e-05
5.25134e-05
3.84382e-05
5.08393e-05
4.8131e-05
3.60116e-05
3.98165e-05
4.79707e-05
4.7329e-05
5.04668e-05
4.53456e-05
4.1089e-05
5.09268e-05
5.22377e-05
5.16942e-05
4.90863e-05
5.18669e-05
3.9581e-05
5.14834e-05
4.74015e-05
3.99076e-05
4.0311e-05
3.51799e-05
4.08406e-05
4.96264e-05
4.57473e-05
4.88048e-05
4.76789e-05
4.27913e-05
4.40048e-05
3.77917e-05
3.76949e-05
5.31762e-05
5.25173e-05
4.09586e-05
5.17022e-05
5.07399e-05
4.07953e-05
4.68496e-05
4.78988e-05
4.26477e-05
4.50716e-05
5.1945e-05
4.17318e-05
3.74228e-05
5.19151e-05
5.25217e-05
4.40415e-05
5.16305e-05
4.56079e-05
4.24121e-05
4.07414e-05
4.70477e-05
3.95731e-05
4.0029e-05
4.8258e-05
4.94875e-05
4.66958e-05
5.11846e-05
5.15472e-05
4.69511e-05
5.1699e-05
3.12161e-05
4.68209e-05
3.97188e-05
4.77848e-05
5.14983e-05
4.6913e-05
4.42113e-05
4.68583e-05
4.10881e-05
4.89601e-05
4.70867e-05
4.45562e-05
3.96972e-05
3.74115e-05
3.68015e-05
4.53815e-05
3.99981e-05
4.68794e-05
4.04161e-05
4.5842e-05
5.1516e-05
4.87911e-05
4.59704e-05
4.80702e-05
4.94591e-05
4.70752e-05
5.04468e-05
3.86034e-05
4.80483e-05
5.20533e-05
5.19966e-05
4.64047e-05
5.33676e-05
4.248e-05
5.00803e-05
4.65973e-05
3.91588e-05
5.01986e-05
5.20886e-05
4.95375e-05
5.00518e-05
5.12402e-05
4.86051e-05
3.70627e-05
3.80692e-05
4.6348e-05
5.24245e-05
4.81622e-05
5.09526e-05
4.45671e-05
4.57867e-05
4.21371e-05
3.89539e-05
3.89501e-05
3.868e-05
4.99356e-05
4.84042e-05
5.1763e-05
4.58075e-05
4.52441e-05
5.27797e-05
3.87407e-05
4.76793e-05
5.19791e-05
5.1437e-05
4.46854e-05
4.58844e-05
5.02504e-05
5.20321e-05
5.1614e-05
4.0113e-05
4.79447e-05
5.04257e-05
4.89363e-05
4.77922e-05
5.3017e-05
5.04562e-05
5.1705e-05
4.8438e-05
4.37224e-05
4.79019e-05
5.14402e-05
4.99149e-05
4.72998e-05
3.95771e-05
5.13158e-05
5.09306e-05
5.11807e-05
5.05156e-05
3.88198e-05
3.60167e-05
4.65034e-05
4.99114e-05
4.62881e-05
4.85764e-05
5.03233e-05
5.0589e-05
5.0912e-05
4.51125e-05
4.99795e-05
4.74459e-05
5.0788e-05
3.97965e-05
3.96088e-05
4.56401e-05
5.16295e-05
4.07772e-05
5.0829e-05
4.01351e-05
4.63954e-05
4.7514e-05
5.20352e-05
4.63993e-05
5.10587e-05
5.11627e-05
5.06456e-05
4.84348e-05
5.01255e-05
4.77736e-05
4.49829e-05
3.74581e-05
5.2375e-05
3.51564e-05
3.8423e-05
4.0933e-05
3.80844e-05
3.82417e-05
4.60908e-05
4.80985e-05
4.04564e-05
4.47597e-05
3.57315e-05
4.09906e-05
4.58594e-05
5.1441e-05
3.85169e-05
3.93666e-05
5.05369e-05
3.85675e-05
4.65118e-05
4.99568e-05
4.87815e-05
4.72264e-05
4.02943e-05
3.84993e-05
4.53224e-05
5.22112e-05
4.24349e-05
3.96799e-05
4.84601e-05
4.47338e-05
4.83301e-05
4.70847e-05
4.02957e-05
5.16795e-05
3.76094e-05
3.90044e-05
4.60787e-05
5.11797e-05
4.46752e-05
4.62205e-05
4.65512e-05
4.78422e-05
3.706e-05
4.14355e-05
4.60161e-05
5.20317e-05
4.97763e-05
3.86404e-05
3.6343e-05
4.63626e-05
5.25249e-05
4.68411e-05
4.71803e-05
4.45331e-05
4.61902e-05
4.71291e-05
3.97017e-05
5.16933e-05
4.42952e-05
3.96459e-05
3.61239e-05
5.01612e-05
4.7493e-05
5.19452e-05
4.83675e-05
5.06495e-05
3.96263e-05
4.60746e-05
3.74257e-05
3.56882e-05
5.05866e-05
4.0674e-05
4.61409e-05
4.75638e-05
4.90494e-05
3.97222e-05
5.19282e-05
5.06545e-05
5.19441e-05
4.88344e-05
3.37534e-05
4.73505e-05
3.77791e-05
5.20609e-05
4.0137e-05
5.16451e-05
3.59966e-05
4.87174e-05
4.95468e-05
4.44434e-05
4.52882e-05
3.67927e-05
4.35877e-05
4.73625e-05
5.06444e-05
4.93175e-05
5.16013e-05
5.14098e-05
3.95914e-05
5.18308e-05
4.52571e-05
4.83921e-05
4.88944e-05
5.09267e-05
5.04487e-05
4.73676e-05
5.21393e-05
4.61254e-05
4.42007e-05
4.41348e-05
4.83974e-05
5.12947e-05
4.36917e-05
4.14826e-05
5.13672e-05
4.92072e-05
4.69029e-05
5.32748e-05
4.88222e-05
4.84755e-05
4.98955e-05
5.11301e-05
5.12671e-05
4.70328e-05
4.56911e-05
5.09189e-05
4.99547e-05
4.19466e-05
4.70305e-05
4.32932e-05
5.19653e-05
4.83884e-05
5.11237e-05
4.0102e-05
4.02199e-05
4.77369e-05
5.03189e-05
5.0635e-05
5.19789e-05
5.09627e-05
4.79135e-05
4.96148e-05
4.06367e-05
4.74663e-05
4.73345e-05
5.14214e-05
5.14017e-05
5.15405e-05
4.66045e-05
5.19452e-05
4.15415e-05
5.17305e-05
4.346e-05
4.64251e-05
4.55367e-05
4.77105e-05
4.62179e-05
5.01115e-05
3.92423e-05
5.10081e-05
5.07501e-05
4.65064e-05
4.03638e-05
5.22118e-05
4.97449e-05
5.12006e-05
4.69172e-05
4.76364e-05
5.01954e-05
3.92571e-05
5.16592e-05
4.645e-05
4.79955e-05
4.31197e-05
4.37115e-05
4.29878e-05
3.89514e-05
4.47945e-05
5.26189e-05
4.80371e-05
3.78548e-05
4.86094e-05
3.86905e-05
4.83583e-05
4.85334e-05
3.74141e-05
3.87407e-05
4.39346e-05
4.80213e-05
5.02575e-05
4.50332e-05
5.01507e-05
4.66131e-05
4.33207e-05
4.42999e-05
5.17955e-05
5.15662e-05
5.13028e-05
4.99368e-05
4.89855e-05
3.95578e-05
4.04879e-05
5.204e-05
4.5728e-05
4.78623e-05
5.04616e-05
5.28524e-05
4.78553e-05
4.921e-05
3.73433e-05
5.0429e-05
5.10685e-05
4.47966e-05
5.18676e-05
5.13263e-05
4.87097e-05
4.50519e-05
4.97589e-05
4.52458e-05
3.74342e-05
4.78372e-05
4.06028e-05
3.89059e-05
4.80404e-05
4.75012e-05
5.05143e-05
5.0404e-05
4.82863e-05
5.16091e-05
3.59786e-05
4.49274e-05
5.20846e-05
5.18991e-05
3.80407e-05
4.76866e-05
4.16176e-05
4.50459e-05
5.16335e-05
4.43795e-05
4.91475e-05
5.27688e-05
4.96368e-05
3.73211e-05
5.0551e-05
3.96346e-05
5.12817e-05
4.99353e-05
4.8669e-05
5.12774e-05
4.82413e-05
5.12298e-05
3.9783e-05
5.1391e-05
5.17288e-05
4.11266e-05
4.89459e-05
4.72838e-05
4.56973e-05
5.05045e-05
4.6293e-05
5.07716e-05
5.19379e-05
5.21416e-05
4.71895e-05
5.16024e-05
4.74338e-05
4.9893e-05
4.2073e-05
4.46739e-05
3.89875e-05
3.83498e-05
4.85313e-05
4.92747e-05
4.7188e-05
5.18454e-05
4.60859e-05
5.1901e-05
3.79913e-05
5.23618e-05
5.22485e-05
4.9408e-05
5.19104e-05
4.18351e-05
3.75236e-05
4.68342e-05
3.88272e-05
5.09774e-05
4.76388e-05
3.74596e-05
4.61619e-05
5.23214e-05
4.94377e-05
3.88935e-05
4.297e-05
3.71299e-05
5.27322e-05
3.88816e-05
5.06357e-05
4.40427e-05
3.97883e-05
5.14649e-05
5.17643e-05
5.15465e-05
5.00961e-05
3.97726e-05
4.90303e-05
5.19529e-05
4.12445e-05
5.14892e-05
4.91315e-05
5.18663e-05
3.76722e-05
5.01158e-05
4.50718e-05
4.92691e-05
4.49821e-05
4.64692e-05
4.53589e-05
4.47303e-05
4.54717e-05
4.60685e-05
4.97963e-05
4.68446e-05
5.21973e-05
4.13854e-05
4.68065e-05
4.77361e-05
5.02044e-05
5.19147e-05
3.93056e-05
5.0526e-05
4.06864e-05
4.64648e-05
5.16108e-05
5.16664e-05
4.61605e-05
4.88185e-05
4.97559e-05
4.51347e-05
4.73082e-05
4.63631e-05
3.9161e-05
3.8935e-05
4.87848e-05
5.0604e-05
4.71362e-05
4.53311e-05
5.06635e-05
4.02905e-05
4.84187e-05
4.01875e-05
4.95359e-05
5.18795e-05
4.75913e-05
3.91219e-05
5.07225e-05
3.89022e-05
4.88038e-05
5.15056e-05
3.77851e-05
5.25965e-05
4.11819e-05
4.49331e-05
4.5995e-05
3.91869e-05
4.43376e-05
4.52967e-05
3.67885e-05
5.11329e-05
5.18341e-05
3.53633e-05
4.45768e-05
4.97071e-05
4.79318e-05
4.86146e-05
5.25855e-05
5.09968e-05
4.6485e-05
4.33595e-05
3.81115e-05
3.68005e-05
4.25786e-05
5.23819e-05
5.05975e-05
4.96539e-05
4.96343e-05
3.95929e-05
3.94998e-05
4.67257e-05
5.09274e-05
3.73254e-05
4.92224e-05
4.72951e-05
4.61718e-05
4.96953e-05
4.48964e-05
5.03851e-05
4.33552e-05
4.70567e-05
5.23536e-05
3.45889e-05
4.82669e-05
5.10567e-05
5.08975e-05
4.95704e-05
5.06252e-05
4.81125e-05
3.92876e-05
5.24952e-05
5.34725e-05
4.74704e-05
4.76876e-05
4.47518e-05
4.70728e-05
4.95129e-05
5.01222e-05
4.76823e-05
4.65573e-05
4.62188e-05
3.82704e-05
4.53411e-05
5.20165e-05
4.94029e-05
5.3234e-05
4.78925e-05
4.67935e-05
5.22057e-05
3.98391e-05
5.03359e-05
3.93651e-05
5.19217e-05
4.95038e-05
4.52437e-05
5.305e-05
4.47458e-05
4.68877e-05
5.22331e-05
4.58605e-05
5.21157e-05
5.03819e-05
5.02096e-05
3.92632e-05
4.73702e-05
4.68681e-05
4.23322e-05
5.05991e-05
4.57378e-05
4.59146e-05
5.21711e-05
3.97348e-05
5.15721e-05
4.75105e-05
5.14299e-05
4.51225e-05
4.84303e-05
3.95058e-05
4.08229e-05
5.29594e-05
3.99995e-05
4.72259e-05
5.03926e-05
3.91169e-05
4.65334e-05
5.07535e-05
4.44382e-05
4.05349e-05
4.34878e-05
4.58502e-05
4.56083e-05
5.05914e-05
4.63359e-05
5.13032e-05
4.84859e-05
5.09318e-05
3.72286e-05
4.26882e-05
5.1997e-05
4.6613e-05
3.87196e-05
4.08483e-05
4.74406e-05
4.05237e-05
3.92352e-05
4.74531e-05
4.66215e-05
5.2331e-05
4.54849e-05
5.07226e-05
5.10445e-05
5.08246e-05
5.08013e-05
5.08332e-05
4.53721e-05
4.43055e-05
5.06065e-05
4.65588e-05
4.52926e-05
5.1674e-05
4.7114e-05
3.82725e-05
3.85228e-05
4.64233e-05
4.10188e-05
4.9483e-05
5.04291e-05
4.53345e-05
5.09018e-05
5.05312e-05
5.0204e-05
5.31946e-05
4.67394e-05
3.95422e-05
4.53479e-05
4.56679e-05
5.05987e-05
4.54912e-05
4.95823e-05
5.1754e-05
4.62821e-05
4.48451e-05
4.78803e-05
5.16921e-05
4.97607e-05
5.4022e-05
5.0613e-05
4.63241e-05
4.73078e-05
4.1361e-05
4.50765e-05
5.17607e-05
4.20582e-05
5.20818e-05
4.51197e-05
5.06165e-05
3.89392e-05
4.97615e-05
4.7396e-05
5.0586e-05
4.68011e-05
4.91201e-05
4.69827e-05
5.08141e-05
3.79885e-05
4.11658e-05
4.74751e-05
4.47897e-05
4.82943e-05
4.75018e-05
4.7673e-05
5.16242e-05
4.83804e-05
3.80787e-05
4.36302e-05
3.92398e-05
4.82203e-05
4.71732e-05
4.01583e-05
5.33795e-05
4.74335e-05
4.6582e-05
5.0295e-05
4.28766e-05
4.05402e-05
5.19725e-05
4.04463e-05
3.86241e-05
4.59475e-05
4.50608e-05
4.08808e-05
4.36934e-05
5.1788e-05
5.07558e-05
4.51766e-05
4.81208e-05
5.04273e-05
4.72391e-05
5.01697e-05
3.81733e-05
5.11896e-05
3.22075e-05
5.05952e-05
3.96972e-05
3.91548e-05
5.10077e-05
3.86554e-05
4.6671e-05
4.86615e-05
5.06978e-05
4.46145e-05
4.89965e-05
4.55391e-05
4.68866e-05
4.4865e-05
4.96934e-05
4.83358e-05
5.09975e-05
4.74136e-05
4.00639e-05
4.97569e-05
4.68203e-05
4.63829e-05
4.67816e-05
4.16149e-05
4.37733e-05
3.78485e-05
3.90133e-05
4.73422e-05
4.59919e-05
4.11337e-05
4.47522e-05
5.07742e-05
5.1716e-05
5.16113e-05
3.11851e-05
3.8154e-05
5.15268e-05
3.90491e-05
5.00303e-05
3.84667e-05
5.12535e-05
5.08359e-05
5.07682e-05
3.99442e-05
4.62151e-05
5.20114e-05
5.18534e-05
4.85361e-05
5.17288e-05
4.70094e-05
4.82873e-05
4.6845e-05
3.93633e-05
4.84205e-05
4.40547e-05
4.73443e-05
4.70553e-05
4.20462e-05
4.64295e-05
5.15613e-05
4.3581e-05
4.38222e-05
3.90968e-05
5.01428e-05
5.00961e-05
3.69031e-05
4.69969e-05
4.71831e-05
4.90901e-05
3.98731e-05
4.76588e-05
4.70924e-05
5.27582e-05
3.80218e-05
4.68254e-05
4.65767e-05
3.73507e-05
5.09343e-05
4.03451e-05
4.09348e-05
4.87328e-05
5.17686e-05
3.77711e-05
5.09699e-05
4.87337e-05
4.71506e-05
3.78821e-05
5.18177e-05
5.18437e-05
3.74839e-05
4.73909e-05
3.68803e-05
4.04251e-05
5.17475e-05
4.52618e-05
4.8384e-05
5.08492e-05
5.19241e-05
4.5821e-05
4.46091e-05
4.64989e-05
4.61101e-05
4.81394e-05
4.47056e-05
5.13683e-05
3.98958e-05
4.48048e-05
4.71418e-05
4.5818e-05
4.97112e-05
4.64466e-05
4.92618e-05
4.9745e-05
4.74157e-05
5.18856e-05
4.96461e-05
4.57161e-05
4.35766e-05
5.00324e-05
4.59875e-05
4.48471e-05
4.93657e-05
5.20683e-05
4.98385e-05
5.01231e-05
4.4287e-05
4.96846e-05
4.39307e-05
3.94174e-05
4.68768e-05
4.87952e-05
3.93824e-05
4.90222e-05
4.63105e-05
3.56404e-05
3.90704e-05
5.00242e-05
3.81795e-05
4.60433e-05
5.0248e-05
4.87235e-05
3.93619e-05
4.87693e-05
5.28603e-05
4.03143e-05
3.93807e-05
3.99622e-05
5.12296e-05
4.71079e-05
4.64077e-05
5.12195e-05
3.88931e-05
4.95452e-05
4.74366e-05
5.19313e-05
5.23612e-05
3.38523e-05
4.75342e-05
4.94816e-05
5.0421e-05
4.78159e-05
4.64178e-05
4.02715e-05
4.85295e-05
5.20919e-05
4.3838e-05
3.76664e-05
4.54949e-05
5.09928e-05
4.91774e-05
3.883e-05
4.62673e-05
5.03001e-05
5.12371e-05
4.66281e-05
4.62749e-05
3.69906e-05
3.97614e-05
3.94912e-05
4.74532e-05
4.59419e-05
4.83438e-05
5.21718e-05
5.12229e-05
4.22628e-05
5.08506e-05
5.12637e-05
4.90291e-05
4.48321e-05
5.07675e-05
4.56945e-05
4.06829e-05
4.47319e-05
4.76419e-05
4.80886e-05
4.32034e-05
4.91358e-05
4.53819e-05
5.10002e-05
4.05117e-05
3.76053e-05
4.57266e-05
5.17914e-05
5.02374e-05
4.486e-05
4.57421e-05
5.04808e-05
5.11801e-05
4.5065e-05
4.55858e-05
5.09481e-05
5.23151e-05
4.97024e-05
5.1952e-05
5.01414e-05
4.9655e-05
3.81211e-05
4.5849e-05
3.95154e-05
4.94799e-05
5.09939e-05
4.45721e-05
3.92694e-05
5.21207e-05
3.89423e-05
4.38467e-05
4.10442e-05
4.68572e-05
3.82634e-05
4.89814e-05
4.69693e-05
4.67426e-05
4.75706e-05
4.16881e-05
5.15275e-05
4.02171e-05
4.93259e-05
4.73374e-05
4.63391e-05
3.90102e-05
5.05461e-05
4.9063e-05
4.07876e-05
4.24802e-05
4.60164e-05
4.53908e-05
4.78824e-05
3.84698e-05
4.8446e-05
4.54556e-05
4.76584e-05
4.39932e-05
4.36664e-05
4.35155e-05
3.88676e-05
5.08353e-05
4.72872e-05
1.99099e-05
4.03858e-05
4.75847e-05
5.13544e-05
5.02768e-05
4.10881e-05
4.03181e-05
5.12445e-05
3.95513e-05
5.0343e-05
5.17349e-05
4.84017e-05
4.05434e-05
5.10803e-05
3.8744e-05
3.70847e-05
3.71791e-05
4.9355e-05
4.64944e-05
4.47387e-05
5.20268e-05
4.96405e-05
4.81066e-05
4.09278e-05
3.59706e-05
5.24064e-05
4.75064e-05
5.27011e-05
5.08429e-05
3.94798e-05
4.63984e-05
4.66415e-05
4.50755e-05
4.69378e-05
4.42552e-05
4.57565e-05
5.43373e-05
4.7939e-05
4.50042e-05
3.96234e-05
4.85789e-05
4.64827e-05
4.96076e-05
4.52838e-05
3.90704e-05
4.0297e-05
4.89695e-05
4.92426e-05
4.412e-05
5.01522e-05
4.35891e-05
4.93355e-05