/*--------------------------------*- C++ -*----------------------------------*\
| =========                 |                                                 |
| \\      /  F ield         | OpenFOAM: The Open Source CFD Toolbox           |
|  \\    /   O peration     | Version:  2212                                  |
|   \\  /    A nd           | Website:  www.openfoam.com                      |
|    \\/     M anipulation  |                                                 |
\*---------------------------------------------------------------------------*/
FoamFile
{
    version     2.0;
    format      ascii;
    arch        "LSB;label=32;scalar=64";
    class       volScalarField;
    location    "0.036";
    object      p;
}
// * * * * * * * * * * * * * * * * * * * * * * * * * * * * * * * * * * * * * //

dimensions      [0 2 -2 0 0 0 0];

internalField   nonuniform List<scalar> 
31639
(
0.0132308
0.00921794
0.0151408
0.00675477
0.00930036
0.0129798
0.0145251
0.0138402
0.00984191
0.00839919
0.014427
0.00938098
0.00974692
0.0126725
0.0110346
0.01548
0.0179463
0.0183593
0.00301487
0.0140806
0.0102375
0.00791858
0.0107854
0.00667215
0.0115713
0.0136999
0.0133228
0.0420589
0.0139179
0.0138837
0.00746136
0.019822
0.0098889
0.00536211
0.0241044
0.0138281
0.00795672
0.014429
0.0144154
0.0117996
0.00943875
0.0135037
0.0105633
0.0146665
0.0151075
0.00631328
0.00945752
0.00747932
0.01619
0.00680025
0.0062759
0.00504189
0.0245299
0.0149781
0.00490807
0.0183383
0.00805939
0.0134022
0.00922878
0.00643422
0.0070697
0.0135336
0.0112189
0.0138002
0.0243383
0.00397699
0.0024441
0.00772606
0.00955682
0.00598364
0.00851209
0.0180737
0.00830707
0.00358046
0.024655
0.019619
0.00852487
0.00789929
0.0091484
0.00866376
0.0131844
0.0126469
0.0124614
0.00694845
0.0123228
0.0114349
0.0105937
0.00747183
0.00241521
0.00996685
0.00565732
0.017988
0.00662192
0.00880704
0.00422179
0.0133194
0.00719104
0.0050856
0.0096475
0.0127925
0.0227657
0.0227534
0.0116029
0.0088269
0.00490142
0.00612768
0.0129616
0.0065025
0.00752322
0.0117094
0.014479
0.0126364
0.0135019
0.00795254
0.003545
0.0141032
0.0241884
0.0149415
0.0228776
0.00710465
0.0200118
0.00615729
0.0031975
0.00678132
0.012906
0.0126701
0.00913562
0.00687985
0.0083925
0.0101639
0.0239504
0.00106087
0.0153118
0.00360516
0.0043206
0.00769703
0.00805074
0.00881387
0.00632208
0.00705664
0.00699757
0.0103906
0.0113245
0.00648521
0.00946893
0.0123281
0.0230345
0.00803041
0.0119073
0.024598
0.00720577
0.0165475
0.00516666
0.00464554
0.00602991
0.00461501
0.00339628
0.00846963
0.0161219
0.00764187
0.00421144
0.0181256
0.0081195
0.0134754
0.0192459
0.0193172
0.0150171
0.0168449
0.00530017
0.00368994
0.0172408
0.0126702
0.0171662
0.00984601
0.0122356
0.00824118
0.0110779
0.01994
0.00772315
0.0116549
0.00966564
0.0159199
0.0135477
0.0141023
0.0141563
0.0138293
0.0165998
0.0116553
0.0126886
0.0157162
0.0160036
0.00836215
0.0162545
0.00495948
0.00564393
0.00587294
0.00565946
0.00897967
0.00578075
0.0142995
0.0120114
0.0181869
0.0159414
0.0169045
0.00822062
0.00686376
0.00286947
0.00486089
0.0203134
0.00554757
0.00553373
0.0117989
0.0229003
0.0122354
0.0147308
0.0123372
0.0123767
0.0123327
0.0172739
0.00924935
0.00957045
0.0117795
0.0124632
0.0172857
0.0150345
0.00859166
0.0155229
0.01518
0.0107565
0.0197107
0.00519858
0.0142811
0.018133
0.0157086
0.0161429
0.00275525
0.00254455
0.0164398
0.0135339
0.00489385
0.00695507
0.0148121
0.0172117
0.0161953
0.00715611
0.0185661
0.00548374
0.0191956
0.0156789
0.00278299
0.000804269
0.00632164
0.0160685
0.0184404
0.00895256
0.00958279
0.0134047
0.00413652
0.0132467
0.0153175
0.00640988
0.00515315
0.00896938
0.0126793
0.00907571
0.0122902
0.00203257
0.023317
0.0146104
0.0130635
0.0298636
0.00609533
0.013324
0.0165101
0.00794872
0.0155584
0.00566778
0.0173421
0.00770748
0.00632538
0.0194275
0.0199743
0.0198418
0.0263577
0.0142248
0.0142665
0.0173683
0.0165709
0.00315645
0.0159956
0.0178171
0.00143509
0.00514068
0.00516633
0.015066
0.00445166
0.0180313
0.00240399
0.00708045
0.00816968
0.00760408
0.0172971
0.00549137
0.00493264
0.0110041
0.00442237
0.0125491
0.00292015
0.0106159
0.0173869
0.00734791
0.0291088
0.0232951
0.0103275
0.00949268
0.0133566
0.00256114
0.0200889
0.0155866
0.015317
0.0147088
0.00615361
0.0224861
0.00455598
0.0121075
0.0164306
0.0147562
0.0165969
0.00534474
0.00618228
0.00641018
0.00674935
0.0176127
0.00505239
0.0181766
0.0242062
0.02479
0.00767554
0.0168291
0.0189915
0.00430875
0.00211694
0.0184877
0.00387747
0.005537
0.0171436
0.00467802
0.0151384
0.0149688
0.0225462
0.00845774
0.0173111
0.00844857
0.0160028
0.00489613
0.0064323
0.00548012
0.0110474
0.0112188
0.0166079
0.0182002
0.0111737
0.0290113
0.00315625
0.00775136
0.00699412
0.00374738
0.0111563
0.0119495
0.0166071
0.0108367
0.020312
0.0127083
0.00597574
0.00402531
0.00671961
0.0233511
0.0195165
0.0163003
0.0204167
0.0154395
0.00504498
0.00755077
0.00503064
0.00463938
0.00440283
0.00541649
0.00932925
0.000483466
0.0186174
0.00275541
0.0206378
0.00548421
0.0172467
0.00477483
0.0176676
0.0187452
0.014121
0.00676288
0.0273726
0.0183663
0.0144255
0.013806
0.0046065
0.0162615
0.00251278
0.00717241
0.00725138
0.00752924
0.0141661
0.00621009
0.00728913
0.0161666
0.0300151
0.0148364
0.0163111
0.0119359
0.0127515
0.01142
0.00950179
0.00916743
0.0225149
0.0108932
0.000974292
0.0162159
0.0296055
0.0105109
0.0220169
0.012704
0.0151525
0.00663105
0.00549108
0.0172829
0.00626468
0.0137785
0.0137938
0.0168115
0.00411655
0.00507509
0.0179758
0.00761619
0.00268225
0.00322946
0.0124218
0.00430949
0.00772485
0.0081385
0.018857
0.0184413
0.0199332
0.0187827
0.0163672
0.00796505
0.0167718
0.00755234
0.0178676
0.0200681
0.00620926
0.0164183
0.00689987
0.0134981
0.0192954
0.0127707
0.00345873
0.0158072
0.0439677
0.0034225
0.0103047
0.00699179
0.0153521
0.00199482
0.00531586
0.00635619
0.00529194
0.0167587
0.00136196
0.0106245
0.0216635
0.00955417
0.0110812
0.0064254
0.0235849
0.0041334
0.00875211
0.0225284
0.0289793
0.0105042
0.0150449
0.0122453
0.00817121
0.00632295
0.00483326
0.0197843
0.00228773
0.0130297
0.0125335
0.0118667
0.00357443
0.00541645
0.0190103
0.0214625
0.00274203
0.00313532
0.00352323
0.00206583
0.0253213
0.00726443
0.00301211
0.0202208
0.022517
0.0201093
0.00424081
0.0181367
0.0168532
0.0191561
0.00217822
0.0225137
0.0225679
-0.000354098
0.0195423
0.0188753
0.0196499
0.0124921
0.0209649
0.000920145
0.00342473
0.0191147
0.0028376
0.00345121
0.00584985
0.0142136
0.00959934
0.0176152
0.00118132
0.0062655
0.0100804
0.0211572
0.00136886
0.0167759
0.00259107
0.0293184
0.0296348
0.00698368
0.0423449
0.00718148
0.00714935
0.0116373
0.0119641
0.0082839
0.0113633
0.0304743
0.00834483
0.0164481
0.000690889
0.00745452
0.0115583
0.00653918
0.0188145
0.00145477
0.00449831
0.0113216
0.00405563
0.0102479
0.0104544
0.00564521
0.0237583
0.00411395
0.0029093
0.000446873
0.0131993
0.0216264
0.0032557
0.000683007
0.00398914
0.00441561
0.00345097
0.0200988
-2.90436e-05
0.00135626
0.00093372
0.0180624
0.00226587
0.0189156
0.0193414
0.0201706
0.00590794
7.25164e-05
0.000291663
0.00307233
0.000897558
0.0123923
0.00107678
0.0123773
0.0196291
0.00166382
0.00720014
0.00966209
0.0236265
0.0218178
0.0171114
0.00817583
0.00393641
0.0226904
0.0195126
0.00183136
0.00201253
0.00841439
0.0142422
0.00586175
0.0012682
0.000111691
0.00099299
0.0188402
0.0157705
0.00722251
0.0433689
0.0155048
0.0120637
0.00835042
0.0130354
0.016741
0.0166035
0.0116119
0.00741431
0.00929547
0.00962205
0.0157661
0.00363185
0.0113114
0.00134221
0.0123216
0.0287393
0.0199846
0.018449
0.0137041
0.0108228
0.0261282
0.0121605
0.014582
0.00645897
0.0231864
0.021865
0.00319649
0.0119765
0.0135989
0.000257415
0.0265746
0.00732112
0.0012465
0.00357278
0.00203231
0.0236055
0.0215515
0.0220012
0.00331817
0.000130114
0.0186488
0.0125465
0.0196694
0.0202904
0.0203209
0.00132866
5.49637e-05
0.0192839
0.0167993
0.0173603
0.0203436
0.00114249
0.00726581
0.029835
0.00421287
0.00238247
0.020892
0.0118288
0.00499616
0.0190331
0.0187433
0.0152488
0.00881998
0.00586274
0.0138633
0.00797957
0.000421495
0.000765548
0.00155966
0.00588216
0.00223476
0.0236408
0.00840333
0.000643397
0.000728885
0.0180939
0.00639079
0.000786458
0.043758
0.00593506
0.00708157
0.00952508
0.010759
0.00911791
0.0116513
0.0110144
0.0073932
0.00849701
0.0122608
0.00781046
0.0072972
0.00827905
0.0109275
0.0208328
0.0118025
0.0111519
0.0182884
0.0236634
0.0199189
0.00557471
0.0109754
0.00316513
0.0124199
0.0244762
0.000948749
0.00227539
0.0020531
0.00632989
0.00733379
0.0181568
0.0173675
0.00516525
0.00212641
0.014168
0.0235324
0.000591517
0.0193414
0.00769333
0.0178429
0.0163863
0.0172632
0.0222446
0.0207162
0.0267351
0.0189562
0.015865
0.0197419
0.017811
0.0184152
0.00662612
0.0232037
0.00651759
0.00171552
0.00434057
0.0180207
9.88651e-05
0.0149211
0.00352694
0.00491931
0.0149669
0.00898773
0.0223883
0.00416969
0.0156615
0.00507049
0.0257717
0.00742384
0.000715974
0.00108413
0.0210288
0.0140526
0.000958132
0.00231632
0.00134451
0.00447522
0.000617436
0.000304577
0.0176998
0.0171422
0.000212303
0.0171968
0.015216
0.0184022
0.0100783
0.00997926
0.00807027
0.0129359
0.0135473
0.00630857
0.00102246
0.0118578
0.0162342
0.0119932
0.0222454
0.0199138
0.0118945
0.0193469
0.00735492
0.0299007
0.00350052
0.0195038
0.0116684
0.000107709
0.0132778
0.00340136
0.00708712
0.0029452
0.00296646
0.014925
0.0211773
0.00519627
0.0187294
0.000883834
0.000910311
0.000919832
0.0246695
0.024821
0.023599
0.0253992
0.0209391
0.0193426
0.00649722
0.00419883
0.00717508
0.00189502
0.0138119
0.00618892
0.0162667
0.00900243
0.00720426
0.00224729
-0.00011619
0.00526002
0.00281062
0.0220188
0.00957487
0.00517022
0.00496442
0.00919521
0.000916813
0.015468
0.00501891
0.0193591
0.00372638
0.00253174
0.0127246
0.0126654
0.0196995
0.0234434
0.0205383
0.0156383
0.00880031
0.00955393
0.018615
0.000149372
0.00102449
0.0183088
0.0187128
-0.000113495
0.000422575
0.00265064
0.0184495
0.00485945
0.0112135
0.0237974
0.0232188
0.0118317
0.027817
0.00894271
0.007735
0.00797251
0.0051598
0.00320471
0.0194383
0.00329358
0.0118737
0.0143808
0.0219309
0.006917
0.00797994
0.00760139
0.017655
0.017889
0.0179279
0.0254601
0.00237414
0.020649
0.0203568
0.0207773
0.0112735
0.000418757
0.0244178
0.0251739
0.0231849
0.0136743
0.0144609
0.015792
0.0147249
0.0175553
0.0135004
0.000553561
0.0184685
0.00859407
0.0058857
0.0187888
0.00142732
0.000843444
0.00327964
0.00307157
0.022507
0.00904514
0.0033235
0.0046167
0.00816366
0.0166535
0.00781373
0.00717175
0.0150277
0.0105182
0.000313919
0.0193738
0.0122697
0.0203556
0.0102651
0.00213528
0.0157761
0.0156694
0.000773289
0.0090484
0.00842943
0.00063688
0.000772475
0.0192002
0.0220564
0.00889037
0.0114839
0.00133281
0.0204192
0.0254396
0.0213132
0.0147068
0.00687678
0.01994
0.0150688
0.00797202
0.0110876
0.00616325
0.00626437
0.00993699
0.0188986
0.00342037
0.0123571
0.0078106
0.00704725
0.000232808
0.0211206
0.00828791
0.0218073
0.00601051
0.0178534
0.0206184
0.010249
0.0102995
0.021511
0.0174207
0.0195767
0.00758186
0.00879868
0.0173142
0.0165306
0.0131101
0.0138888
0.0201644
0.0206332
0.0271605
0.0159683
0.0180244
0.00115581
0.000765356
0.0184746
0.0168634
0.00866314
0.0200338
0.00288329
0.0141237
0.0157258
0.0197348
0.00243881
0.020244
0.0183994
0.0219443
0.0208483
0.0217995
0.0102849
0.0187378
0.00831741
0.014402
0.0139759
0.0132819
0.0226679
0.0209987
0.0203325
0.0171862
0.00932089
0.0121502
0.0133958
0.0206425
0.0132445
5.91363e-05
0.0215105
0.0236832
0.0111732
0.00943774
0.00395941
0.00283992
0.00786205
0.0208468
0.00653246
0.00699399
0.0256776
0.0104697
0.00390006
0.00536305
0.00046895
0.0099906
0.0113157
0.0102896
0.0192309
0.00070276
0.0222635
0.0019763
0.0216336
0.0209084
0.0255321
0.00984158
0.0101141
0.00862731
0.0161893
0.0143923
0.016872
0.0260009
0.018919
0.0200453
0.0132551
0.016139
0.00955824
0.0169657
0.0147135
0.00321925
0.00291152
0.0118625
0.000959443
0.00845325
0.022423
0.0236294
0.00430707
0.0217019
0.0141121
0.0228091
0.0125008
0.0128481
0.00173332
0.0009515
0.0165887
0.0149862
0.00723256
0.00951879
0.00899009
0.0139096
0.00962327
0.0188177
0.02018
0.0258539
0.0198806
0.0214644
0.012999
0.00915311
0.0106985
0.000958415
0.00183073
0.00351847
0.009424
0.00850352
0.0149188
0.00878576
0.015723
0.0178118
0.0197336
0.0091004
0.00567084
0.0264376
0.0138354
0.0236436
0.0233462
0.0103984
0.0238472
0.00242703
0.0200855
0.00601699
0.0113398
0.00451925
0.00879565
0.00983529
0.0226069
0.0229949
0.000719838
0.0206919
0.0246827
0.0282276
0.00918744
0.0173918
0.0199698
0.0202774
0.00817653
0.00881752
0.018815
0.0284873
0.0187306
0.00346888
0.0165593
0.0278499
0.0161186
0.015922
0.0154152
0.00766475
0.0233495
0.0201765
0.0235469
0.00206285
0.0168092
0.00139129
0.0139132
0.0197469
0.00422793
0.0198681
0.00610987
0.0189005
0.0257231
0.0111207
0.000565244
0.0125717
0.0134705
0.000774709
0.00833292
0.00845378
0.0132962
0.00971248
0.0271184
0.0216735
0.00852972
0.00842569
0.0209849
0.0117975
0.0199525
0.0263045
0.0203211
0.000723733
0.000692355
0.0214989
0.0186692
0.0130854
0.0145542
0.0167029
0.0138293
0.0143669
0.0235196
0.0206144
0.0247574
0.0185812
0.0162815
0.00231807
0.0238354
0.00314175
0.00901603
0.0222656
0.0238376
0.0192505
0.0100693
0.00900391
0.00049627
0.0208542
0.0128995
0.0220892
0.01214
0.0233811
0.0247775
0.0156326
0.0166946
0.00997627
0.00487438
0.0270299
0.0128851
0.0165503
0.0128545
0.0118661
0.0172097
0.0273653
0.0158248
0.0148622
0.0293943
0.00256437
0.0231097
0.0142637
0.0284656
0.0147537
0.0118706
0.0229365
0.0234986
0.00423408
0.0087958
0.00489733
0.00602985
0.0203091
0.010775
0.0117021
0.000490005
0.00936427
0.0340283
0.00960887
0.0100556
0.0138736
0.0143171
0.0135313
0.0213873
0.0219315
0.0158771
0.00850276
0.0217063
0.0121868
0.0224944
0.0201293
0.0203056
0.0224025
0.0228969
0.0210149
0.00802888
0.000661764
0.0240501
0.00727732
0.025284
0.0281904
0.0264038
0.00962567
0.0241302
0.0161942
0.00257329
0.00211459
0.00353379
0.0215356
0.0223325
0.0221884
0.0205842
0.0246044
0.0100521
0.00833348
0.0225808
0.0250426
0.0119293
0.0222327
0.0238865
0.0158408
0.00918502
0.0271647
0.0242497
0.0208693
0.0169022
0.0216261
0.0177122
0.0233024
0.00195412
0.0176032
0.0208777
0.0238873
0.0170497
0.0226913
0.0113674
0.0286007
0.0178499
0.00238332
0.0216421
0.0051949
0.000151198
0.00490698
0.0170465
0.0145138
0.016859
0.0216686
0.0235302
0.00890812
0.018609
0.0106248
0.0144699
0.0136933
0.0135056
0.00831119
0.0221377
0.0148424
0.0153985
0.0219262
0.0153922
0.00766753
0.00736511
0.01546
0.0162306
0.0147735
0.0206034
0.0210808
0.00122697
0.0145706
0.0219498
0.0209399
0.0151326
0.015471
0.0127331
0.0158121
0.0276511
0.00137738
0.00758868
0.0230424
0.00356302
0.0101609
0.0109932
0.010484
0.0256514
0.0271964
0.00340704
0.0278146
0.0247442
0.0177425
0.0176972
0.0251516
0.018337
0.0232418
0.0218273
0.00437197
0.0097036
0.0264572
0.000489139
0.00077381
0.0252935
0.0235896
0.00410973
0.0250209
0.0183909
0.0161125
0.0104649
0.0237477
0.0231757
0.00841614
0.0219564
0.0204043
0.0179447
0.0160302
0.000990411
0.00170368
0.00121173
0.0184743
0.0212025
0.0136531
0.0241214
0.0267421
0.0131974
0.0117152
0.0082154
0.00491955
0.0292631
0.00013278
0.00336637
0.0105322
0.00129094
0.000288925
0.000544711
0.0112431
0.00823892
0.00102172
0.0363331
0.0229944
0.0173827
0.026911
0.0150166
0.028889
0.00471036
0.00929326
0.009713
0.0277961
0.0278971
0.0150787
0.00789352
0.01582
0.0142775
0.0186685
0.0173249
0.0180364
0.0211289
0.00157484
0.0225468
0.0227765
0.0229526
0.0222962
0.0187146
0.0184527
0.0142134
0.0130816
0.0239808
0.0208076
0.00671705
0.00524508
0.0141028
0.0202062
0.0269623
0.00653908
0.00757352
0.00785508
0.0201133
0.0254554
0.0267815
0.0262937
0.00213477
0.00127713
0.0250091
0.000806251
0.0245949
0.0255997
0.00518338
0.0071926
0.00323472
0.0239265
0.00909062
0.0210227
0.0164951
0.0165841
0.0258109
0.0263136
0.0118397
0.028905
0.0286258
0.0194869
0.0178957
9.21343e-05
0.000714765
0.019899
0.0180075
0.0217565
0.0282693
0.0430407
0.0288158
0.0227055
0.0288269
0.0228604
0.00284055
0.021068
0.0243025
0.00328738
0.0228241
0.00557269
0.000625335
0.0223497
0.000793828
0.0104149
0.0113112
0.0111943
0.0103135
0.000496346
0.00220916
0.00710733
0.027384
0.025521
0.0184941
0.0109936
0.0139076
0.00879116
0.0110457
0.00816373
0.0106869
0.0104823
0.00945192
0.0195589
0.0167668
0.0224922
0.0166302
0.022521
0.00157333
0.0220475
0.00115593
0.0291219
0.0227241
0.0148666
0.0187139
0.00907628
0.0119135
0.0041523
0.00305149
0.00729651
0.00491635
0.0134581
0.0220508
0.0103071
0.017274
0.0157626
0.00619337
0.0155052
0.0272953
0.00156711
0.0035242
0.00147363
0.0180011
0.0256703
0.020763
0.0067227
0.0052876
0.0253193
0.00325647
0.0253914
0.0240133
0.0437655
0.0254853
0.0251918
0.0287667
0.0269946
0.0259035
0.0202256
0.00520198
0.0209117
0.00495908
0.0214312
0.0221671
1.35256e-06
0.0271186
0.0126603
0.00253532
0.0212654
0.0268032
0.0209384
0.0240519
0.0209724
0.0106159
0.0129782
0.0201912
0.0227928
0.0249478
0.0267751
0.000818746
0.00353906
0.0170474
0.0225964
0.0212262
0.0187892
0.0197819
0.00146526
0.0187887
0.0101322
0.0106234
0.0103475
0.00902823
0.0119644
0.0144436
0.000616214
0.0230393
0.0240252
0.0202811
0.00135213
0.0238681
0.0145032
0.015271
0.01724
0.0180081
0.0210129
0.0164164
0.0369841
0.00422337
0.0149705
0.0233054
0.0179684
0.0179678
0.00349017
0.0163423
0.0255748
0.0286695
0.0210468
0.00965468
0.0248188
0.00885314
0.0165649
0.0264535
0.0278851
0.0165629
0.0281841
0.027943
0.0277562
0.0258633
0.0175172
0.0269096
0.0254557
0.0223179
0.00999707
0.0200947
0.00791784
0.00220047
0.0205874
0.00651783
0.0262357
0.0267392
0.0260385
0.0242272
0.0153564
0.0243939
0.0275587
0.00860331
0.00605343
0.0119311
0.0295485
0.0201215
0.0193694
0.00497735
0.00433554
0.0232741
0.00148761
0.0141168
0.0289398
0.0248737
0.0211659
0.0218678
0.013124
0.0116009
0.00306137
0.0225232
0.000339699
0.00821411
0.0252333
0.00111191
0.00313945
0.00486479
0.00640564
0.00376994
0.0177863
0.0199861
0.0232924
0.0152777
0.00939924
0.0337009
0.00935668
0.0108014
0.0115234
0.0242916
0.0219146
0.0275445
0.02481
0.00777502
0.0138319
0.0134453
0.0134227
0.0156704
0.0190214
0.0190832
0.0222072
0.0211283
0.0197472
0.0145191
0.0107809
0.0109512
0.00268952
0.0208714
0.0248647
0.00888332
0.00367874
0.0372739
0.0140639
0.0254762
0.0171471
0.0258282
0.0309723
0.0200423
0.00899715
0.00764534
0.016504
0.0274701
0.0262441
0.00679698
0.0291684
0.000269538
-0.000208265
0.0251801
0.0280724
0.014024
0.0116098
0.0235295
0.00602231
0.0262862
0.028386
0.0114243
0.0231959
0.0240877
0.0357989
0.00648821
0.0271324
0.0159188
0.0166057
0.0228431
0.0272475
0.00307529
0.0212855
0.0291591
0.0283803
0.0303741
0.00650373
0.0238198
0.0232151
0.00335096
0.018816
0.0271881
0.0194577
0.00274705
0.00845356
0.0179234
0.00588071
0.0197005
0.00836339
0.000729472
0.000940451
0.0119835
0.00345348
0.0258793
0.01513
0.00664218
0.011564
0.0268249
0.0269042
0.0238149
0.0249311
0.0264618
0.0152602
0.00275014
0.00572273
0.0132108
0.0225726
0.0226459
0.0232618
0.0235315
0.0160788
0.0157605
0.014267
0.0195769
0.017377
0.0174978
0.0188778
0.0285838
0.0205938
0.0226428
0.019312
0.0214218
0.0211723
0.0107165
0.0207854
0.0162601
0.0100506
0.0146116
0.0329819
0.0164626
0.0367389
0.0217528
0.00631809
0.00978243
0.0191442
0.0312425
0.0175621
0.0165868
0.00745496
0.0218434
0.000706908
0.00188231
0.000363904
0.0271958
0.0269692
0.0273682
0.0140697
0.029579
0.00526812
0.0280393
0.0284382
0.0273253
0.00285349
0.031192
0.02756
0.0021119
0.0291859
0.0166008
0.0174113
0.016361
0.0227541
0.0247081
0.0202857
0.0213273
0.0225734
0.0139809
0.013479
0.00349169
0.0283993
0.0223508
0.0255542
0.0195227
0.024861
0.0278018
0.0103293
0.0267256
0.00274708
0.0199731
0.00946679
0.00109847
0.0001766
0.0120271
0.0250091
0.0094472
0.0228388
0.0232383
0.00784196
0.0244186
0.00911534
0.0293106
0.023217
0.0288967
0.0217874
0.0118261
0.0229772
0.0240609
0.0267003
0.00616159
0.0236754
0.0236854
0.0248143
0.0266593
0.0190333
0.0251796
0.0202845
0.00275053
0.0241314
0.00610803
0.0180102
0.0190018
0.0130492
0.0208309
0.0315114
0.0159078
0.0147074
0.0155085
0.0107757
0.020203
0.00751323
0.0134241
0.0247647
0.0117409
0.023367
0.00701272
0.024983
0.0208419
0.00651239
0.0176655
0.0259867
0.00687032
0.020494
0.0134809
0.0018437
0.000190571
0.00186749
0.02614
0.0171653
0.0195766
0.0149239
0.0146195
0.0262308
0.0284521
0.0275436
0.0208752
0.0271306
0.0221751
0.0286906
0.0150876
0.0292289
0.0290485
0.0290357
0.028124
0.0273343
0.00330283
0.0229614
0.0274042
0.0209005
0.0188862
0.0305038
0.0274658
0.0138068
0.0284928
0.00288397
0.0258941
0.0270787
0.0189319
0.0180631
0.0245001
0.0256426
0.0244241
0.00121712
0.0285392
0.0215358
0.00814529
0.000437646
0.0282629
0.00868917
0.00364458
0.00236962
0.000328138
0.0202468
0.00644522
0.033981
0.0103223
0.0243387
0.0130266
0.00989705
0.0142153
0.0238026
0.0101834
0.0282317
0.0234877
0.0138037
0.0264088
0.023605
0.020263
0.03165
0.021385
0.027189
0.0174771
0.029323
0.0173915
0.0172807
0.00366975
0.0220134
0.0208089
0.0220877
0.0254311
0.018616
0.029416
0.0220124
0.0213955
0.00300108
0.00658879
0.0295449
0.0155431
0.00577598
0.0156626
0.0389773
0.009462
0.0305252
0.00709795
0.00139737
0.011742
0.0121957
0.0108323
0.0201964
0.00624316
0.0188361
0.0236112
0.0168381
0.00562676
0.00609375
0.027661
0.00173517
0.0205859
0.0191519
0.0127111
0.0258149
0.0308016
0.0133989
0.0257893
0.0241308
0.0213494
0.000432755
0.0208252
0.0232795
0.0275393
0.0281183
0.031757
0.0294941
0.00367506
0.00243952
0.0297657
0.00356534
0.0267139
0.0285803
0.02651
0.00575755
0.0326318
0.0125406
0.0236447
0.0284096
0.0256524
0.0264291
0.0253753
0.0241561
0.0220945
0.0129832
0.0242493
0.0183374
0.00214663
0.0120286
0.0265509
0.0241457
0.0312738
0.0329827
0.0016888
0.0172132
0.0028269
0.00537963
0.0277704
0.00531224
0.00454098
0.0291807
0.00672874
0.0113748
0.0167944
0.0281813
0.000301792
0.0275338
0.0237073
0.0130627
0.0270829
0.0288222
0.0149256
0.0271502
0.0219875
0.0291682
0.0270846
0.0266522
0.0196766
0.0302076
0.0210179
0.00611894
0.00644436
0.0293372
0.0218477
0.0268024
0.0325695
0.0241275
0.0257263
0.0321047
0.00643063
0.0291575
0.0284765
0.0292762
0.0160465
0.0422038
0.00494645
0.00827355
0.012978
0.0119906
0.031658
0.00956262
0.0232307
0.0184389
0.0192515
0.0179994
0.00656026
0.0118232
0.00769456
0.0275388
0.00129195
0.0293276
0.0298826
0.030252
0.0142905
0.0250908
0.0374523
0.0233061
0.00210214
0.0268722
0.00902649
0.0112828
0.0308361
0.0144667
0.0304535
0.0309653
0.020725
0.00331587
0.0274853
0.0264007
0.0273627
0.0203471
0.027052
0.0270251
0.0260872
0.0230329
0.0237166
0.0244086
0.0245318
0.020171
0.0187658
0.00187902
0.0281361
0.0170219
0.0182449
0.0199051
0.0101319
0.00850432
0.0339163
0.026396
0.0241673
0.030754
0.0318049
0.0119195
0.00488755
0.00823683
0.0332831
0.0171493
0.00875994
0.028447
0.00742718
0.0248115
0.0142391
0.00625136
0.00598181
0.0232844
0.0135328
0.0255257
0.00106103
0.0224724
0.00235997
0.0243415
0.0139303
0.0203383
0.0208651
0.0197935
0.0256168
0.0248332
0.0279855
0.00863503
0.0382293
0.036897
0.0324491
0.0223381
0.0220771
0.0171913
0.0233686
0.0261055
0.0274297
0.0313693
0.000101005
0.0122033
0.0134946
0.0414754
0.028098
0.00348641
0.0289263
0.00355888
0.0164961
0.0189295
0.0115703
0.00843889
0.0326079
0.0264489
0.00898911
0.0177867
0.0336539
0.0114712
0.00707947
0.000596748
0.0164275
0.00245121
0.030283
0.00716643
0.0321419
0.038157
0.00980791
0.0267979
0.000361151
0.000384506
0.00931583
0.0310237
0.0310029
0.0295479
0.0262272
0.00196803
0.0202382
0.043456
0.0193922
0.0260903
0.0248752
0.0258395
0.0262043
0.0207478
0.0287162
0.0254502
0.00893587
0.0022088
0.00249809
0.00251965
0.0244036
0.0272867
0.0152803
0.0272369
0.00643131
0.00666958
0.00758516
0.0234971
0.0318118
0.0313748
0.0329314
0.0186055
0.00925684
0.0288907
0.00876226
0.0233784
0.0253674
0.0262758
0.014314
0.0288552
0.0130591
0.0239113
0.0248281
0.0237461
0.0125561
0.0178104
0.0440932
0.0111095
0.00284414
0.0226522
0.0193725
0.0241802
0.0156092
0.0182023
0.0196439
0.0209658
0.0173476
0.0253024
0.0366232
0.0188007
0.0284056
0.0130872
0.0233034
0.0177348
0.0224856
0.0244272
0.0230523
0.0310971
0.00440828
0.0305254
0.0202057
0.000969775
0.0132476
0.0320263
0.0286771
0.0169499
0.0040351
0.0259275
0.00937265
0.0329124
0.00942863
0.0268307
0.0253964
0.0298815
0.0226625
0.0275477
0.0188242
0.00317025
0.0246929
0.0028321
0.0300045
0.000295545
0.00103118
0.00627622
0.00228592
0.0205152
0.00108086
0.0332066
0.0334453
0.0280878
0.028919
0.0314644
0.0315222
0.0304646
0.030877
0.00863363
0.0336179
0.0303746
0.00670258
0.0287792
0.0353916
0.0198248
0.000113294
0.0277256
0.0301353
0.0259138
0.024159
0.0272549
0.0324095
0.0030845
0.0285301
0.00140933
0.000767332
8.11112e-05
0.0248485
0.0175858
0.00767614
0.0144226
0.0282334
0.0416554
0.0198154
0.0258333
0.0265128
0.0322232
0.00262118
0.0438065
0.0297318
0.00864647
0.0211108
0.0102608
0.0221879
0.0273078
0.0104424
0.0293267
0.0228188
0.0123918
0.0194697
0.0119281
0.0240877
0.0193567
0.0308823
0.0317383
0.0090606
0.0165108
0.0200174
0.0195336
0.0264923
0.0372989
0.0135333
0.026391
0.020189
0.0133235
0.0171196
0.0336903
0.0189397
0.017386
-0.00014722
0.0357906
0.035048
0.00114753
0.0288859
0.00221565
0.0217446
0.0330659
0.00492355
0.0307248
0.0306427
0.0326174
0.0312969
0.0251399
0.025844
0.0282329
0.00768829
0.0272281
0.00949971
0.00254241
0.0144206
0.00389245
0.0258368
0.0279922
0.0119423
0.0119227
0.0145611
0.0327214
0.00369626
0.0279716
0.0166679
0.0323245
0.0229094
0.0316116
0.0304856
0.0340833
0.0302795
0.00142991
0.0201358
0.0301389
0.0210367
0.0274303
0.026456
0.00558409
0.0318021
0.0241034
0.0333017
6.49553e-05
0.0303108
0.0076792
0.0163252
0.00219643
0.025828
0.0250149
0.039166
0.0239324
0.00801512
0.0296559
0.0283048
0.000874119
0.000610947
0.0385763
0.02646
0.00921802
0.0428727
0.0105902
0.0166938
0.0289124
0.000383043
0.00334812
0.043818
0.00842702
0.012646
0.0124888
0.0205915
0.0282531
0.0163034
0.0118628
0.0289141
0.032502
0.0300542
0.0280457
0.0164976
0.0282852
0.0198621
0.0121954
0.0249291
0.0245374
0.0199163
0.0225444
0.0163667
0.0153709
0.0285578
0.0293276
0.029747
0.0247664
0.0351722
0.0239176
0.0248175
0.0233356
0.024487
0.0296115
0.0212924
0.00476302
0.0322216
0.0312013
0.0291198
0.00495812
0.0277401
0.0241569
0.027059
0.0246356
0.0330262
0.0289355
0.00380142
0.0116839
0.0326728
0.0329399
0.0355732
0.00321547
0.0159146
0.011185
0.0304647
0.0294758
0.0315751
0.0352962
0.0356373
0.0306342
0.0349912
0.0301915
0.0296906
0.0190851
0.0315845
0.0267286
0.0349692
0.0421976
0.0264932
0.0247519
0.0436484
0.0218591
0.0155703
0.0325792
0.0179688
0.0349826
0.00100261
0.0271769
0.0168171
0.0402581
0.0262223
0.0250051
0.0332975
0.0160261
0.00106785
0.01472
0.0405473
0.000273069
-0.000161927
0.0268146
0.0104609
0.0112898
0.0111125
0.00798153
0.00677374
0.00757205
0.00611014
0.0119625
0.0310822
0.034805
0.00354248
0.0313814
0.0278281
0.00279344
0.0263602
0.0321706
0.0326057
0.0183974
0.0226489
0.0173058
0.0319418
0.0180141
0.0278193
0.0247473
0.0183768
0.0255943
0.0312459
0.0177085
0.0173502
0.0253852
0.0249433
0.0211438
0.0340216
0.00399877
0.0358061
0.0217671
0.018647
0.0204922
0.0322244
0.014077
0.0108596
0.032343
0.028683
0.0294752
0.0314934
0.040129
0.036356
0.0325179
0.0293767
0.0320658
0.0337455
0.0326881
0.0202796
0.0343615
0.0328376
0.00956153
0.0293836
0.0217603
0.0342712
0.0284642
0.0337525
0.0169701
0.0303826
0.02146
0.0249719
0.0315849
0.0341498
0.00923587
0.0278942
0.0221983
0.0214375
0.0226508
0.0349353
0.0286048
0.0301769
0.000612038
0.0256334
7.59308e-05
0.0300254
0.00252121
0.0411926
0.0104029
0.0213223
0.00838217
0.00807921
0.00728433
0.0276984
0.0301076
0.0206782
0.0211853
0.0276482
0.0188522
0.0315968
0.0324353
0.0235739
0.0355775
0.0308369
0.0357847
0.0310018
0.0289848
0.0333358
0.0188339
0.0244195
0.0252082
0.0200327
0.00451295
0.033623
0.0330133
0.0390909
0.010225
0.0308932
0.0275274
0.0109437
0.025048
0.0306116
0.0267092
0.0348339
0.0330816
0.0315897
0.0344054
0.0256061
0.0328951
0.0343152
0.0332004
0.0325897
0.0272207
0.0304826
0.0240884
0.0352379
0.0295306
0.0438506
0.0431814
0.0284826
0.0348603
0.027984
0.0275073
0.0267761
0.0228927
0.032304
0.0286463
0.0309056
0.0322764
0.0353129
0.0310921
0.026476
0.0294787
0.0295674
0.0344543
0.0285772
0.0304883
0.0324512
0.0336935
0.00241141
0.0311824
0.00331306
0.00380657
0.00420515
0.00212769
0.0307023
0.00656367
0.000744794
0.0225791
0.0304321
0.0416044
0.0423566
0.0351624
0.0281493
0.0344619
0.0187539
0.0387607
0.0248881
0.0273559
0.0298114
0.0322416
0.0211352
0.0318381
0.0332533
0.0241285
0.0258604
0.0331379
0.0260919
0.0381972
0.0333258
0.0369747
0.011433
0.00208914
0.0308548
0.030575
0.0300639
0.0371503
0.0315374
0.0378339
0.031613
0.0340085
0.0199259
0.0353485
0.0255283
0.0340985
0.027093
0.0345107
0.0354952
0.0216331
0.0313878
0.0232919
0.0325393
0.0232258
0.0328577
0.028554
0.027483
0.0328216
0.0317386
0.0285628
0.0317626
0.0217241
0.0378807
0.029621
0.0314281
0.0324513
0.033819
0.00923297
0.0229063
0.0342683
0.00338531
0.00446051
0.0349269
0.0307339
0.000536986
0.04171
0.0277796
0.0384554
0.0302472
0.0263571
0.0263491
0.0363504
0.0304621
0.0261266
0.0275134
0.0296403
0.0303894
0.0301184
0.039114
0.0334315
0.0335889
0.0226023
0.0226741
0.0353731
0.0285954
0.0334839
0.0334693
0.0377721
0.0416405
0.03978
0.0265914
0.0353964
0.0279555
0.0328618
0.0321437
0.0275298
0.0125661
0.0348367
0.0420428
0.0341572
0.0262522
0.0302721
0.0262609
0.0432509
0.024239
0.0311199
0.0263398
0.0275697
0.0329752
0.0348363
0.0277992
0.0333422
0.0326824
0.0296696
0.0338712
0.032885
0.0328302
0.0294122
0.0353935
0.0355634
0.0349501
0.0299869
0.0345053
0.0345741
0.0342144
0.0109411
0.0350396
0.0248714
0.0257161
0.0315799
0.0377305
0.025092
0.0305547
0.0354332
0.0299631
0.0306629
0.0265236
0.0396613
0.029552
0.03472
0.0251541
0.0252405
0.0303716
0.0351385
0.0250249
0.0298828
0.0296599
0.0345549
0.0351266
0.0299387
0.0302485
0.0376541
0.0375324
0.0309515
0.0370989
0.0363286
0.0327449
0.0373277
0.0152659
0.0371454
0.0351495
0.034588
0.0349253
0.0333706
0.0348789
0.0385333
0.0315075
0.0346931
0.0277617
0.0317757
0.0286056
0.0328205
0.0328211
0.0397635
0.0334005
0.0395055
0.0396109
0.0284581
0.0324719
0.034031
0.0228407
0.0293576
0.0304523
0.0304686
0.0387542
0.033742
0.0263607
0.0301246