/*--------------------------------*- C++ -*----------------------------------*\
| =========                 |                                                 |
| \\      /  F ield         | OpenFOAM: The Open Source CFD Toolbox           |
|  \\    /   O peration     | Version:  2212                                  |
|   \\  /    A nd           | Website:  www.openfoam.com                      |
|    \\/     M anipulation  |                                                 |
\*---------------------------------------------------------------------------*/
FoamFile
{
    version     2.0;
    format      ascii;
    arch        "LSB;label=32;scalar=64";
    class       surfaceScalarField;
    location    "0.036";
    object      phi;
}
// * * * * * * * * * * * * * * * * * * * * * * * * * * * * * * * * * * * * * //

dimensions      [0 3 -1 0 0 0 0];

oriented        oriented;

internalField   nonuniform List<scalar> 
68568
(
-1.48009e-07
1.52899e-07
-2.88512e-08
2.39613e-08
1.42606e-07
-7.28956e-08
-7.57437e-08
6.03362e-09
1.72534e-07
-1.31813e-07
-5.87063e-08
1.79857e-08
-4.35546e-09
2.18989e-09
-1.65337e-07
1.67503e-07
-1.22881e-09
1.38532e-07
9.87313e-10
-1.38291e-07
1.36628e-07
-4.83277e-10
-1.25553e-07
-1.05921e-08
8.17909e-08
-8.70161e-08
1.27594e-07
-1.22369e-07
-3.86495e-08
-2.64193e-08
1.4686e-07
1.28376e-07
-1.52729e-08
-1.08268e-07
-4.83507e-09
1.46612e-07
5.24569e-08
-5.6463e-08
9.87177e-08
1.34767e-07
-6.09503e-08
-6.30493e-08
-1.97735e-07
1.87889e-07
-1.37579e-07
6.73869e-08
-5.55206e-09
1.79282e-07
-1.84803e-07
1.34737e-08
-7.95283e-09
-6.90182e-08
-5.0635e-08
1.18495e-07
1.15773e-09
1.25522e-07
8.64331e-08
-1.2835e-07
-8.36051e-08
-5.01509e-08
-7.72235e-08
1.12874e-07
1.45002e-08
1.10721e-07
-1.15737e-07
-4.51353e-08
1.09768e-07
-4.44929e-09
-6.40745e-10
-1.04678e-07
8.42109e-08
-1.52005e-07
7.62373e-08
-8.44304e-09
1.11443e-07
-4.56245e-10
-1.109e-07
-8.66874e-11
-1.76011e-08
8.88919e-09
1.38077e-07
-1.29365e-07
-4.50732e-08
1.86668e-07
-2.69988e-08
-1.14596e-07
-6.79842e-10
-4.46034e-10
-1.34206e-07
1.35332e-07
-7.39545e-08
-4.80332e-08
1.15192e-07
6.7956e-09
-9.59835e-08
-3.93492e-08
-1.26763e-08
-6.41319e-08
1.39928e-07
8.41458e-09
7.63436e-08
4.52338e-08
-2.97641e-08
-9.18133e-08
-6.72144e-08
-9.86122e-08
1.27177e-07
4.80967e-08
-1.18721e-07
3.4097e-09
1.51245e-07
-8.08075e-08
-1.42481e-07
7.20438e-08
-1.31926e-08
2.51827e-09
1.16029e-07
-1.05355e-07
1.54718e-07
-3.23245e-08
-1.10163e-08
-1.11377e-07
1.1854e-07
-9.09894e-08
-5.82603e-08
3.07095e-08
-4.456e-10
1.08549e-07
-1.08135e-07
3.14634e-11
1.20395e-07
8.43884e-08
-8.45597e-08
6.34135e-10
-4.62862e-10
4.2545e-08
-1.57792e-07
9.18382e-08
2.34085e-08
-1.60349e-07
1.39322e-07
6.35724e-08
-7.34836e-08
-1.82765e-10
-2.8811e-10
-8.26083e-10
1.13342e-07
-1.07296e-09
1.11862e-07
-1.1154e-07
-5.2797e-10
2.06094e-10
-2.63292e-08
-1.56323e-07
1.18405e-07
1.91898e-07
-1.4612e-07
-1.64183e-07
-6.11476e-08
-1.02546e-07
2.89215e-07
-1.44771e-07
1.62118e-07
-1.36128e-07
1.18781e-07
-1.22906e-07
6.52258e-08
-5.36868e-09
1.13957e-07
-1.11246e-07
-3.51133e-09
8.00472e-10
9.72065e-08
2.49414e-08
1.16453e-08
-1.33793e-07
2.11845e-09
-1.51084e-07
1.46456e-07
3.37797e-08
-2.91515e-08
-8.3633e-09
-9.31178e-08
1.01146e-07
3.34951e-10
-1.54946e-07
1.36468e-07
1.79288e-07
-1.58831e-07
-3.62706e-10
-2.2028e-10
2.01949e-09
-1.61075e-09
1.07866e-07
-1.08275e-07
3.91818e-08
-1.14288e-07
-2.11765e-09
9.12884e-08
-9.76341e-08
3.75682e-09
2.58884e-09
-8.49233e-08
1.40948e-07
-6.20741e-08
6.04896e-09
1.45753e-07
-7.55451e-08
-7.36558e-08
3.44799e-09
9.03807e-08
-9.05977e-08
-4.62845e-10
-1.11103e-07
-1.7136e-09
1.15006e-07
7.51353e-08
7.08979e-08
-7.61655e-09
-1.38417e-07
-5.94367e-09
1.34724e-07
-1.29568e-07
7.87364e-10
8.80677e-08
-1.49161e-07
-3.03872e-09
1.07462e-07
-1.78514e-08
3.34789e-08
-1.2309e-07
1.48447e-07
-2.31847e-08
-1.6824e-07
4.2978e-08
4.0418e-08
8.12122e-08
-1.18625e-08
6.39818e-08
-1.26686e-07
6.94726e-08
-6.76877e-09
1.33967e-07
-1.35056e-07
-1.40209e-10
-9.96932e-08
1.42242e-07
-3.14646e-08
-1.1084e-08
-2.03519e-07
-1.49337e-07
2.85439e-07
6.74181e-08
-1.17221e-07
4.54768e-10
1.21534e-07
-6.46492e-09
1.3399e-07
-1.42173e-07
-5.34091e-08
6.15923e-08
-1.24738e-07
6.44203e-08
6.62403e-08
-5.9222e-09
-4.57296e-08
-5.17926e-08
-4.82537e-08
-1.00321e-07
1.00622e-07
-4.3815e-10
1.37606e-10
3.97102e-08
1.7256e-07
-6.65174e-08
1.04123e-07
-6.26296e-08
4.97946e-08
-7.25083e-08
-7.96061e-08
1.48157e-07
3.95728e-09
-5.40876e-10
-2.17351e-07
-6.53669e-10
2.18545e-07
7.37913e-08
-4.62441e-08
8.43152e-08
-1.86976e-10
6.44017e-08
-6.42534e-08
3.86421e-11
-1.89526e-08
1.38799e-07
6.66386e-08
-1.86485e-07
1.69016e-07
-8.54248e-08
-8.86233e-08
5.0323e-09
1.1859e-07
3.75753e-08
-3.59662e-08
-1.20199e-07
1.61964e-07
-7.62836e-08
7.55602e-08
-1.61241e-07
3.481e-08
1.3111e-08
1.14043e-07
-8.78566e-08
8.36152e-08
-1.61096e-07
1.23757e-07
9.38657e-10
-1.20813e-07
-3.88282e-09
-3.93029e-08
-2.77369e-07
1.93766e-07
8.32523e-08
8.55232e-08
-6.65747e-09
-4.53302e-10
5.21361e-10
9.29033e-08
-9.29714e-08
-1.22911e-07
1.22781e-07
-3.16576e-10
-5.94884e-08
1.18726e-07
5.98852e-09
7.26099e-09
8.669e-08
-4.90358e-09
-8.90474e-08
-1.27047e-07
5.60415e-08
8.87334e-08
-1.77278e-08
-4.37799e-08
-8.03648e-08
-1.00617e-08
-8.245e-08
1.60192e-07
5.51081e-09
7.16998e-08
7.4796e-08
-1.41458e-07
-5.03767e-09
1.13033e-07
8.43074e-10
-1.13817e-07
-5.90148e-11
-6.19744e-09
-1.86554e-07
-1.38157e-08
1.95622e-07
-5.79648e-09
1.18459e-07
-1.20056e-07
5.69977e-08
-7.42558e-09
9.69901e-08
-4.3899e-10
-9.54695e-08
-1.08163e-09
1.21362e-07
-8.0242e-10
1.34654e-07
-4.58379e-08
8.01996e-08
1.20712e-10
-1.03155e-07
-3.34722e-09
1.10849e-07
-4.34657e-09
9.04342e-08
-4.98257e-08
-8.96733e-08
9.5262e-11
8.94424e-08
1.35642e-10
-3.4719e-08
-1.35012e-07
1.43847e-07
2.58843e-08
-2.06812e-09
1.2966e-07
-1.27213e-07
-3.79571e-10
-8.74279e-08
-3.6378e-08
1.24216e-07
-4.09696e-10
-4.2102e-09
2.05221e-09
-1.08945e-07
-1.6227e-07
8.67284e-08
8.07405e-08
-5.19922e-09
3.04593e-10
-1.00188e-07
1.00114e-07
-2.30309e-10
1.36759e-07
-7.3598e-10
-2.2817e-10
-1.09751e-07
2.94979e-10
1.09684e-07
-4.87403e-08
2.06706e-08
3.62305e-08
1.30406e-07
-7.13284e-08
4.90399e-09
1.39416e-07
-1.38549e-07
-1.40596e-08
-1.23079e-07
1.38852e-07
1.89923e-08
-3.47659e-08
7.15596e-08
-7.27844e-08
1.49671e-07
3.81657e-09
1.12259e-07
1.50751e-07
-1.29652e-09
-1.51522e-07
6.79591e-08
-1.41849e-07
-4.35447e-09
7.8244e-08
1.41987e-07
-7.83034e-08
8.0166e-09
9.92763e-08
-9.71734e-08
-1.11687e-07
5.76228e-08
-3.04954e-08
-1.4882e-07
1.41889e-07
-1.89783e-08
2.59088e-08
1.60634e-07
4.54783e-08
-4.9603e-08
-1.5551e-07
-7.33032e-08
-2.9978e-08
8.0103e-08
2.31783e-08
-1.29586e-07
6.81786e-08
-5.40664e-08
1.15473e-07
-1.50977e-07
-3.3276e-09
1.57272e-07
-2.96703e-09
-1.08139e-07
2.05122e-08
-6.33502e-08
-1.62397e-07
-6.26662e-09
9.41834e-08
-1.40344e-09
-1.1171e-07
-5.17968e-10
-1.08163e-07
1.38876e-07
-7.34551e-08
5.98585e-09
1.54762e-07
-8.26824e-08
-7.85716e-08
6.49144e-09
-1.33264e-07
1.78932e-07
-4.59913e-08
3.23645e-10
8.17177e-08
-8.22563e-08
-1.32726e-07
9.43279e-08
7.29429e-09
-2.34583e-09
6.42809e-10
1.04055e-07
-1.0353e-07
-1.16831e-09
1.88571e-07
-4.78759e-08
-1.03119e-07
-1.07921e-07
8.43466e-08
1.14311e-07
-1.09672e-07
-2.58679e-09
-1.78627e-09
1.01273e-07
-9.98047e-08
3.17511e-10
-9.59392e-09
-1.34115e-07
1.31157e-07
1.25513e-08
-1.3844e-07
1.55155e-07
-9.79761e-09
-6.91763e-09
1.20345e-07
-5.8818e-08
-6.06225e-08
7.94614e-09
-7.91486e-09
-9.69615e-08
9.6513e-08
3.26394e-08
-6.68208e-09
-1.34096e-07
-1.99979e-08
1.0984e-07
-8.36068e-08
-6.23508e-09
1.58895e-07
-6.66321e-09
-1.35882e-08
-1.38644e-07
1.55448e-07
1.38769e-10
-2.5683e-09
-1.53018e-07
1.35379e-07
-1.34483e-09
-6.70273e-11
1.28371e-07
-1.28621e-07
2.33707e-10
1.66812e-11
-1.24401e-07
-8.12137e-08
1.2525e-07
2.09761e-08
-1.68899e-07
-1.10102e-07
1.0992e-07
3.53695e-11
1.46885e-10
-1.33103e-07
-7.21527e-09
1.87801e-09
-1.0136e-07
-2.99642e-11
1.01369e-07
2.11302e-11
-1.2142e-07
-2.97442e-10
1.21797e-07
-7.95673e-11
-9.45843e-09
1.19695e-07
-1.01489e-07
-7.67181e-09
-1.02064e-07
1.01705e-07
1.31104e-10
1.97963e-08
2.83482e-08
8.60415e-08
-1.32976e-07
7.21071e-08
-7.24139e-08
1.42958e-07
-1.42651e-07
1.02591e-07
-8.0751e-08
-2.4037e-08
2.19737e-09
1.07632e-07
-7.71355e-09
-1.06403e-07
8.63297e-09
5.66647e-09
-1.07826e-07
1.2196e-07
-1.98013e-08
-5.46741e-10
1.01588e-07
-1.00627e-07
-4.14001e-10
-1.39628e-07
-8.42573e-09
1.6361e-07
2.04243e-07
-8.71113e-08
1.84444e-07
1.52067e-07
-7.59049e-08
5.55539e-09
-3.2829e-08
2.55726e-08
-1.07892e-07
1.17712e-07
8.7447e-08
9.2535e-08
-7.42191e-09
9.21108e-08
7.17863e-08
-1.58115e-07
-5.7816e-09
8.11271e-08
7.84577e-08
-7.51746e-09
1.20484e-07
-7.44845e-08
8.2371e-08
7.30227e-08
-1.23784e-07
5.89141e-08
-8.15324e-09
6.61997e-10
-9.80385e-08
-1.23565e-09
3.45752e-10
-3.06568e-07
1.8293e-07
1.82893e-07
-1.17851e-07
3.52712e-08
9.29914e-09
4.29335e-08
4.48371e-08
-9.70698e-08
-1.26722e-07
1.90591e-09
1.25952e-07
-1.13663e-09
-9.74037e-08
9.69767e-08
-3.0034e-11
4.57006e-10
1.27002e-07
-1.64435e-07
1.94462e-07
-1.57029e-07
1.5325e-08
-1.43285e-09
1.2464e-07
-3.12363e-08
7.32497e-09
-7.26733e-08
9.65847e-08
-7.1153e-08
1.38059e-07
5.20091e-09
-1.44266e-07
7.48468e-08
7.4564e-08
-5.14469e-09
-1.09203e-07
-2.46317e-08
1.13837e-07
4.6022e-10
7.58531e-08
-4.6902e-11
-7.62664e-08
1.44149e-07
-6.55884e-08
7.61567e-08
1.32472e-09
-1.14636e-10
6.74556e-11
-9.57463e-08
1.75582e-07
-4.68891e-08
-2.90009e-08
-9.96919e-08
5.59967e-09
2.92346e-08
-1.16381e-07
8.5137e-08
-3.3564e-08
2.23526e-08
1.88096e-07
2.42405e-09
1.64064e-07
-1.78105e-07
-6.20432e-08
-6.65026e-08
5.46692e-09
1.29698e-07
6.28159e-09
-7.0147e-08
-7.10465e-08
1.33909e-07
7.2843e-09
4.12984e-09
1.06408e-07
-1.43691e-07
-1.48444e-10
6.91225e-08
-6.88222e-09
-6.49152e-10
-1.32999e-07
1.33403e-10
1.33515e-07
-1.33974e-07
1.62669e-07
-4.10114e-08
1.09936e-08
-9.34404e-09
5.03366e-08
1.09758e-07
-1.26975e-07
7.40626e-08
-2.65635e-08
7.94756e-08
-1.38965e-07
9.36551e-08
-1.27299e-07
1.25714e-07
2.88559e-10
9.13192e-08
2.17364e-08
-1.64297e-07
-2.14064e-08
1.63967e-07
-1.80453e-07
9.89462e-08
-1.35844e-07
-1.6826e-09
1.63506e-07
2.39755e-08
6.58864e-08
-9.44545e-08
4.59255e-09
8.10459e-08
-4.80014e-08
2.07373e-10
-9.88339e-08
4.32638e-10
-2.324e-07
2.32302e-07
-5.55671e-10
-9.4305e-08
-9.8656e-08
-9.23211e-08
1.0024e-07
-1.09983e-07
8.32018e-08
-1.05519e-07
1.68834e-08
5.43385e-09
1.24363e-07
-8.96557e-08
-9.13464e-09
-1.53059e-07
-1.10269e-08
2.08074e-08
1.43278e-07
-3.05908e-07
-3.14449e-10
-1.29938e-07
1.29151e-07
3.33498e-10
-9.24251e-08
-9.3737e-11
1.97713e-10
-1.40598e-08
-9.32174e-08
1.49506e-07
-4.22288e-08
1.06968e-07
5.3504e-09
4.31296e-08
-1.33729e-07
1.3281e-07
-3.52981e-09
-5.75783e-08
1.42465e-07
-9.82757e-08
3.15893e-10
-1.26731e-07
-3.06024e-10
9.11086e-08
-9.29291e-08
2.09738e-10
-6.57245e-08
-6.54145e-08
1.23382e-07
7.75738e-09
1.12155e-07
1.74896e-08
-9.62084e-08
-3.34359e-08
3.82065e-08
1.51231e-07
-1.81752e-07
-9.74403e-09
-1.09429e-07
-1.92113e-08
1.26184e-07
2.36979e-11
-1.26453e-07
2.4566e-10
2.37972e-08
7.54767e-09
5.3942e-08
-8.52869e-08
-1.40435e-07
7.53203e-08
-5.03272e-09
-1.14155e-07
1.10584e-07
-6.93855e-09
-3.4625e-10
1.20476e-07
3.5475e-10
-7.96254e-08
-7.13735e-08
1.43906e-07
7.09335e-09
1.28254e-07
-6.89014e-08
-6.62059e-08
6.85286e-09
1.28385e-07
-2.19038e-09
-1.03535e-11
-1.00482e-07
-9.07234e-08
9.87807e-08
-1.282e-07
-4.64629e-08
7.33865e-10
1.74841e-07
-1.05077e-07
2.93989e-08
-1.27841e-07
1.426e-10
-1.04577e-07
5.61571e-10
-6.83581e-10
1.33467e-07
2.54151e-08
-2.71693e-08
-1.31713e-07
4.57047e-08
-1.28629e-07
-6.2752e-11
8.98379e-11
3.85688e-08
-1.9257e-07
-7.77458e-08
1.31234e-07
8.87539e-08
2.04777e-08
-1.44766e-07
-1.82073e-08
1.42496e-07
-8.08943e-08
6.35303e-09
1.32121e-07
-1.31022e-07
9.11453e-08
4.13351e-08
-1.45863e-09
-5.49704e-10
9.14837e-11
-9.63012e-08
6.61503e-08
-4.56812e-09
-1.47198e-09
-2.8996e-09
-2.34533e-09
9.46908e-08
-8.94458e-08
8.17802e-08
1.04351e-07
-1.02822e-07
-8.33089e-08
1.47737e-07
-1.64947e-07
3.62759e-10
1.49411e-10
1.56094e-07
-1.01251e-08
-1.3708e-07
-4.21421e-08
1.51543e-07
1.0945e-08
1.1793e-07
-1.11233e-07
-5.73846e-09
-9.5788e-10
-9.87811e-10
1.13315e-07
1.63246e-07
-5.67251e-08
-2.39738e-09
9.32108e-08
-8.27144e-08
-5.20794e-10
3.45595e-10
1.39591e-07
-1.53163e-07
6.19001e-09
1.40484e-07
4.51225e-09
-1.19541e-08
1.49107e-07
-1.86718e-07
4.00938e-08
1.03563e-09
8.98156e-08
-8.79566e-10
-8.99716e-08
-1.16916e-07
1.17107e-07
-1.24005e-10
1.11401e-09
-2.50917e-10
-1.11308e-07
1.10357e-07
-3.77272e-11
-1.09389e-07
-2.54227e-10
2.14744e-10
7.10769e-08
-1.02e-07
-7.60191e-08
1.06942e-07
1.88635e-11
-1.14859e-07
1.14991e-07
-1.50631e-10
-4.21717e-08
9.05648e-08
-1.86309e-08
-1.94167e-08
-1.40062e-07
7.28399e-08
-6.08079e-09
2.79611e-08
-1.58045e-08
1.05773e-07
-1.34805e-07
6.49234e-08
6.26096e-08
7.27158e-09
-1.57486e-07
-1.10056e-07
1.10806e-07
-1.25404e-07
-4.28903e-08
5.74877e-08
1.29054e-07
-1.29794e-07
2.1673e-10
5.23662e-10
-1.74902e-09
-1.8263e-07
1.40623e-10
1.84239e-07
-1.04695e-07
4.53688e-11
1.04674e-07
-1.2685e-07
-6.86829e-11
4.65038e-10
7.19218e-08
-1.27068e-07
-6.89663e-09
2.41372e-10
-1.28677e-07
-1.85225e-10
7.58325e-08
7.61818e-08
-5.55804e-09
-7.32221e-08
-7.34554e-08
1.40412e-07
6.26501e-09
-1.16302e-07
8.95464e-10
1.15201e-07
2.05114e-10
1.23523e-07
3.0479e-08
1.09997e-07
-1.55972e-08
1.07531e-07
-5.58061e-09
-9.84473e-08
4.64117e-08
4.47854e-08
7.25016e-09
4.38347e-08
1.27525e-07
-4.67386e-08
-1.2054e-07
7.29895e-08
-7.09674e-08
-1.3054e-07
-1.05119e-07
1.15473e-07
1.20186e-07
1.08143e-07
-1.44155e-10
1.14868e-07
-1.16231e-07
1.40523e-09
-4.21178e-11
-1.30278e-07
-1.28127e-07
8.44746e-10
6.96077e-11
1.69267e-08
3.72154e-08
-1.586e-07
1.51237e-08
-4.28116e-08
1.95132e-07
1.33149e-07
-1.04156e-07
-3.25114e-08
3.69247e-09
1.91387e-08
-2.10549e-08
1.32074e-07
-3.28217e-08
-7.8197e-08
1.05591e-07
-6.55207e-10
-1.04697e-07
-2.38331e-10
-4.12731e-08
-1.43718e-07
2.85269e-07
-1.00278e-07
1.03732e-07
-7.89229e-08
-8.33167e-10
1.29418e-11
1.019e-07
-3.24925e-10
7.29445e-08
-7.34071e-08
1.27058e-07
-1.66858e-07
-1.29303e-07
7.87632e-08
1.25386e-07
-2.31207e-09
-3.00758e-08
-8.14396e-08
7.05932e-08
8.43595e-08
8.29318e-09
1.54863e-07
-1.23792e-07
2.50469e-09
1.46985e-07
-7.94299e-08
7.00852e-09
1.18627e-07
-1.56862e-07
1.29686e-07
-8.02838e-08
-3.38429e-08
-1.38358e-08
1.8657e-09
1.03312e-07
-1.14772e-07
6.76943e-08
-1.28135e-07
-5.28417e-09
1.48161e-07
8.88717e-09
-4.41316e-08
1.32389e-07
-8.85541e-08
-2.26932e-09
-2.54212e-08
1.38565e-07
-1.55431e-07
4.22865e-08
1.15555e-07
2.07829e-08
-5.5126e-08
-1.66684e-09
-1.34782e-07
1.34633e-07
-8.91343e-10
-2.97009e-08
2.25372e-08
-9.65578e-08
1.03721e-07
7.48453e-08
-1.4082e-07
-5.07146e-09
-1.34823e-07
1.35221e-07
-1.56985e-10
-7.59223e-08
1.56718e-07
-1.22069e-07
-7.18002e-08
-7.91076e-08
1.58956e-08
-9.97962e-08
-9.72765e-11
2.08816e-07
2.24368e-08
-1.28226e-07
-1.05994e-07
-7.32665e-08
1.31288e-07
2.27417e-07
-1.73164e-10
-8.88572e-08
-2.04964e-11
8.90508e-08
3.21861e-08
1.10505e-07
-6.36588e-10
1.48359e-07
6.23667e-09
9.60952e-08
5.63645e-08
2.69572e-09
7.30058e-08
-1.407e-07
-5.52819e-09
-7.23849e-08
-8.15619e-08
1.4522e-07
8.72706e-09
-8.99996e-08
-4.33602e-09
-4.11172e-09
-5.54436e-08
-1.2186e-07
1.13166e-07
-6.50773e-11
-1.22931e-07
-3.33496e-09
1.20323e-07
-8.9284e-08
-1.35398e-07
9.68605e-08
1.27822e-07
-1.11481e-07
3.87138e-08
7.5968e-08
-3.20078e-09
6.99913e-08
6.97776e-08
-1.32793e-07
-6.97571e-09
-7.0972e-08
-6.84127e-08
1.33094e-07
6.2904e-09
5.14576e-08
4.77804e-08
-1.09201e-07
9.96269e-09
-6.69141e-08
1.11587e-07
-3.63325e-08
-8.34045e-09
1.05165e-07
-1.05604e-07
-2.09676e-10
-9.36042e-08
6.205e-10
8.15142e-08
1.05446e-07
-2.8141e-08
-1.58819e-07
-3.10123e-08
8.84337e-08
3.81822e-08
-9.56036e-08
-9.74824e-08
9.02352e-12
9.912e-08
-1.64653e-09
-7.33812e-08
-4.22359e-08
9.45622e-08
1.23526e-07
-3.33121e-09
6.98982e-08
-1.30164e-07
6.53455e-08
-5.07962e-09
-5.7481e-08
4.05553e-08
-1.18935e-07
1.1437e-08
1.30975e-07
-1.05417e-07
-3.6077e-08
8.54319e-08
8.20849e-08
-7.39695e-08
7.40083e-10
-1.2205e-07
-1.10182e-10
3.0232e-08
-1.89367e-08
1.03104e-07
-1.16925e-07
5.6349e-08
5.33569e-08
7.21883e-09
7.34855e-08
-4.90988e-09
3.92263e-08
6.32134e-08
7.40002e-09
8.94379e-09
1.26915e-07
-1.04725e-08
-6.34049e-09
-8.20172e-08
8.01716e-08
1.33919e-07
-7.42032e-08
-1.56428e-07
1.56976e-07
1.64076e-07
5.81741e-08
-5.56129e-08
-1.66638e-07
1.43132e-08
-1.29124e-07
1.38608e-07
-7.83264e-08
-7.14596e-08
1.43064e-07
6.72206e-09
-4.59937e-08
-1.10825e-07
1.89013e-09
6.78718e-08
-6.74153e-09
1.29663e-07
-5.70217e-10
-3.85831e-11
2.22619e-08
-8.57939e-08
9.14932e-08
1.99398e-10
2.16897e-10
-1.35239e-07
-2.60591e-09
8.50211e-08
-8.2593e-08
1.13824e-08
-8.38625e-08
1.43346e-07
-7.08657e-08
-2.7899e-08
-1.34799e-07
1.21116e-09
1.61487e-07
9.29338e-08
-1.7881e-07
7.00178e-08
1.58584e-08
-1.22475e-07
9.00869e-08
-9.75495e-08
1.00312e-07
-6.31609e-10
-9.93464e-08
-3.3399e-10
-4.55365e-08
-1.28259e-07
4.5935e-08
1.27861e-07
-7.25615e-08
-1.22472e-07
1.48514e-07
4.65201e-08
-2.85737e-09
-1.42194e-07
1.42839e-07
2.21246e-09
-1.25158e-07
1.25005e-07
-1.59598e-09
-1.43665e-07
1.26963e-07
-6.38957e-08
1.37307e-07
7.068e-08
-5.89424e-09
7.6569e-08
-1.36683e-07
-6.36693e-08
-1.25862e-07
8.74997e-08
-1.02072e-07
-1.35073e-08
1.41786e-07
-8.75172e-08
-3.47434e-08
1.20441e-07
-1.18393e-07
-3.36988e-09
1.32222e-09
-9.75155e-08
-2.36788e-09
4.13702e-09
1.64748e-10
-1.49602e-07
1.4658e-07
-9.03794e-08
-4.03033e-10
7.82912e-10
-9.26121e-08
7.78574e-08
1.5316e-08
-5.61237e-10
-5.54013e-08
-1.32879e-07
1.78713e-07
9.56804e-09
1.15518e-07
-5.07464e-10
5.63411e-08
4.79766e-08
-1.13172e-07
8.85421e-09
-1.08846e-07
-5.78163e-10
1.09121e-07
3.03001e-10
-1.06309e-07
1.51734e-08
-2.50955e-08
6.30163e-08
-1.20878e-07
5.10341e-08
6.82727e-09
-4.64579e-09
-9.39508e-08
4.29166e-09
1.45678e-09
-1.33658e-07
1.66117e-09
5.3494e-08
7.44319e-08
-1.0793e-07
2.02562e-08
7.57237e-08
2.06383e-08
1.27147e-07
-1.27705e-07
5.67065e-10
-9.70009e-12
-2.05574e-07
1.93826e-07
8.5387e-08
-7.36383e-08
5.67789e-08
-1.46392e-07
1.12486e-07
-2.2873e-08
7.44161e-08
-6.71673e-09
-6.73118e-10
-2.77108e-11
5.76797e-08
-6.11627e-08
-1.1558e-07
1.64409e-07
-1.36257e-07
1.13328e-07
-1.4939e-08
6.73592e-10
-1.51347e-07
1.50686e-07
1.29854e-07
-1.58189e-07
-1.3654e-09
-8.70144e-08
-8.2758e-08
1.62932e-07
6.83993e-09
9.43058e-08
7.86481e-11
-9.44322e-08
4.77433e-11
-1.47259e-07
7.88163e-08
7.30731e-08
-4.63089e-09
-1.99219e-07
1.23572e-07
-1.38211e-07
2.13859e-07
-1.92116e-07
2.51748e-08
-4.55527e-08
-1.12621e-07
-1.63412e-07
1.0031e-07
3.76806e-08
-1.46522e-08
-1.28041e-07
1.39581e-07
3.11284e-09
-3.3007e-09
-1.1151e-07
-9.58954e-09
1.16572e-07
-1.10764e-07
1.14233e-07
-3.57785e-08
1.68106e-07
1.23109e-07
1.35782e-07
-1.29225e-07
-1.22787e-07
4.03012e-10
1.19098e-07
-1.19586e-07
8.4108e-11
1.02954e-07
-1.11459e-07
3.85926e-09
-7.99398e-08
-6.39811e-10
6.97775e-08
1.04808e-07
-4.49231e-08
6.36675e-08
-1.22855e-07
-4.70782e-09
-2.78971e-10
1.15952e-07
-1.158e-07
1.27517e-10
-1.19813e-07
-2.379e-10
1.20768e-07
-7.16715e-10
-1.21994e-07
4.47191e-08
-3.39586e-08
-1.19364e-08
1.00363e-07
8.03545e-08
-1.12706e-09
-1.79591e-07
2.9466e-09
-1.17048e-10
-1.73269e-08
8.30753e-08
-1.48976e-07
8.32273e-08
-1.28576e-07
1.30491e-07
6.69144e-08
-6.23214e-09
2.78718e-08
-1.33611e-07
-3.77992e-08
1.43538e-07
4.14421e-08
1.18967e-08
3.4998e-08
-8.83368e-08
7.0501e-08
7.68335e-08
-1.41059e-07
-6.27573e-09
-1.05593e-07
1.03825e-07
1.74276e-09
2.45776e-11
-6.95142e-08
7.31953e-09
5.67739e-08
-5.46437e-08
1.28207e-07
-1.30337e-07
-1.06995e-07
2.26565e-07
-4.71264e-08
-7.24434e-08
8.78821e-08
-7.36437e-08
-7.69271e-08
6.26887e-08
6.98012e-08
-5.73128e-08
-1.39397e-07
5.48208e-08
8.65394e-09
5.94604e-08
8.2203e-08
7.70249e-08
7.89595e-08
-1.49864e-07
-6.12037e-09
1.37842e-07
8.22793e-09
-6.34229e-09
-1.39728e-07
1.05173e-07
7.96292e-10
-3.78338e-10
9.9266e-08
-1.011e-07
2.35394e-09
-5.20039e-10
-6.73958e-08
-7.93505e-08
1.39822e-07
6.92412e-09
-1.2396e-07
1.5407e-09
4.25251e-10
-1.09159e-07
-3.53514e-11
3.48469e-10
1.15911e-08
1.26754e-07
1.14552e-07
1.98894e-09
-1.02254e-09
1.51331e-10
-1.0594e-07
1.0521e-07
9.99494e-08
1.77528e-08
2.73844e-09
-1.22327e-08
3.72281e-08
-1.23581e-07
9.85855e-08
1.28616e-07
-1.28416e-07
-9.62508e-11
-1.04182e-10
-3.05434e-08
-1.21879e-07
1.77598e-07
-1.22323e-07
-1.97007e-08
1.47245e-07
-5.22107e-09
1.58529e-07
-1.34572e-07
-2.31995e-08
-2.1139e-08
1.32221e-07
1.29787e-07
-1.3071e-07
4.16258e-10
5.06688e-10
1.54546e-07
-4.76327e-08
-1.52049e-07
4.5135e-08
1.28162e-07
-1.28348e-07
1.51822e-07
-1.51636e-07
9.26473e-09
-1.277e-08
-1.01365e-07
1.0487e-07
2.74999e-08
-1.05844e-07
-4.48946e-08
1.23239e-07
8.92521e-08
8.10377e-08
-1.63093e-07
-7.19689e-09
2.09948e-07
-2.22117e-07
-1.0327e-07
-1.27902e-07
1.05652e-07
-1.34548e-08
1.29759e-08
-1.91721e-07
1.66362e-07
-8.83986e-08
1.38014e-07
-2.34822e-07
1.85207e-07
8.2149e-08
-1.64409e-07
-6.13873e-09
2.1034e-08
9.23254e-08
-1.59607e-08
-9.73987e-08
-1.52466e-09
1.26673e-07
-1.45722e-08
-1.0727e-07
-6.0836e-08
1.5848e-07
-1.10732e-07
1.30889e-08
-2.82655e-08
8.17301e-08
-4.59566e-08
-7.50804e-09
2.94285e-10
-1.02698e-07
1.02821e-07
-4.17058e-10
2.71339e-09
1.2854e-07
-1.30131e-07
-1.12198e-09
-5.49866e-08
-1.30352e-07
1.43001e-07
4.82388e-08
-4.08087e-08
1.44313e-07
5.21026e-09
-4.94307e-08
-4.57393e-08
1.30363e-07
-2.34821e-07
-2.30506e-09
-1.56561e-07
1.2377e-07
-7.42039e-08
1.2702e-07
-1.23847e-07
-4.59011e-10
-1.01116e-07
1.55205e-09
-2.30669e-09
1.01871e-07
6.38493e-08
-1.9621e-07
-1.50204e-07
-8.11116e-11
1.30167e-07
-1.29881e-07
-2.04836e-10
-1.20793e-07
-4.27042e-08
1.54924e-07
5.83377e-09
-9.38448e-09
1.14079e-07
-1.02176e-07
-1.16625e-08
1.49089e-07
-1.20124e-07
3.8589e-10
-7.48877e-11
6.63041e-08
-1.57313e-07
8.54241e-08
5.58481e-09
-1.49265e-09
-1.19853e-07
-1.55201e-09
1.31279e-07
6.13648e-09
-1.08282e-07
5.51311e-08
5.12774e-08
1.87393e-09
-1.09722e-07
3.01427e-08
1.49381e-07
-2.48592e-11
1.3986e-07
-6.99449e-10
-1.39135e-07
7.39626e-09
1.23427e-07
-2.62812e-08
-1.04542e-07
1.48044e-07
-1.68813e-07
8.76236e-08
-6.68552e-08
4.70054e-08
1.18391e-07
-5.80617e-08
-6.83558e-09
8.5036e-08
9.68996e-08
-1.70647e-07
-1.39461e-08
-6.79945e-09
1.12638e-07
-1.35817e-07
1.1954e-07
3.02809e-10
-1.19894e-07
5.10624e-11
7.42359e-09
1.03395e-07
-3.85142e-09
8.17619e-08
-2.03234e-07
3.21884e-08
-1.36186e-07
2.24465e-09
-7.68806e-08
-6.54877e-08
1.35468e-07
6.89986e-09
-1.09844e-07
-5.06862e-08
3.37738e-08
1.26756e-07
-1.22625e-07
-6.40963e-10
-6.94015e-10
-7.18391e-08
1.51817e-07
-8.59559e-08
5.97826e-09
7.70587e-08
-1.52818e-07
7.94675e-08
-3.70807e-09
-1.15947e-07
-2.21422e-10
1.05616e-07
-1.08408e-07
4.73731e-09
-1.94536e-09
1.55617e-07
-8.71713e-08
8.61306e-09
-1.18338e-07
1.99679e-08
-2.00225e-08
6.09442e-08
-1.00816e-07
-2.27581e-08
1.28978e-07
-1.28121e-07
-1.83487e-10
7.0005e-08
6.27393e-08
-6.26038e-08
-7.01404e-08
8.21487e-08
1.53085e-07
-1.65242e-07
8.13427e-08
6.93261e-08
-1.45355e-07
-5.31351e-09
-1.19286e-07
6.29595e-08
4.88947e-08
7.43162e-09
2.25969e-10
1.29285e-07
2.75367e-10
8.18997e-08
7.64771e-08
-1.52856e-07
-5.52083e-09
1.09106e-07
1.19993e-07
-9.81174e-09
-1.06485e-07
-3.69547e-09
9.83029e-08
6.66306e-11
1.51623e-07
-1.53164e-07
-8.3894e-08
8.54345e-08
5.13621e-08
6.12957e-08
7.33468e-09
-6.24579e-09
-2.27647e-07
1.92839e-08
1.41873e-07
-3.64194e-09
6.3283e-09
1.56835e-07
1.34892e-07
-2.2871e-07
-1.2651e-07
1.07926e-09
-1.53129e-09
1.26962e-07
6.92924e-10
1.02153e-07
-1.02707e-07
-1.38926e-10
-8.1797e-08
1.86145e-07
-1.82674e-07
5.34347e-08
1.2666e-07
-6.66653e-08
-1.13429e-07
4.72354e-08
6.01614e-08
-1.14925e-07
7.52799e-09
1.53277e-07
-1.17524e-08
2.14075e-08
-1.37222e-07
-5.61122e-09
4.71365e-08
-1.44116e-07
-1.9128e-08
-9.76056e-08
-1.14724e-07
1.08184e-07
2.07331e-08
-5.15971e-09
-2.09471e-08
9.92571e-08
2.98741e-08
4.95793e-08
-8.01884e-08
-3.39003e-09
1.2869e-07
3.73771e-09
1.37506e-10
4.3095e-10
-2.17301e-07
-1.55481e-08
-4.45e-10
1.22108e-07
1.50803e-08
-1.29252e-07
-1.46995e-08
2.81325e-07
-1.23888e-07
-1.42737e-07
-1.73146e-07
1.41013e-07
1.17989e-07
-1.4929e-07
-7.02004e-08
7.59846e-08
-7.78398e-08
7.20556e-08
1.21687e-07
-1.26065e-07
-3.92366e-09
8.30191e-09
-4.02943e-09
-6.53846e-08
8.16615e-08
-1.89423e-07
-8.24543e-08
6.67623e-08
-2.31966e-08
-1.21422e-07
2.70796e-07
-4.25797e-08
-1.00974e-07
-1.37589e-08
-7.89203e-08
1.58889e-07
2.18007e-09
-3.40159e-08
-7.31164e-08
9.16676e-08
1.54646e-08
4.08225e-08
-1.8325e-07
8.30968e-08
5.93305e-08
-1.09511e-07
1.09233e-07
-8.6897e-11
3.6532e-10
9.43186e-08
-1.85998e-10
1.42549e-08
1.28461e-07
1.15856e-07
-7.51836e-09
-8.58002e-08
-1.55091e-07
1.84634e-08
8.2577e-10
1.37348e-07
-9.88748e-08
1.47459e-07
-4.59547e-08
-5.98822e-09
3.13362e-09
1.28689e-07
-3.13196e-09
1.07468e-07
4.01625e-08
-1.56883e-07
-3.05384e-08
-1.28094e-07
-1.1113e-07
-8.67868e-08
4.48577e-08
-1.13927e-08
1.11293e-07
-8.75495e-09
-9.6728e-08
-1.11246e-07
-3.11521e-09
9.7149e-08
-1.24896e-07
1.01113e-07
-6.66328e-10
-9.98541e-08
-5.9251e-10
-2.63712e-08
-1.51331e-07
-1.8108e-07
1.80788e-07
1.15812e-07
-4.84268e-08
1.11253e-08
-7.85103e-08
1.15622e-07
-6.28147e-10
-1.14907e-07
-8.6879e-11
9.46615e-10
1.04668e-07
-1.05889e-07
2.74671e-10
2.96316e-08
1.22303e-07
-3.73827e-08
-7.94785e-08
-8.38719e-08
1.05322e-08
7.86785e-09
1.1173e-07
-1.15589e-07
-4.00911e-09
-1.27426e-07
1.37563e-07
-2.26933e-09
-1.36085e-07
-3.69575e-09
-1.51722e-07
1.53658e-07
-5.68022e-08
-8.68272e-08
1.49816e-07
-6.18633e-09
1.09784e-07
-1.49625e-08
6.79856e-10
-5.19249e-11
4.76664e-08
1.19868e-08
-7.99378e-10
-3.45161e-10
7.6637e-08
8.37766e-08
-5.86716e-09
-3.43524e-08
1.01617e-07
8.00946e-08
-2.86055e-07
-1.46566e-07
2.82187e-07
1.49139e-07
1.35287e-07
-5.68393e-08
-8.67139e-08
6.2589e-09
-6.70854e-10
-1.26678e-07
-3.56067e-10
5.52896e-08
6.39191e-08
-1.18134e-07
-1.07434e-09
-1.16453e-07
1.16286e-07
1.18491e-10
4.81725e-11
1.06921e-07
3.27897e-08
-1.39969e-08
1.54536e-09
1.96796e-07
-4.51538e-09
-5.38256e-08
-8.19929e-08
-3.57845e-09
-8.84553e-08
-2.3473e-08
7.03815e-10
1.08884e-07
-1.08791e-07
7.91597e-08
-1.94047e-07
1.08601e-07
-1.09046e-09
-5.89594e-10
7.08253e-08
6.5973e-08
-1.32842e-07
-3.95592e-09
-1.63495e-07
8.16743e-08
-2.30542e-08
-2.71433e-08
-3.72677e-08
1.28622e-07
-6.42111e-08
-2.98355e-08
7.18162e-08
3.10923e-08
-1.41738e-07
-9.02717e-08
9.51784e-08
1.36831e-07
7.73512e-08
-5.8708e-09
6.55794e-08
1.30156e-07
-5.36203e-08
-1.42115e-07
-3.78294e-09
1.17803e-07
1.50665e-08
-1.29087e-07
1.12249e-07
-9.54018e-08
-2.08692e-08
4.02151e-09
1.43185e-07
-1.92789e-07
1.78144e-07
1.42721e-07
-6.92567e-08
-6.66015e-08
-6.86276e-09
4.25728e-08
-1.70521e-07
-1.21839e-07
-1.22099e-07
2.66565e-11
-1.89144e-07
1.5938e-07
-1.65082e-07
1.94846e-07
8.24072e-08
-1.57098e-07
-2.63444e-08
1.20479e-07
-1.19443e-07
-4.73408e-10
-5.6309e-10
6.07398e-08
-1.20838e-07
-5.28645e-09
-6.60624e-09
8.13646e-08
-1.7695e-07
7.92424e-08
-1.36726e-07
-6.38828e-11
2.44451e-10
1.36545e-07
-1.35516e-07
1.39826e-07
-1.38126e-07
-8.65e-08
-2.80006e-08
-7.21533e-09
5.99203e-08
6.98669e-08
-6.01729e-09
-5.30629e-08
-6.041e-08
-5.81295e-09
-3.69787e-09
-1.04321e-07
-1.01495e-07
-1.0474e-09
-5.73983e-09
6.99825e-08
-6.96012e-08
6.87677e-10
-1.06901e-09
1.07738e-07
-1.05608e-07
-1.39151e-09
-7.37728e-10
-1.08085e-09
1.28021e-07
-1.26821e-07
-1.18778e-10
-1.33008e-07
1.42661e-08
1.13014e-07
5.72787e-09
1.27814e-07
-1.21453e-07
-4.41813e-09
-1.94307e-09
-1.08049e-07
-1.16377e-09
1.09876e-07
-6.64177e-10
-1.04373e-07
-6.37283e-08
9.72715e-08
3.41581e-08
-9.48782e-09
-1.21942e-07
7.61477e-08
-8.0856e-08
3.86241e-09
8.45842e-10
4.53497e-08
3.7411e-08
-1.28297e-07
1.09957e-07
-1.06985e-07
-7.37378e-09
4.40116e-09
-5.10434e-08
5.14644e-08
1.53203e-07
5.48302e-09
1.29012e-07
-9.64249e-08
1.21322e-08
-2.7686e-08
-1.18058e-08
-1.02246e-07
-3.1326e-08
1.97796e-07
6.0985e-09
-1.7248e-07
1.30651e-07
-3.36014e-08
-1.94791e-08
2.10769e-08
-8.03518e-08
5.96134e-09
-1.25707e-07
1.25507e-07
5.85475e-08
-7.05479e-08
-3.02354e-08
7.76158e-08
2.16219e-09
6.2202e-08
5.61301e-08
-7.689e-08
-8.32614e-08
1.14948e-07
-1.26944e-08
-7.06831e-08
5.88854e-09
9.44944e-08
1.13694e-08
2.25117e-08
2.47755e-08
-1.06166e-08
5.16048e-08
5.98517e-08
6.93481e-09
-4.94129e-08
1.61657e-07
-1.67646e-07
-1.75503e-07
8.71474e-08
2.21871e-07
-1.49381e-07
1.0665e-07
-3.23758e-08
6.12079e-08
-1.35482e-07
-1.23942e-07
-4.26866e-08
-1.4505e-07
-5.70912e-09
-1.01952e-07
8.05299e-08
-8.86814e-08
1.10103e-07
8.46805e-09
-1.20028e-07
-1.41742e-07
-7.5596e-09
-3.86263e-09
-1.27937e-07
1.15821e-07
1.24366e-07
1.96166e-08
1.03164e-07
2.10216e-09
-1.33287e-07
1.23177e-07
-8.5791e-08
9.5901e-08
-1.01888e-07
1.32661e-08
-2.05376e-08
-3.47179e-08
1.3486e-09
9.15939e-08
-4.75975e-08
-1.1242e-07
-4.36204e-08
1.23226e-08
-7.10965e-08
-8.53972e-08
7.67406e-09
-7.01274e-08
8.05758e-08
8.04914e-08
2.35343e-08
4.26269e-08
-1.46653e-07
5.70436e-08
2.53074e-08
-7.37259e-08
-1.86481e-09
-8.03098e-08
-9.02417e-08
7.05656e-09
6.26043e-08
-7.28014e-08
-4.80783e-08
5.82755e-08
-4.92415e-08
-9.03188e-09
1.47314e-07
-1.85962e-07
3.9216e-08
-5.68272e-10
-8.26547e-09
2.73658e-08
7.9461e-08
-9.85613e-08
5.2802e-10
-9.41344e-08
-8.69043e-10
9.44754e-08
-1.01038e-07
1.0063e-07
1.87493e-10
2.20167e-10
1.30577e-07
-7.17118e-08
-1.3232e-07
-6.1241e-08
-3.82477e-08
1.0119e-07
-1.7017e-09
1.54102e-07
1.16925e-08
-1.16592e-07
5.93586e-09
-1.40053e-07
1.66266e-08
-5.73071e-10
-1.43773e-07
-1.14436e-07
1.14695e-07
-3.2283e-10
1.00372e-07
5.6709e-08
-1.42179e-07
-1.29906e-08
-1.47568e-08
2.25818e-07
-8.42738e-10
-8.60139e-08
-1.23014e-09
9.77776e-08
-9.68296e-08
8.75899e-11
-2.63254e-09
1.20889e-08
2.6428e-08
1.22441e-07
-2.49397e-08
1.16153e-07
-8.99618e-09
-3.26463e-09
1.27886e-07
-1.2319e-07
-1.43146e-09
-1.03682e-07
1.10487e-07
-5.70635e-09
1.21877e-07
5.52078e-09
-3.17376e-08
-9.56597e-08
1.18764e-07
1.70278e-09
-1.18388e-07
-2.07867e-09
-7.08334e-08
-5.38829e-08
7.08907e-08
8.94972e-08
1.51926e-09
1.57025e-07
1.93967e-08
-3.60094e-08
-1.45768e-08
3.73681e-09
-7.80172e-08
1.22488e-07
-1.72401e-07
-2.40651e-07