/*--------------------------------*- C++ -*----------------------------------*\
| =========                 |                                                 |
| \\      /  F ield         | OpenFOAM: The Open Source CFD Toolbox           |
|  \\    /   O peration     | Version:  2212                                  |
|   \\  /    A nd           | Website:  www.openfoam.com                      |
|    \\/     M anipulation  |                                                 |
\*---------------------------------------------------------------------------*/
FoamFile
{
    version     2.0;
    format      ascii;
    arch        "LSB;label=32;scalar=64";
    class       volVectorField;
    location    "0.036";
    object      U;
}
// * * * * * * * * * * * * * * * * * * * * * * * * * * * * * * * * * * * * * //

dimensions      [0 1 -1 0 0 0 0];

internalField   nonuniform List<vector> 
31639
(
(0.120893 0.000647223 -0.000545975)
(0.118166 -0.000391752 -1.08137e-05)
(0.119918 -0.000256476 0.000816266)
(0.122941 3.28883e-05 -0.000203617)
(0.119536 -0.000738326 -0.000307414)
(0.118793 -4.37718e-05 -4.37926e-05)
(0.117712 2.27809e-05 -0.000305942)
(0.120374 -7.80762e-05 -6.9579e-05)
(0.120233 0.000166691 -0.000235417)
(0.121332 -0.000395464 -0.000502533)
(0.121912 0.000473021 -0.000110963)
(0.12108 -0.000551577 -0.000760999)
(0.118821 -0.00038964 -1.08908e-06)
(0.121164 1.21911e-05 0.000139896)
(0.117371 -0.000367517 4.15667e-05)
(0.118053 -0.000397916 0.000732104)
(0.119739 0.000329355 0.000160492)
(0.117312 4.33775e-05 0.000397281)
(0.118325 8.30466e-05 -0.000402662)
(0.119431 -9.5711e-05 -0.000130414)
(0.113348 -0.000246421 -0.000415489)
(0.121821 -0.000292303 -0.000575891)
(0.121572 0.000691929 -0.000198864)
(0.118325 0.000152816 -0.000233202)
(0.116915 -0.000140151 -0.000109872)
(0.120033 -0.000160158 7.7005e-05)
(0.119346 2.12836e-05 -0.000111009)
(0.121767 0.000740343 -9.66226e-05)
(0.117715 0.000405298 0.000623951)
(0.121362 -4.44443e-05 0.000526621)
(0.121855 -0.000148917 -0.000102774)
(0.117245 -7.62658e-05 -0.000156577)
(0.121709 0.000312811 -0.000497917)
(0.118222 -0.000172318 -8.15793e-05)
(0.114844 6.06304e-05 0.000171831)
(0.121854 0.000450097 4.34284e-05)
(0.112255 -0.000314866 -7.84691e-05)
(0.122603 -0.000485033 0.000323366)
(0.12158 -0.00035414 0.000274301)
(0.112191 4.62606e-05 -9.45929e-05)
(0.115778 -7.11467e-05 -0.000343108)
(0.114365 -0.000417306 0.000109865)
(0.120904 0.000133399 -6.03729e-05)
(0.122264 -0.000783618 -0.000853361)
(0.120998 -0.000602378 0.000712759)
(0.122367 -0.00080083 -0.000401649)
(0.116368 0.00027222 -0.000285953)
(0.119199 0.000452796 -0.00037839)
(0.119368 -7.92644e-05 0.000199149)
(0.12248 -0.000407661 -0.000277228)
(0.122043 -0.000178451 -0.000471473)
(0.113706 0.000167877 -0.000222874)
(0.121556 0.000557461 0.000212611)
(0.112867 -0.000238175 0.000343721)
(0.119619 -0.000355376 -0.000175124)
(0.119262 0.000142159 0.000107563)
(0.114184 -6.14214e-05 -0.000644943)
(0.119332 7.93122e-05 0.000325587)
(0.118905 9.34258e-05 0.000355042)
(0.114842 0.000216557 -0.000174664)
(0.120623 -0.000174011 -0.0004504)
(0.121126 0.000349502 -0.000162411)
(0.117293 -0.000216785 -0.000350824)
(0.118934 -1.88769e-05 -0.000167335)
(0.120162 0.000391318 0.000130348)
(0.122534 -0.000236255 -0.000525028)
(0.120069 0.000132345 -0.000973268)
(0.119125 -0.000301654 0.000110801)
(0.115805 -1.62979e-05 -0.00037803)
(0.122509 0.000308558 -0.000190869)
(0.120703 0.000117006 -0.000189527)
(0.116023 0.000208799 -0.00116191)
(0.121036 -0.000394017 -0.000795953)
(0.119526 -0.0001597 -0.000196846)
(0.120521 0.000526247 2.06442e-05)
(0.113192 0.000278295 -0.000648379)
(0.12198 -0.000651719 0.000241744)
(0.118666 0.000251416 -0.000618143)
(0.118266 -0.000187556 0.000350839)
(0.120793 0.000276357 -5.50854e-05)
(0.117274 1.01535e-05 0.000123916)
(0.110847 -0.000190591 4.84171e-05)
(0.121979 -0.000310714 0.000149188)
(0.119813 -0.000243648 -0.000242404)
(0.119793 -6.70179e-05 -0.000135328)
(0.121888 -0.000366631 -0.000261758)
(0.122572 9.64072e-06 0.000132668)
(0.122182 -0.000197866 -0.000422153)
(0.11402 0.000888468 -0.00141165)
(0.121322 -0.000279576 -0.000461551)
(0.119928 -0.000331319 0.000271383)
(0.11845 -0.000449947 -0.000112159)
(0.115046 -0.000501388 -0.00037872)
(0.117444 0.00051085 -0.000780662)
(0.117336 -0.000765612 -0.000369134)
(0.11806 0.000930524 0.000351687)
(0.119686 0.000206891 -0.000444988)
(0.119462 -0.000155329 0.000149967)
(0.118877 0.000164163 0.000235281)
(0.114243 -0.000956334 -7.38101e-05)
(0.120466 0.000155285 -7.85103e-05)
(0.120343 0.000306351 0.000697813)
(0.117627 -0.000273373 -0.000174095)
(0.113474 7.562e-05 -0.000179449)
(0.114708 -5.36496e-05 -0.000349855)
(0.122426 -0.000583622 -0.000273208)
(0.112959 0.000362716 -0.000415364)
(0.114032 -0.000822272 -0.000834686)
(0.116326 0.000420157 -5.65501e-06)
(0.11255 -0.000203722 0.000613153)
(0.120503 -0.00113277 0.000270437)
(0.115132 -7.90491e-05 -0.00026646)
(0.118815 5.57029e-06 -0.000237736)
(0.118353 -0.000637127 -0.000646291)
(0.119197 0.000165188 -0.000753076)
(0.113259 -0.000497162 0.000266381)
(0.118397 0.000561602 1.50119e-05)
(0.117875 -0.000662528 -0.000137872)
(0.120364 7.71989e-05 2.67005e-05)
(0.118702 -0.000320882 8.1836e-05)
(0.120045 -0.000430258 -0.000104055)
(0.121028 -0.000500262 0.00036413)
(0.121669 3.97698e-05 -0.000606282)
(0.120586 0.000319951 -0.000710692)
(0.12041 -0.000169257 -0.000810603)
(0.121305 -0.000352169 0.000127691)
(0.118611 -3.11437e-05 0.000314763)
(0.117298 0.000163298 -0.000267036)
(0.117049 -0.000585312 -0.000304576)
(0.121254 -0.000250281 0.000137102)
(0.120862 9.69088e-05 -0.000262988)
(0.121507 0.000183615 -0.000460789)
(0.120758 -0.00049719 -6.62259e-06)
(0.119467 -0.000164157 7.36643e-05)
(0.121593 -0.000138057 -0.000143874)
(0.119508 -0.000107762 8.52129e-06)
(0.114905 -0.000149464 -0.000319794)
(0.114031 -0.000697586 -0.000416504)
(0.121758 0.000390576 0.000564499)
(0.119082 -0.000435652 -0.000439836)
(0.118776 -0.000160912 -0.000388668)
(0.122253 0.000270088 0.00102367)
(0.121423 0.000470675 0.000263708)
(0.113479 -0.000335577 -0.000467288)
(0.113861 -0.000110499 -0.000660606)
(0.121134 -0.00020897 1.01207e-06)
(0.120925 -0.000165274 -0.000292089)
(0.114507 -0.000241831 -0.000438754)
(0.115058 -9.74991e-05 0.000138663)
(0.121477 -0.000400691 4.63617e-05)
(0.117013 -0.000104799 -0.00112975)
(0.118519 1.07662e-05 0.000228318)
(0.119004 -0.000328262 -0.000812498)
(0.121263 -0.000163263 4.89134e-05)
(0.115298 0.00063242 -0.0011616)
(0.122911 4.31518e-07 4.41249e-05)
(0.120479 -0.000265205 -0.000258732)
(0.115832 -0.00121973 -0.000174693)
(0.114397 -0.000729326 0.000928571)
(0.118062 -0.000383229 -0.000209307)
(0.12229 -0.000143673 -0.000450946)
(0.113362 0.000229566 0.000130898)
(0.115098 0.000121746 -0.00109269)
(0.114134 -0.000397625 0.000146115)
(0.113508 -0.00116223 0.000107527)
(0.117471 0.00018151 -0.00021067)
(0.114225 0.00039008 0.000121721)
(0.121859 -0.000672203 0.000212616)
(0.121917 -0.00045036 0.000241214)
(0.114247 0.000222546 -0.000728878)
(0.115044 -0.000698947 0.000417647)
(0.118364 0.000634134 -0.000608674)
(0.114721 -9.29259e-05 -6.3157e-05)
(0.119517 -8.20175e-05 0.000473416)
(0.12247 -0.000248633 -0.000265001)
(0.1207 -0.000613174 -0.000434324)
(0.119214 0.0006188 0.000226383)
(0.121243 0.000286127 0.000430681)
(0.119776 -0.000472368 -7.41917e-05)
(0.118159 -0.000356905 -0.000185461)
(0.118462 0.000138062 -8.8298e-05)
(0.1183 -0.000579399 0.000718239)
(0.117632 3.71449e-05 0.000214303)
(0.112449 0.00104746 -0.000568966)
(0.119851 -0.000107575 0.000111858)
(0.121991 0.000289784 -0.000265897)
(0.117706 3.83153e-05 0.000559789)
(0.121511 0.000243915 -6.10481e-05)
(0.114946 -0.00024304 7.55372e-05)
(0.112982 -0.000170409 0.000371083)
(0.12242 -0.000244597 -8.36501e-05)
(0.121254 -0.000241732 -0.000285374)
(0.119329 -0.000319003 0.0005382)
(0.11868 -0.000110479 0.000256316)
(0.119137 -0.000108523 -0.000373724)
(0.119231 -0.000127811 -0.000646163)
(0.118967 0.00054739 0.000434422)
(0.121109 0.00034862 -0.00046418)
(0.114749 -0.000128824 -0.000291688)
(0.118071 0.000156835 -0.000195272)
(0.12218 7.31733e-05 0.000158884)
(0.121117 -0.000307364 -2.53113e-05)
(0.120215 -0.000382995 0.000114453)
(0.11912 -0.00145132 -0.000526709)
(0.119401 -0.000576757 -0.000454063)
(0.118042 -2.56811e-06 -0.000368234)
(0.118987 -0.000186798 -0.000453601)
(0.117692 0.000564569 -0.000550491)
(0.121202 6.62456e-05 -0.000476675)
(0.113383 -0.000179506 -2.14476e-05)
(0.119064 -6.40065e-05 -0.000122419)
(0.118531 0.000470188 -1.30058e-05)
(0.119699 2.88126e-05 -0.00045083)
(0.121525 -9.31277e-05 -0.000498459)
(0.120924 -0.000494271 -0.000400116)
(0.121843 -0.000140046 -0.000293607)
(0.114885 -0.00107139 -0.000384781)
(0.117134 -0.000531876 0.000467392)
(0.121143 -0.000364406 -0.000264213)
(0.121919 -0.000166878 0.00024808)
(0.120907 5.09334e-05 0.00026941)
(0.119172 -0.000389425 -0.000527685)
(0.111837 -0.000232547 0.000640753)
(0.118948 -0.000584257 0.00049157)
(0.11416 -0.000547112 -0.0003103)
(0.117334 0.000401827 5.58211e-05)
(0.121196 -0.000447192 0.000528103)
(0.117238 0.000173471 0.000426912)
(0.113616 0.000399936 -0.000258158)
(0.119496 0.000147098 0.000246753)
(0.120534 0.000412783 -0.000219883)
(0.122143 -0.00034092 -6.17703e-05)
(0.114009 -0.000295112 -2.84716e-05)
(0.1132 -0.000703831 0.000203783)
(0.119907 -0.000366877 0.00031982)
(0.12141 4.81452e-05 -0.000640654)
(0.114447 4.65446e-05 0.000456788)
(0.121501 -0.000752288 0.000266226)
(0.116764 4.43185e-05 -0.000471043)
(0.114957 -0.00042307 0.000160579)
(0.118521 0.000222081 -0.000351694)
(0.120314 -0.000295553 3.22493e-05)
(0.117638 -0.00100007 -4.49414e-05)
(0.11659 0.000225187 0.000903218)
(0.117585 0.000288595 0.000344024)
(0.119312 -0.000176562 -0.000125206)
(0.117992 0.000520072 -0.000461427)
(0.116861 0.000431735 -0.000973687)
(0.113483 -0.000477954 0.000502202)
(0.118153 0.000334924 -0.000561806)
(0.118515 0.000145314 -0.000682773)
(0.115881 -0.00016109 -2.1261e-05)
(0.117406 -0.00109099 0.000279578)
(0.121569 7.88686e-05 -0.000165247)
(0.12186 0.000610903 0.000116146)
(0.119314 0.00050217 -0.000106578)
(0.114844 0.000140114 -4.9627e-05)
(0.121444 0.000266292 -0.000192423)
(0.120862 0.000362905 -0.000525038)
(0.119057 -0.000403741 -0.000343345)
(0.122642 0.000140988 0.000805085)
(0.12221 0.000111151 -0.000384877)
(0.120466 0.000223365 -0.000448353)
(0.122023 -1.29568e-05 9.76469e-05)
(0.117676 0.000431483 0.00012412)
(0.119055 -0.000288479 -0.000657654)
(0.113423 0.000321422 -0.00155214)
(0.117338 -8.11028e-05 -0.000196651)
(0.121289 -0.000911662 0.000252755)
(0.117533 5.43184e-05 0.000352163)
(0.121188 0.000321501 -0.00010978)
(0.118617 0.00047724 -0.000692177)
(0.119627 -0.000197393 5.41736e-05)
(0.120458 0.000208794 0.000374088)
(0.122318 -2.93411e-05 -0.000681971)
(0.119559 0.000619302 0.000171107)
(0.114238 0.000252985 -8.1861e-06)
(0.118336 0.000152342 0.000172942)
(0.115591 0.00155238 -0.000368058)
(0.121893 -0.000251012 -0.000923324)
(0.118465 -0.000594196 -0.00030336)
(0.121239 3.96039e-05 -0.000425954)
(0.119675 0.000128926 -0.000230033)
(0.117466 -0.000127052 -0.000473751)
(0.113507 -3.64605e-05 9.59644e-06)
(0.115338 0.000119184 -0.000576001)
(0.114725 0.000286702 0.000238565)
(0.113272 -0.000325197 0.000115189)
(0.1222 -0.00038144 -0.00040409)
(0.113922 -0.000451811 -0.000563614)
(0.120142 -0.000414827 0.000210159)
(0.119509 0.000559963 -0.000281618)
(0.118395 3.39724e-05 -0.000230858)
(0.115119 -0.000182969 -0.000225546)
(0.121805 -0.000781699 9.13074e-07)
(0.118645 9.60822e-05 -0.000736932)
(0.116618 0.000105935 0.000638294)
(0.121538 0.000186709 -0.000454715)
(0.120077 -0.000141568 -8.44831e-05)
(0.115435 0.000465701 0.000432506)
(0.117762 0.000117389 -6.73061e-05)
(0.114625 0.000201958 -5.03513e-05)
(0.119354 0.000310088 -0.000328485)
(0.118198 0.000302392 -0.000170262)
(0.115072 0.000406066 0.000858291)
(0.119038 -6.72066e-05 -0.000217144)
(0.117877 0.00103706 0.000436625)
(0.112384 0.000119469 -0.00117183)
(0.112365 0.000345894 0.000283006)
(0.120714 -0.000538029 0.000225036)
(0.12185 0.000141881 -4.80758e-05)
(0.122351 0.000210126 -0.000135057)
(0.113779 0.000271428 0.000155957)
(0.115318 -2.88866e-05 0.000440028)
(0.121086 0.000253524 0.000332887)
(0.116529 -0.000227129 -0.000261339)
(0.116353 0.000637177 -0.000813697)
(0.12102 0.000315682 0.000362892)
(0.121586 -0.000490669 -7.95867e-05)
(0.118194 -0.000775267 0.000119685)
(0.121399 -0.000909935 -0.000294814)
(0.122421 5.25267e-05 -0.000232965)
(0.114462 -0.000158315 -0.000242115)
(0.122393 -0.00100625 -0.000365173)
(0.112393 0.000277102 -0.000175015)
(0.11351 -5.24254e-05 -6.481e-05)
(0.121875 -0.000437687 -0.000255127)
(0.121128 -0.000527621 -0.000132712)
(0.122195 0.000141827 -0.000693717)
(0.12239 0.00047022 -0.000985102)
(0.121123 -0.000127302 -0.000745733)
(0.115601 0.00114409 -0.000576228)
(0.117179 -0.000947235 0.000699146)
(0.118325 -4.18032e-05 -0.000225264)
(0.12043 -0.000926598 0.0001011)
(0.121899 0.000906544 0.000762597)
(0.122253 -0.000742811 0.00028769)
(0.118754 0.00017156 -0.000247832)
(0.116741 -0.000969871 0.000487403)
(0.118593 -0.000103581 -6.46506e-05)
(0.121445 -3.82183e-05 -0.000177099)
(0.120852 -4.50003e-05 -0.000965371)
(0.117489 0.000114734 -0.000246938)
(0.119889 -0.000251883 -5.80609e-05)
(0.118307 0.000611869 -0.000571839)
(0.118235 -0.000368434 -0.000337842)
(0.120501 -0.000326033 0.000191645)
(0.117099 -0.000963842 0.000846391)
(0.114589 -0.000166139 8.77948e-06)
(0.119274 0.00074175 -0.000629694)
(0.12064 4.75496e-05 0.000149475)
(0.117809 0.000126595 -0.00018208)
(0.120536 0.000384998 0.000285629)
(0.121374 -0.000595075 0.000242012)
(0.119324 0.00014342 -0.000358977)
(0.11544 0.000282821 -0.000461013)
(0.118582 0.000407055 -0.000406633)
(0.117747 0.000401827 0.000396919)
(0.113528 0.000255212 -0.000460781)
(0.121058 -0.000873915 0.000224477)
(0.113467 0.000515091 0.000441484)
(0.120343 -8.69252e-05 -0.000493108)
(0.122045 -0.000846465 -0.000190725)
(0.114311 -0.000296525 0.000171637)
(0.119191 0.000301262 2.22848e-05)
(0.117975 0.000376862 0.000453924)
(0.11399 -0.000226838 7.72413e-05)
(0.120018 -0.000149755 -0.00014486)
(0.115423 2.80312e-05 -0.000168483)
(0.118579 -6.62252e-05 0.000624305)
(0.12159 0.000465285 0.000103719)
(0.120186 0.000120375 0.000178798)
(0.11321 0.000329817 -7.78508e-05)
(0.120508 0.000238369 1.9711e-05)
(0.11525 0.000139122 -0.000387654)
(0.120471 -0.000116311 -2.21809e-05)
(0.120626 0.000298767 8.2901e-05)
(0.121037 -0.000266206 -0.000498308)
(0.121707 -0.000238992 -0.000467625)
(0.114246 -9.05286e-05 -0.000565331)
(0.1207 -0.000940054 0.000151503)
(0.113579 1.40341e-05 -0.000518482)
(0.118084 3.1179e-05 -0.000429283)
(0.11437 0.000114513 -0.000327651)
(0.122605 6.55191e-06 -0.000436727)
(0.121677 0.000121537 -0.00044854)
(0.122412 -3.19892e-05 2.85962e-05)
(0.121939 -0.000364229 -0.000522776)
(0.119481 -5.81902e-05 -0.000483307)
(0.121013 -8.9836e-05 0.000225299)
(0.118456 0.000247371 -4.78908e-05)
(0.119574 0.000186042 -0.000258933)
(0.118923 0.000118149 -0.000366665)
(0.115205 7.3888e-05 9.67144e-05)
(0.120776 -6.38296e-05 -0.000384554)
(0.119188 -0.00033036 -0.000130285)
(0.119393 -0.000251102 -0.000257413)
(0.121327 9.65932e-05 0.00010544)
(0.120915 -1.96659e-05 -0.00052501)
(0.121178 5.19056e-05 0.000179704)
(0.11843 -0.000683468 0.000127389)
(0.11357 -0.000114151 0.000689141)
(0.118274 0.000251127 0.000239359)
(0.120597 0.000136731 0.000307568)
(0.119994 -0.000295561 0.00012523)
(0.114306 -0.000563447 -0.000462206)
(0.121765 6.25332e-05 -0.00033681)
(0.12151 -0.000128211 -0.000773073)
(0.117525 0.000233957 -0.000484142)
(0.12057 -0.000347976 -0.000503796)
(0.120976 -0.000233313 -0.00106948)
(0.120516 -0.000304965 -0.00061283)
(0.120802 -0.000337454 -8.465e-05)
(0.113891 -0.000202805 -0.000113444)
(0.120056 -0.000356724 8.73273e-05)
(0.120661 -0.000446971 0.000267116)
(0.112285 0.000144848 -5.74131e-05)
(0.119639 -0.000739191 2.13063e-05)
(0.120129 -0.00030111 -0.000205966)
(0.116586 0.000148375 0.00021119)
(0.113271 -0.000149001 0.000106527)
(0.113217 -0.000237485 0.000643835)
(0.11807 -0.000862818 0.00016551)
(0.112853 0.000408637 -0.000357598)
(0.118565 8.10727e-06 0.000193775)
(0.119464 -0.00012801 -2.24753e-06)
(0.116858 0.000558728 0.000307813)
(0.120589 0.000558562 -7.87506e-06)
(0.114217 -0.000153927 0.000184211)
(0.120328 0.00039498 9.0289e-05)
(0.122558 0.000220717 1.33942e-05)
(0.11857 -0.000169552 0.000100553)
(0.120354 -0.000105862 0.00054871)
(0.11821 3.32094e-05 1.3975e-05)
(0.121818 0.00079917 -0.000140959)
(0.119726 0.000438938 -1.40985e-05)
(0.119631 -0.000146837 -0.000584443)
(0.122659 3.00848e-05 -0.000446707)
(0.119119 6.98358e-05 -0.000362886)
(0.114207 2.78472e-05 0.000197148)
(0.118727 -3.55443e-06 -0.000190205)
(0.122261 0.000265723 -0.00100275)
(0.121475 0.0002882 -0.000616845)
(0.120744 -0.000107802 0.000581604)
(0.121656 0.000124553 -2.01461e-05)
(0.118893 -0.000660184 0.000492149)
(0.120818 -0.000235263 0.000163474)
(0.119913 0.000118697 0.000292858)
(0.121092 0.000166077 -0.000234693)
(0.121457 -0.000511179 -0.000362497)
(0.113116 -0.000452924 -0.000256002)
(0.118269 -0.000365687 0.000204649)
(0.111993 -0.000218837 0.000170599)
(0.118133 0.000406899 0.000673899)
(0.117563 -6.67974e-05 -0.000608018)
(0.114136 -0.0004019 0.000639157)
(0.113205 -0.000455295 -0.000396805)
(0.118968 0.000339797 -0.000248523)
(0.120061 -0.000370663 -0.000132106)
(0.121444 3.1347e-05 -0.000602144)
(0.114426 -0.000102278 0.000505741)
(0.120336 -0.000201509 0.000104055)
(0.118464 -8.06267e-05 0.000181867)
(0.118828 -0.000161841 -0.000488558)
(0.11997 4.34096e-05 -0.000561965)
(0.113794 0.000537202 0.00203818)
(0.118831 -3.92942e-05 -0.000531457)
(0.113891 0.000119229 0.000351272)
(0.117374 -0.000369044 -0.000366883)
(0.120888 -0.000200709 8.45213e-06)
(0.122852 0.00125528 0.000404441)
(0.121318 0.000206748 -0.000939966)
(0.119552 0.000604066 -0.000643032)
(0.112829 0.00019419 0.00104411)
(0.120413 -0.000227042 9.85309e-05)
(0.119935 -2.46419e-05 -0.000404653)
(0.121103 -0.000218278 -0.000380599)
(0.11332 4.41195e-05 1.90064e-06)
(0.115572 -0.000146625 0.000392798)
(0.117909 0.000421353 0.000501342)
(0.115362 0.000403746 -0.00026598)
(0.112693 -0.000508148 -0.000113984)
(0.120876 -3.29039e-05 -0.000359624)
(0.115045 -6.57139e-05 4.61282e-06)
(0.117475 0.000799914 0.000213814)
(0.114161 -0.000483791 -0.000878815)
(0.120537 0.000290051 5.6683e-05)
(0.11475 6.66162e-05 -0.000257006)
(0.121881 -0.000113758 0.00052084)
(0.120786 0.000175944 -0.000392011)
(0.122035 -0.000106441 0.00050441)
(0.12215 -0.000102469 -0.000388743)
(0.114767 -3.01909e-06 0.000193807)
(0.121308 0.000139421 0.000233953)
(0.122263 -0.000145158 -0.000153955)
(0.119509 -0.00038764 0.000294728)
(0.120537 0.000526927 -0.000168528)
(0.119887 -0.000438684 -0.000253066)
(0.121769 0.000390035 -8.40052e-05)
(0.121056 7.54561e-05 0.000529703)
(0.116943 7.78732e-05 -0.000420628)
(0.122923 -0.000135431 -0.000105354)
(0.1224 -0.00024817 -5.27039e-05)
(0.119304 -0.000182725 -0.000101142)
(0.118178 -0.000325631 -0.00078352)
(0.121694 -0.000402388 -0.000237269)
(0.119512 0.0002501 -2.45204e-05)
(0.112576 0.000621164 -0.00026375)
(0.112641 0.00039407 -6.43556e-05)
(0.118816 2.48372e-05 0.000152224)
(0.121216 3.6451e-05 0.000128275)
(0.122381 -0.00018436 -0.000216129)
(0.11699 -0.000255579 -8.27524e-05)
(0.121356 0.000418851 0.00024423)
(0.120335 -0.000112207 0.000299884)
(0.121839 0.00101434 0.000857962)
(0.11917 -2.80402e-05 -5.53966e-05)
(0.11875 0.000474734 -0.000361714)
(0.119783 -0.00158332 0.000789693)
(0.113942 -2.60945e-05 -0.000207321)
(0.118328 0.000118518 8.90071e-05)
(0.119823 2.62472e-05 -0.00019202)
(0.121768 3.56399e-05 -5.35359e-05)
(0.115282 -0.000284533 6.52943e-05)
(0.115842 0.000555765 -0.00057199)
(0.116798 -8.88831e-05 -0.000341062)
(0.116599 -0.000394936 -9.65581e-05)
(0.118833 -0.000137038 -0.000528381)
(0.113605 -8.67827e-05 -0.000430958)
(0.121142 0.00029323 -0.000803824)
(0.117698 0.000108708 -0.000251937)
(0.120335 7.58326e-05 0.000933928)
(0.118248 -0.000233204 -0.000101409)
(0.122379 -0.000236681 -0.000290845)
(0.119218 -0.000140929 -0.000798843)
(0.113663 0.000176045 0.000553654)
(0.119715 0.000827681 0.000113959)
(0.12248 -0.000170215 -0.000913134)
(0.114499 0.000331153 0.0010493)
(0.121298 -7.79709e-05 -0.000722214)
(0.122937 -0.00104043 -0.00050291)
(0.119376 -0.000302142 2.1261e-05)
(0.118074 0.000251855 0.000105711)
(0.122347 -0.000160667 -0.000772411)
(0.116838 -3.83047e-06 -7.85841e-05)
(0.11906 -0.000403508 -2.40304e-06)
(0.118807 0.000183644 0.00021858)
(0.114677 -3.68978e-05 3.88374e-05)
(0.115045 -0.000113015 -0.00116087)
(0.118078 0.000219725 0.00037099)
(0.116974 0.00056879 0.000147534)
(0.120921 -9.4436e-05 -0.000299285)
(0.116611 -0.000376604 0.000306338)
(0.118034 0.000395916 0.000447631)
(0.122083 0.000145736 0.000311921)
(0.11816 0.000202737 -1.74735e-05)
(0.113115 0.000217752 0.000269709)
(0.116856 0.000245598 8.55019e-05)
(0.119194 0.000392159 -0.000227655)
(0.122341 -0.000183666 0.000207453)
(0.11356 0.00068766 0.000436739)
(0.11348 -8.61082e-05 0.000255269)
(0.122276 0.000259877 0.000854117)
(0.113721 0.000231558 5.77798e-05)
(0.11997 -7.27159e-05 -0.000103138)
(0.121031 0.00019725 -0.000241417)
(0.11508 -0.000156928 -0.000792688)
(0.119247 0.000224714 -0.000213253)
(0.121814 0.000411548 -0.000476712)
(0.118851 2.6979e-05 0.000636015)
(0.112166 2.93594e-05 0.000172835)
(0.121669 0.000158727 -8.09732e-05)
(0.118865 -6.08447e-05 -0.000348405)
(0.112862 0.000501156 -9.37721e-06)
(0.121892 0.000209998 -0.000155621)
(0.11772 -0.000130508 -0.000181801)
(0.117902 0.00045757 -0.000377298)
(0.12052 -0.000187233 -9.91063e-06)
(0.113114 0.000796942 -0.000435382)
(0.117719 -3.41765e-05 -0.000971203)
(0.11737 -0.000525099 3.52668e-05)
(0.118826 7.00396e-05 -0.000461718)
(0.114966 -9.81025e-05 0.000417866)
(0.116623 -4.86028e-05 -6.6333e-05)
(0.120785 0.000479596 0.000340461)
(0.122855 -0.000731173 -0.000648475)
(0.123384 -0.000334576 0.000158581)
(0.122175 0.000341467 -0.000226546)
(0.121843 -0.000552136 -0.000197954)
(0.120622 0.00013012 -0.00123982)
(0.116276 -0.00022359 0.000350398)
(0.122896 0.000182032 -0.000935624)
(0.120822 -9.71685e-05 -8.63843e-05)
(0.120335 0.00062133 0.000203513)
(0.115241 0.000848728 -0.000286143)
(0.119517 -0.00016866 -0.000225541)
(0.120018 0.000338008 0.000547889)
(0.123247 0.000877839 5.25944e-05)
(0.113685 -4.31199e-05 0.00026727)
(0.112647 -0.000548464 0.000346361)
(0.121754 0.000100759 -0.000580607)
(0.116946 -9.99352e-05 -0.000335801)
(0.121666 7.83713e-05 -2.85734e-05)
(0.117613 3.65665e-05 -0.000391916)
(0.11504 -0.000195282 -0.000772416)
(0.11984 1.33264e-05 -0.000834777)
(0.121721 0.000359169 -0.000140434)
(0.11919 0.000242063 8.007e-05)
(0.121007 0.000877122 -0.000282408)
(0.11432 8.42358e-05 -0.00159708)
(0.121174 0.00108016 0.000419329)
(0.12074 -0.000167794 -0.000475217)
(0.112935 0.000328968 -3.08289e-05)
(0.120811 -0.000172588 -0.000491015)
(0.120669 -0.0002535 3.61124e-05)
(0.120278 0.000375076 0.00142365)
(0.114567 -0.000611522 -0.000854154)
(0.113605 0.000264443 -0.000727047)
(0.118226 0.000320979 -0.000318097)
(0.11865 1.24811e-05 0.000898506)
(0.119154 -0.000186756 0.000166927)
(0.118538 0.000473893 0.000169979)
(0.118055 0.000442768 0.000644377)
(0.121469 0.000124233 -3.21502e-06)
(0.11939 -0.00016987 0.00017264)
(0.119691 0.000274321 0.00020296)
(0.115218 -0.00027632 0.000632136)
(0.122261 -0.000105027 -0.00095736)
(0.114039 -0.000204981 -2.33116e-05)
(0.1191 0.000733855 2.61727e-06)
(0.118409 0.000368826 -6.70638e-05)
(0.118356 -0.000832828 -0.000586263)
(0.120103 0.000440502 5.47222e-05)
(0.117085 -0.000311122 -0.000408462)
(0.114627 -0.000743743 -0.00046405)
(0.113218 -0.000150457 -0.000487738)
(0.114545 -0.000298178 -0.000227649)
(0.118256 -0.000496905 -0.000368232)
(0.120742 0.00065686 0.000268168)
(0.113851 0.00043437 0.00163264)
(0.121075 -0.000193395 -8.93351e-05)
(0.118539 3.64733e-05 -0.000695323)
(0.122003 -0.000341556 -0.000411123)
(0.113771 -3.44699e-05 -0.000732637)
(0.11714 0.000411099 0.000561413)
(0.120989 0.000144034 -0.000654822)
(0.122018 -0.000776685 -3.87156e-05)
(0.120869 0.000323386 -0.000382822)
(0.121815 -0.000235128 -0.000223452)
(0.119533 8.70813e-05 0.000183243)
(0.118548 0.000554646 0.000147182)
(0.122199 -3.49781e-05 0.00034625)
(0.121916 0.000357799 -1.81883e-05)
(0.12216 0.000257854 8.23329e-05)
(0.115487 0.000932774 -0.000393719)
(0.121995 -0.000679522 -0.000716145)
(0.113281 -0.000310896 0.000395373)
(0.122206 0.000686533 5.03302e-07)
(0.119565 0.000212554 -0.000208077)
(0.118373 5.66023e-05 -0.000482244)
(0.114432 0.000775154 1.98266e-05)
(0.118696 0.00112872 -0.000694588)
(0.111998 -0.000889058 -0.000514282)
(0.121024 0.000111379 -0.000471745)
(0.118803 0.000108383 -0.000249203)
(0.121437 -0.000151645 -0.000239742)
(0.117871 0.000351488 -0.000297355)
(0.11799 0.00112279 -0.000290022)
(0.113845 -0.000295447 0.000644816)
(0.122512 0.00019958 -3.95065e-05)
(0.11505 -0.000538626 0.000201856)
(0.112447 -0.000270648 -0.000334059)
(0.114851 -0.00022475 7.97134e-05)
(0.115254 0.000237299 0.000108788)
(0.114726 0.000725828 -9.23196e-05)
(0.11886 -0.000307477 0.000105398)
(0.113865 0.000125063 -7.40773e-05)
(0.120305 -0.00107953 0.00035807)
(0.120759 5.22695e-06 -0.00048554)
(0.112367 -6.49117e-05 -2.51876e-05)
(0.120463 0.000379568 -5.65978e-05)
(0.114409 0.000357635 -0.000718384)
(0.118018 0.000747146 -9.09335e-05)
(0.119147 0.000340718 -6.67089e-05)
(0.118514 -0.000193264 -0.00095333)
(0.12082 9.90935e-05 -9.98578e-05)
(0.12275 0.000214202 -0.000819109)
(0.120928 4.29525e-06 0.000395432)
(0.120128 3.92957e-05 -0.000179555)
(0.119741 -0.000169844 -0.00106114)
(0.120697 0.000403837 0.000224203)
(0.117795 0.000252791 4.66185e-05)
(0.118253 0.000339027 0.000141972)
(0.112954 0.000630732 -0.000796115)
(0.110771 0.00151106 0.0034917)
(0.121617 1.38211e-05 0.000120522)
(0.118951 5.01444e-05 -0.00020361)
(0.12072 -0.000282889 -0.000142086)
(0.120856 -4.22819e-05 0.00015423)
(0.113258 -0.000522546 -6.21082e-05)
(0.121513 -0.000123997 -0.000351821)
(0.121888 0.000538204 4.31413e-05)
(0.121633 5.79838e-05 0.000141228)
(0.12161 0.000192408 0.000402762)
(0.120179 0.000359309 0.000425866)
(0.119732 -0.000526014 -0.0002488)
(0.121661 -5.41772e-05 4.09163e-05)
(0.122285 -0.000152083 0.000448044)
(0.119961 0.000359847 0.000353104)
(0.12186 0.000203434 -0.000206838)
(0.12118 -0.00035977 -0.00046012)
(0.115701 -0.00032112 -0.000462034)
(0.121527 -0.000141957 0.000248262)
(0.116146 -5.8522e-05 0.000525777)
(0.11906 6.75237e-05 -5.52321e-05)
(0.119263 -0.000786832 -1.61369e-05)
(0.118659 -0.000509279 0.000151715)
(0.117917 0.000635323 4.03055e-05)
(0.120707 0.000339592 -0.000132634)
(0.118148 0.000384423 0.000293573)
(0.119703 0.00042436 -0.00045473)
(0.117992 0.00112899 -0.000571326)
(0.113305 0.00113916 -0.000765249)
(0.122692 0.000420566 -0.000324689)
(0.120557 0.000589205 -0.000176381)
(0.117631 -6.15525e-06 0.000666217)
(0.113798 -0.000500567 -2.65468e-05)
(0.121077 -0.000370912 -8.33946e-05)
(0.113361 -0.00060423 -0.000580754)
(0.121826 -0.000324832 5.08587e-05)
(0.120917 -6.74584e-05 0.000369679)
(0.117822 0.00111267 -0.000466064)
(0.120791 -0.000380525 0.000217999)
(0.122197 0.000103074 -0.000471881)
(0.119734 -0.000443918 -0.000121993)
(0.11319 -0.000136001 0.000205861)
(0.118129 -6.5813e-05 -2.31897e-05)
(0.116005 0.000553894 -0.000505452)
(0.11881 0.00012293 -0.000149859)
(0.113412 -0.000494328 -0.00090391)
(0.120327 -0.000129445 -0.000314424)
(0.120863 -0.000489736 0.000551656)
(0.116626 0.000603747 -0.00069491)
(0.118734 8.15653e-05 4.57869e-05)
(0.116108 1.93335e-05 -0.00028537)
(0.121091 1.14697e-05 -0.000410152)
(0.117755 -0.000668911 0.000147658)
(0.118823 0.000384534 0.000446116)
(0.113928 -0.000198348 3.12931e-05)
(0.121546 -1.83893e-05 -2.76553e-07)
(0.119669 -0.000409595 -0.000197903)
(0.121645 8.43642e-05 -6.34763e-05)
(0.116312 0.000536764 -0.000362751)
(0.118911 -7.17883e-05 -0.00032316)
(0.119773 0.000110961 -0.000318618)
(0.117731 -7.96274e-05 0.000266609)
(0.119378 -7.76983e-05 0.00021859)
(0.118949 -0.000192786 0.000534988)
(0.121297 -0.000406328 9.91652e-05)
(0.118841 -0.00021828 -0.000105856)
(0.114406 9.86473e-06 -0.000201844)
(0.11263 -0.000179008 -0.000625009)
(0.120368 -0.000623481 7.24078e-05)
(0.113396 0.00052093 -0.000996118)
(0.116798 -0.000677494 -0.00125231)
(0.118889 0.000277536 -0.000219618)
(0.11904 0.000282257 5.87853e-05)
(0.122181 0.000534885 -0.000275829)
(0.113279 -4.30796e-05 -6.67543e-05)
(0.118665 -0.000118269 -0.000692838)
(0.122539 7.68903e-05 -0.000393495)
(0.114468 0.000827546 -0.00261696)
(0.114713 0.00138681 8.84904e-05)
(0.118079 1.62604e-05 -0.000734624)
(0.114746 -5.31246e-05 -1.47965e-05)
(0.120207 0.000573824 -0.000678601)
(0.114852 -0.00031432 8.68361e-05)
(0.121915 -0.000783148 -0.00031988)
(0.116365 0.000193265 0.000488728)
(0.117431 0.000411232 0.000489695)
(0.122858 0.000370796 0.000805119)
(0.112551 -0.000185333 0.000467722)
(0.117128 0.000122647 0.00039551)
(0.11708 1.40096e-05 0.000560306)
(0.121612 -7.50393e-05 -0.000719657)
(0.121787 5.46256e-05 0.000245175)
(0.121483 3.7204e-05 -0.000184811)
(0.11413 0.000691541 0.000327487)
(0.120472 7.57569e-05 -0.000397135)
(0.121248 0.000154591 0.00086492)
(0.116595 -0.000216837 -0.000147561)
(0.121523 0.000364631 -0.000108391)
(0.120908 0.000334302 0.000207826)
(0.120669 0.000372464 -6.25047e-06)
(0.121785 -7.77165e-05 -0.000585675)
(0.119058 6.11829e-05 -0.000181732)
(0.122847 4.66704e-06 0.000331172)
(0.122157 0.000704023 0.000800267)
(0.121786 3.18929e-05 -0.000369448)
(0.119704 0.000509354 0.000328478)
(0.118006 -0.000256884 -0.000401021)
(0.119234 0.000374173 6.24448e-05)
(0.118892 0.000156049 -0.000359205)
(0.113071 -0.000850889 -0.000246232)
(0.117954 -0.000503007 6.16683e-05)
(0.119808 -0.000177949 0.000468129)
(0.121605 -0.000262217 -0.00028463)
(0.121934 -0.00031598 -0.000640332)
(0.118297 -0.000442302 6.13107e-05)
(0.12288 0.00109881 -0.000138016)
(0.120837 -5.79579e-05 -2.8517e-05)
(0.117119 -0.000689646 0.000589009)
(0.120749 -7.73815e-05 -0.000396562)
(0.121597 4.07035e-05 -0.000241985)