/*--------------------------------*- C++ -*----------------------------------*\
| =========                 |                                                 |
| \\      /  F ield         | OpenFOAM: The Open Source CFD Toolbox           |
|  \\    /   O peration     | Version:  2212                                  |
|   \\  /    A nd           | Website:  www.openfoam.com                      |
|    \\/     M anipulation  |                                                 |
\*---------------------------------------------------------------------------*/
FoamFile
{
    version     2.0;
    format      ascii;
    arch        "LSB;label=32;scalar=64";
    class       surfaceVectorField;
    location    "0.036";
    object      Uf;
}
// * * * * * * * * * * * * * * * * * * * * * * * * * * * * * * * * * * * * * //

dimensions      [0 1 -1 0 0 0 0];

internalField   nonuniform List<vector> 
68568
(
(0.120187 0.000273239 -0.000130472)
(0.119491 0.000588439 -0.000167545)
(0.1192 0.000400942 -2.25478e-05)
(0.121606 0.000811034 -0.000331495)
(0.119631 -0.000384238 -0.000246581)
(0.119575 -0.000457776 -0.000457435)
(0.118504 -0.000388435 1.43698e-06)
(0.113116 -0.000188031 -0.00021593)
(0.120801 0.000220264 0.000271037)
(0.120516 -0.000463986 0.000729611)
(0.119321 -0.000293352 0.000181413)
(0.116048 -0.000600572 0.000756202)
(0.122699 -0.000192133 -0.000233226)
(0.121576 -4.27173e-05 -0.000400626)
(0.122618 -0.000120858 -0.00028709)
(0.122892 -0.000180291 -0.000304972)
(0.117674 -0.000230603 -0.000252444)
(0.12038 -0.000490667 -0.000297148)
(0.117092 -0.000224083 -0.00031456)
(0.12001 -0.00049247 -0.000347855)
(0.120156 -9.26866e-05 -3.47249e-05)
(0.118879 -4.38166e-05 0.000131476)
(0.12031 -4.98056e-05 0.000144866)
(0.114412 -4.95033e-05 -0.000268094)
(0.118968 -2.18358e-05 -0.000216861)
(0.114682 -0.000148974 9.33972e-05)
(0.116376 0.000129279 -0.000473978)
(0.119024 -2.1171e-05 -0.00027615)
(0.118969 0.000250451 0.000412207)
(0.121106 0.000145993 -1.23386e-05)
(0.119851 -4.22701e-05 -5.0292e-05)
(0.120274 -0.000174722 -0.000357449)
(0.119149 7.36386e-05 -0.000268877)
(0.119178 0.000239654 -0.000595814)
(0.12109 -0.000272394 -9.74809e-05)
(0.120127 -0.000486563 -0.000363953)
(0.121647 -0.000110894 -0.000593222)
(0.121849 -0.000467693 -0.000422048)
(0.121865 0.000477377 -1.31526e-05)
(0.120766 0.00033278 -9.71328e-05)
(0.121682 0.00030154 -0.000108967)
(0.118452 -0.000126328 -0.000504991)
(0.122128 -0.000452413 -0.000724701)
(0.12172 -0.000534581 -0.000649635)
(0.119676 -0.000198894 2.66708e-05)
(0.11872 -0.000395081 -3.53435e-05)
(0.113581 2.50619e-05 -0.000330513)
(0.121643 -0.000144335 -0.00016245)
(0.121551 -0.000135408 0.000237604)
(0.120762 -0.000128756 0.000140535)
(0.118876 -7.94849e-05 0.000152054)
(0.11751 -0.000311251 -4.60071e-05)
(0.119048 -0.000292136 -0.000162308)
(0.118417 -0.000258728 -5.59372e-05)
(0.113056 -0.000313317 -9.33417e-05)
(0.119111 -0.000409783 0.000763309)
(0.11481 -0.000333621 0.000463805)
(0.116471 -0.000375549 0.000697113)
(0.119353 -0.000300153 0.000283857)
(0.118592 0.000158699 0.000247534)
(0.119446 0.000290522 0.000262719)
(0.119045 0.000219832 0.000168708)
(0.120472 5.42061e-05 0.000150529)
(0.115132 0.000402137 0.000431347)
(0.115248 -0.000322458 0.000687339)
(0.118774 -6.46433e-05 0.000271066)
(0.118929 6.93735e-05 -0.000594724)
(0.116627 -0.000322069 -5.4586e-05)
(0.115388 0.000122246 -0.000682869)
(0.119365 -0.000157522 -0.000353384)
(0.119411 8.80615e-06 -0.000109766)
(0.120691 -0.000303269 -4.84456e-05)
(0.120309 -0.000459938 5.48798e-05)
(0.115405 -0.000144601 -1.17972e-05)
(0.1146 -0.000186329 -0.000379786)
(0.116204 4.13642e-05 -0.000308059)
(0.114901 0.000261674 -0.000318998)
(0.105493 -0.000145846 -0.000465406)
(0.120635 -0.000430161 -0.00054328)
(0.122063 -0.000180976 -0.000615415)
(0.121107 -0.000278772 -0.000609684)
(0.121532 -0.000317432 -0.000721274)
(0.121215 0.000394693 -0.000237996)
(0.121222 0.000432458 -0.000103997)
(0.11902 0.000489936 -6.56404e-06)
(0.121936 0.000567313 -0.000252666)
(0.116277 0.000253139 -0.000238674)
(0.116632 -0.000133724 -0.00021721)
(0.119096 0.0001823 -0.000356388)
(0.119528 3.51385e-05 -3.09994e-05)
(0.114239 -2.70574e-05 8.55769e-05)
(0.118168 -0.000112829 -6.56246e-05)
(0.115993 0.000249699 -0.000428386)
(0.11825 -8.85962e-05 0.000236647)
(0.118877 1.84548e-05 -6.55327e-05)
(0.118901 -0.000353711 0.000164988)
(0.120902 -0.000227135 0.000717458)
(0.119181 -5.97202e-05 -0.000227258)
(0.120427 -0.000148289 -0.0001156)
(0.115112 -9.8514e-05 0.000295976)
(0.122082 0.000580771 0.00031246)
(0.119911 0.000689113 -0.000193937)
(0.121983 0.000664098 9.94681e-05)
(0.120427 0.000385904 -0.00059835)
(0.119874 0.000206772 0.000406663)
(0.114238 0.000442616 -0.000229835)
(0.115957 0.000430484 0.000133452)
(0.12151 0.000111429 0.000276283)
(0.120649 -7.04369e-05 0.00028772)
(0.121543 5.46075e-05 0.000287521)
(0.122163 -0.000275431 -0.000214342)
(0.120614 -5.67702e-05 -1.65389e-05)
(0.12229 -0.000225083 -0.000141838)
(0.120109 -0.00013012 -0.000190795)
(0.118549 -0.00023706 -0.000142326)
(0.118574 -9.49232e-05 -0.000247743)
(0.115271 0.000299781 3.43371e-05)
(0.114825 -0.000296712 0.000335924)
(0.12127 0.000226211 -0.000466743)
(0.12063 2.78086e-05 -0.000302588)
(0.121358 -9.17161e-07 -0.000428489)
(0.121753 -8.93581e-06 -0.000322254)
(0.116402 -0.000119485 -0.000224973)
(0.11533 -0.000262571 9.99024e-05)
(0.119495 -0.000195817 4.09217e-05)
(0.119638 -2.90434e-05 0.000118602)
(0.116459 0.00029603 0.000191109)
(0.114315 0.000168028 0.00016471)
(0.114269 4.99274e-05 -0.000128707)
(0.106266 4.17759e-05 0.000167601)
(0.121626 0.000456021 -0.00016463)
(0.11413 1.46436e-05 -5.93835e-05)
(0.114304 -0.000445163 -0.000203533)
(0.112121 -0.000245387 5.05856e-05)
(0.105642 -0.000284118 -4.84913e-05)
(0.122148 -0.000424664 0.000303185)
(0.122095 -0.000591377 0.000172378)
(0.122264 -0.000192058 0.000436325)
(0.121555 -0.000509457 0.000302461)
(0.120263 -0.000312319 0.000331732)
(0.120296 -0.000302238 0.000530547)
(0.121718 -0.000340305 0.000583953)
(0.113007 0.000503228 -0.000415613)
(0.114228 -0.000288337 -1.94046e-05)
(0.106484 6.48651e-05 -0.000111472)
(0.117531 -7.06355e-05 -0.000124944)
(0.115157 -0.000108664 -0.000394683)
(0.106725 0.00011812 -0.000474964)
(0.115857 -0.000193569 0.000131495)
(0.115877 -0.000467193 -9.12463e-05)
(0.116831 -0.00039108 -8.17155e-05)
(0.105903 -0.000305757 0.000125431)
(0.121455 -0.000159082 0.000127191)
(0.119598 -0.000143614 1.58908e-05)
(0.120708 -0.000302068 -0.0004804)
(0.121726 -0.000812225 -0.000457392)
(0.120472 -0.000784358 -0.000759026)
(0.12187 -0.000561161 -0.000877793)
(0.121127 -0.000535163 0.00061753)
(0.121476 -0.000695881 0.000228628)
(0.120845 -0.000249843 0.000291062)
(0.122312 -0.000609442 -0.000246695)
(0.12109 -0.000674341 -3.02548e-05)
(0.120518 -0.000403607 -0.000366874)
(0.122229 -0.000265517 -0.000472103)
(0.118544 -1.15153e-05 -0.000341625)
(0.116956 0.000462202 -0.000501614)
(0.112104 -4.01346e-05 -0.000326761)
(0.119682 0.00033494 -0.000480038)
(0.119994 2.52508e-05 -0.000345516)
(0.11757 0.000199278 -0.000742833)
(0.116277 0.000107502 -0.000274239)
(0.118442 -0.000209165 0.000205208)
(0.118174 -3.3006e-05 4.89889e-05)
(0.120279 -1.75201e-05 -0.000256499)
(0.119211 -0.000219161 0.000125298)
(0.12142 -0.000129502 -0.000373838)
(0.120527 -0.000262609 -0.000492446)
(0.120731 7.20271e-05 -0.000410091)
(0.122231 0.000171581 -0.000781349)
(0.122627 -9.38994e-05 -0.000374039)
(0.116477 -0.000178019 -0.000538871)
(0.114301 6.10772e-05 -0.000248093)
(0.114979 3.41035e-05 -0.000151272)
(0.105127 5.51871e-05 -0.000305528)
(0.120825 0.000650237 0.000171321)
(0.120032 0.000516258 0.000208504)
(0.121623 0.000584645 0.000183795)
(0.121191 0.000387 0.000165643)
(0.113471 -0.000366401 7.36154e-05)
(0.106048 -0.000132789 0.000324182)
(0.117336 -0.000164292 -0.000254701)
(0.117166 -0.000397807 -1.64508e-05)
(0.120201 -0.000208228 -0.000275861)
(0.120242 -0.000320673 -7.37329e-05)
(0.117721 0.000193869 0.000235421)
(0.118263 0.000102588 0.000193448)
(0.120157 -0.000155415 3.81344e-05)
(0.116044 -4.37204e-05 -0.000700314)
(0.114789 -6.35189e-05 -0.00034245)
(0.116256 8.63779e-05 -0.000180253)
(0.106029 0.000350145 -0.000298231)
(0.1207 0.000132405 0.000457355)
(0.120302 -0.000183137 0.000133592)
(0.11928 2.05122e-05 0.000413097)
(0.115333 3.93943e-05 0.000360427)
(0.120471 -0.000292387 0.000151518)
(0.119241 5.14394e-05 0.000433805)
(0.120439 -8.2851e-05 -5.59514e-06)
(0.114468 5.10665e-05 0.000236675)
(0.11418 -2.09579e-06 -0.000131779)
(0.114323 0.000452046 -0.000137249)
(0.10695 0.000136358 -0.00012062)
(0.119186 -0.000442897 -0.000525089)
(0.118873 -3.5038e-05 -0.000355487)
(0.119126 -0.000133429 -0.000199031)
(0.12089 0.000365619 9.99172e-05)
(0.119611 0.000414382 0.000190169)
(0.121671 0.000130516 -0.000126184)
(0.120245 0.000255231 -0.000183297)
(0.118909 -0.000137295 -0.000414305)
(0.116328 -0.000220946 -0.00053266)
(0.116408 -0.000208597 -0.000295536)
(0.106865 -0.000306471 -0.000225648)
(0.120344 -9.59287e-05 -0.000104709)
(0.120432 5.56882e-05 7.0087e-05)
(0.113892 4.22159e-05 -0.000203406)
(0.118679 9.51814e-05 -6.31868e-05)
(0.118979 0.000369987 6.31236e-05)
(0.120538 0.000420808 0.000118611)
(0.119131 0.00038438 0.000244538)
(0.122153 -0.000100023 -0.00059344)
(0.122405 -0.000185943 -0.000486054)
(0.122304 -0.000307557 -0.000415365)
(0.121712 -0.0002036 -0.000365797)
(0.118275 0.000306491 -0.00101201)
(0.12042 0.000196374 -0.000874562)
(0.121069 -0.000222494 -0.000713649)
(0.11897 -0.000419834 5.24671e-05)
(0.120223 -0.000298199 2.68005e-05)
(0.118946 -0.000137845 0.00018161)
(0.114685 -6.75534e-05 -0.00022172)
(0.116382 -0.000913934 -0.000461333)
(0.116889 0.000234487 -0.000363287)
(0.106082 -6.62444e-05 -0.000457685)
(0.122042 0.000288205 5.66819e-05)
(0.122372 0.000215708 -0.000290629)
(0.121944 3.26258e-05 -9.37167e-05)
(0.122508 7.3358e-05 -0.000413745)
(0.121197 0.000311052 -6.33066e-05)
(0.119339 0.000282399 2.45083e-05)
(0.120486 7.4622e-05 -8.05796e-05)
(0.120319 0.000177099 -0.000257152)
(0.11657 -5.70414e-05 -0.00103359)
(0.116103 0.000170193 -0.000443407)
(0.117607 -8.15245e-06 -0.000780151)
(0.109239 -0.000650447 -0.000765)
(0.11964 -0.00026827 -0.0006214)
(0.119707 -0.000324095 -0.000838723)
(0.121507 -0.000290824 -0.00047645)
(0.121229 -0.000258715 -0.000587637)
(0.120791 -0.000206858 -0.000212986)
(0.119316 -0.000287125 -0.000349452)
(0.119283 4.65331e-05 -0.000113826)
(0.114981 9.02737e-05 -0.000551178)
(0.120984 0.00055593 0.000287619)
(0.120436 0.000580297 8.96245e-06)
(0.119185 0.000337153 -0.000137266)
(0.114364 -8.75864e-06 -0.000658292)
(0.113944 9.70711e-05 -0.000462829)
(0.115593 0.00030821 -0.000688753)
(0.105414 0.000367515 -0.000247296)
(0.121322 -0.000543374 -0.000117105)
(0.121056 -0.000581916 0.000123865)
(0.122345 -0.000505453 5.35793e-05)
(0.116858 0.00101614 -0.000611071)
(0.120008 4.7187e-05 -0.000424345)
(0.119534 0.000171611 -0.000445217)
(0.118959 -0.000252479 0.000462801)
(0.119394 5.52147e-07 0.00021628)
(0.11985 6.23461e-05 0.000315419)
(0.113877 -0.000107223 0.000327305)
(0.116397 -0.000203127 -0.000133384)
(0.121179 6.84e-06 3.44123e-05)
(0.119137 0.000262001 2.5924e-05)
(0.121172 0.000427371 -0.000103747)
(0.114626 0.000332211 -0.000293846)
(0.118267 -0.000148699 -7.79501e-05)
(0.118521 -3.65507e-05 3.99178e-05)
(0.111837 -6.46516e-05 -0.000281498)
(0.11289 2.38297e-05 0.000266001)
(0.112506 -0.000267619 9.92957e-05)
(0.105988 -0.000135315 0.000116034)
(0.122192 -1.55577e-05 0.000213189)
(0.120465 -6.65673e-05 -9.50807e-05)
(0.122139 -0.000236835 0.000170613)
(0.121391 -0.000479786 0.000215932)
(0.121364 -0.000454711 -0.000275165)
(0.120969 -3.03342e-05 -0.000136374)
(0.12082 -0.000114917 -0.000277942)
(0.114404 -0.000168508 3.13491e-05)
(0.118577 -0.000255537 -0.000120938)
(0.120445 -0.000274995 -0.000128151)
(0.120807 -0.000111995 -0.000184348)
(0.118579 2.80527e-05 0.000108204)
(0.122074 -0.000122058 -0.000126907)
(0.120279 -7.72182e-05 -0.000269711)
(0.120504 8.61938e-05 5.1841e-05)
(0.122062 -0.000191112 -3.79827e-05)
(0.122132 2.84086e-05 0.000189841)
(0.12161 -0.000133003 2.6718e-05)
(0.122368 -0.000113684 -0.000171395)
(0.120711 -0.000163865 -0.000261847)
(0.120482 -0.00027385 -0.000428695)
(0.122057 -0.000103682 -0.000608165)
(0.114304 0.00131313 -0.00091677)
(0.117204 0.000211995 -0.00129808)
(0.116233 0.000574853 -0.000871152)
(0.10398 0.000132031 -0.000414775)
(0.120912 -0.000183066 -0.000244876)
(0.120998 -0.000277493 -0.000294781)
(0.122153 -0.000224275 -0.000526284)
(0.119695 -0.000243987 0.000210035)
(0.121191 -0.000186283 8.82891e-05)
(0.114296 -8.22951e-05 -6.36861e-05)
(0.11662 -0.000232597 2.08975e-05)
(0.116226 -2.31905e-05 4.33176e-05)
(0.119362 -0.000282618 0.000240461)
(0.119158 -0.000339886 -5.32541e-05)
(0.115672 -0.000381374 -0.000925697)
(0.116229 -0.000530317 -0.000118342)
(0.105372 -0.000389934 -0.000143831)
(0.117335 0.000459677 -0.000788553)
(0.119003 0.000211977 -0.000919303)
(0.113093 -0.00027989 -0.000484267)
(0.115572 -0.000536381 -7.80313e-05)
(0.118612 -0.000618967 -0.000157089)
(0.115143 -0.000408596 -0.000388797)
(0.118417 -0.000435766 -0.000205765)
(0.119733 0.000524663 0.000107032)
(0.119535 0.000786021 -2.88649e-05)
(0.117989 0.0010246 0.000433148)
(0.114691 0.0006027 0.000330843)
(0.118033 0.000292416 -0.000223796)
(0.11884 -6.04097e-05 -0.000288366)
(0.120853 0.000241024 -9.30843e-05)
(0.121282 -0.000217443 -5.71414e-05)
(0.120918 -0.000170702 1.29607e-05)
(0.114117 -0.00016146 2.83863e-05)
(0.118737 7.91246e-05 0.000265696)
(0.118325 0.000352362 0.000197191)
(0.119715 7.66669e-05 0.000199989)
(0.113692 5.41095e-05 -0.000184215)
(0.115405 -0.000791225 0.000165919)
(0.115903 -0.000321535 5.76743e-06)
(0.114834 -0.000970939 -0.000294796)
(0.105728 -0.000660026 0.000194267)
(0.120376 0.000302189 0.000163447)
(0.120499 -3.03715e-05 0.000142606)
(0.118481 0.000188896 -0.000287402)
(0.120656 -0.000142192 -0.000180163)
(0.120362 0.000149188 0.000227365)
(0.118873 -0.000114743 0.000357099)
(0.118711 0.000527609 0.00019551)
(0.117352 -0.000340867 -0.000416215)
(0.113245 -7.19612e-07 -0.000183702)
(0.114215 -3.68314e-05 -0.000241748)
(0.11591 -0.000338807 -0.000300098)
(0.115056 0.000111447 -0.000350397)
(0.105965 -4.83587e-05 6.08634e-05)
(0.116509 -5.25442e-05 -0.000274982)
(0.105622 -2.82163e-05 -0.000312485)
(0.120777 -0.000389779 -1.03531e-05)
(0.122479 -0.00017338 0.000275943)
(0.122577 -0.000280906 -7.40993e-05)
(0.10698 4.40868e-05 0.000233045)
(0.115037 -0.000602646 -0.000695374)
(0.116099 -0.000463385 -0.000300049)
(0.115647 -0.000791885 -0.000647345)
(0.10507 -0.000372946 -0.000926719)
(0.114875 0.000613337 -0.000159788)
(0.118192 0.000429359 -6.42662e-05)
(0.114249 -0.000275506 0.000661104)
(0.113168 5.16188e-05 0.000315845)
(0.114926 0.00031268 0.000636537)
(0.105783 -0.000216176 0.000314248)
(0.120979 -0.000994888 0.000277624)
(0.118853 -0.00101972 0.000516102)
(0.119216 -0.000869868 0.000388858)
(0.121017 -0.000930277 0.000161544)
(0.117622 -0.000299098 -0.000632059)
(0.116578 -0.000287438 -0.000271659)
(0.115836 -0.000150256 -0.000262097)
(0.105448 0.000113578 -0.000279106)
(0.120165 0.000290908 -0.000154931)
(0.119236 0.000224481 -0.000177544)
(0.119737 -0.000427243 -0.00016022)
(0.115358 0.000102879 -0.000357015)
(0.116522 -0.000447737 -0.00047487)
(0.11647 -0.000447055 -0.000603338)
(0.11912 -0.000505544 -0.000599661)
(0.120384 0.000109769 -0.000579904)
(0.120208 0.000171708 -0.000579417)
(0.119249 0.000167907 -0.000531363)
(0.113687 0.000425217 -0.000678955)
(0.115763 -5.68438e-05 6.68962e-05)
(0.114071 -0.000409537 0.000107964)
(0.115012 -0.000525589 0.000438617)
(0.105583 -0.000402987 -2.2035e-05)
(0.120059 0.000506811 0.000212873)
(0.116236 0.000418982 -0.000319013)
(0.116018 -0.0001806 -4.47538e-05)
(0.119641 -0.000715167 -7.87705e-05)
(0.116195 -0.000486756 2.79854e-05)
(0.119402 -0.000588729 0.000264353)
(0.120778 0.000108233 7.64064e-05)
(0.119542 1.6381e-05 -0.000147687)
(0.120648 2.17869e-05 -0.000169473)
(0.120093 8.99824e-05 0.00019782)
(0.120218 -0.000261472 -2.87641e-05)
(0.114538 -0.000279707 7.68992e-05)
(0.119081 -0.000399579 -0.000200088)
(0.119504 -9.98479e-05 -0.000433322)
(0.120768 -2.1689e-05 -0.000236307)
(0.119445 -0.000272092 -0.000101129)
(0.119835 -0.000344221 0.000301969)
(0.121346 -0.000195459 0.000197073)
(0.122005 -0.000352013 0.000148082)
(0.120254 1.04385e-05 -0.000573602)
(0.120168 -4.7899e-05 -0.000513498)
(0.122164 4.58209e-05 -0.000626781)
(0.11885 0.000236028 -0.000480929)
(0.120524 0.000172305 -0.000332383)
(0.120858 -0.000148201 -0.00067206)
(0.117471 -0.000742221 -0.000242816)
(0.121655 0.000163272 -0.000635979)
(0.119607 -0.000386928 0.000261305)
(0.121213 0.000104419 0.000401939)
(0.121119 -3.50544e-05 0.000179661)
(0.121279 -0.000290307 0.000188685)
(0.119549 7.70539e-05 0.000100185)
(0.1203 -0.000163977 0.000223204)
(0.113501 -4.83837e-05 4.13122e-05)
(0.114835 -9.84393e-05 -0.000558975)
(0.114895 -0.000302818 -0.000285052)
(0.1155 -0.000672183 -0.000321293)
(0.118567 -0.000594079 -0.00035213)
(0.118954 -0.000495938 -0.000374606)
(0.119828 -0.000391864 0.000145049)
(0.119577 -0.00031525 -5.07063e-05)
(0.121683 -0.000236438 -0.000302126)
(0.121675 -0.000232299 2.7167e-05)
(0.120966 -6.35654e-05 -0.000277504)
(0.119471 -0.000286061 -0.000412298)
(0.119116 0.000155702 -0.00018143)
(0.120901 0.000281525 -6.23609e-05)
(0.120694 0.000331306 -0.000394997)
(0.121952 2.61959e-05 -0.000660082)
(0.121133 0.000129387 -0.000207173)
(0.121872 -0.000107678 -0.000606162)
(0.120774 -0.000421677 -4.26037e-05)
(0.119899 -0.000198386 -4.08276e-05)
(0.118741 -0.000844048 0.000177036)
(0.121191 -0.000592433 6.07449e-05)
(0.12046 -0.000150196 5.50692e-05)
(0.117172 -0.00015933 -0.00034027)
(0.121223 -0.000146172 -1.3191e-05)
(0.116972 6.62261e-05 -0.000657614)
(0.121352 -7.31325e-05 -3.21242e-05)
(0.12212 -0.000191065 -0.000406673)
(0.121009 -3.43742e-05 -0.000264618)
(0.120775 -1.89652e-05 0.00024996)
(0.113945 -1.64899e-05 -9.88691e-05)
(0.114353 -0.00022471 -0.000431054)
(0.106797 -0.000101197 -0.000285783)
(0.114888 -0.000594989 -0.000819715)
(0.105469 -0.000324785 -0.000204567)
(0.122164 0.000213221 0.000699587)
(0.120314 0.000231014 0.000204166)
(0.119191 -0.000485776 -0.000429885)
(0.113906 -0.00032206 -0.000316914)
(0.120458 -0.000121563 -0.000753304)
(0.120184 -0.000154938 -0.000549227)
(0.119042 -0.000286879 -0.000311797)
(0.113412 -0.000255808 -0.000379267)
(0.121811 0.000327617 0.000644747)
(0.121863 0.000122042 0.000670295)
(0.121955 0.000194404 0.000590927)
(0.121023 0.000325077 0.000635389)
(0.120246 0.000609969 0.000297578)
(0.120336 0.000374592 0.000218815)
(0.121529 0.000457921 0.000246034)
(0.114064 -0.00020086 -0.00037984)
(0.115751 -8.71932e-05 -0.000219651)
(0.105109 -0.000330653 -0.000419393)
(0.116623 0.000276916 -0.000347819)
(0.115506 -9.19423e-05 -0.000285329)
(0.114838 0.000273678 -0.000363922)
(0.105928 -6.22351e-05 -0.00068805)
(0.121544 -9.84231e-05 5.80089e-05)
(0.120028 -0.000246583 -0.000397877)
(0.121596 -0.000394633 -0.000109792)
(0.118765 -8.05469e-05 -0.000269517)
(0.120512 -0.0002256 -0.000362709)
(0.115313 -0.000308428 -0.000506968)
(0.115932 -0.00021014 -0.000616224)
(0.105867 -0.00035355 -0.000384603)
(0.116683 -0.000319195 -0.00014154)
(0.114603 -6.30402e-05 -7.5405e-06)
(0.114218 -9.02217e-06 0.000223198)
(0.106867 -0.000115862 0.000112442)
(0.121918 -0.00059418 0.000171555)
(0.120406 -0.000403491 0.000402947)
(0.120232 -0.000387919 3.183e-05)
(0.121835 -0.000347085 -5.8128e-05)
(0.116347 -0.000109421 -0.00122366)
(0.116127 5.36271e-05 -0.000805031)
(0.118855 -0.000217118 -0.000814607)
(0.106215 -0.000251473 -0.00109133)
(0.118897 0.000224819 0.000205051)
(0.119347 -0.000421074 0.000236119)
(0.11929 -0.000140966 0.000254287)
(0.114068 -0.000230911 0.00029186)
(0.116692 -0.000553031 -0.000420264)
(0.11971 -0.000275162 -0.000613414)
(0.119538 -3.2985e-05 -0.000773395)
(0.120154 -0.000119828 -8.95652e-05)
(0.121797 -0.000170425 8.04176e-05)
(0.12088 4.25759e-05 0.000350011)
(0.117266 0.000222644 -0.00107069)
(0.115006 0.000424297 -0.000756951)
(0.116762 0.000831097 -0.000815428)
(0.104683 -0.000307929 -0.000822377)
(0.12294 -6.79651e-05 6.28312e-05)
(0.122739 -0.000201984 1.35203e-05)
(0.121147 1.61051e-05 -3.64669e-05)
(0.122779 3.09826e-05 2.23421e-05)
(0.120976 -8.93621e-05 -0.000461068)
(0.11848 -0.000144867 -0.000309784)
(0.118009 -2.35452e-06 -0.000653631)
(0.120733 -0.000230018 -0.000196988)
(0.11741 -0.000989409 -0.000361397)
(0.117755 -0.0008991 -6.8263e-05)
(0.105989 -0.000316593 -0.000495198)
(0.11631 -0.000653341 0.000880501)
(0.115167 -0.000271252 0.000842053)
(0.116852 -0.000563086 0.000606841)
(0.104696 5.13876e-05 0.000168801)
(0.119281 -0.000325699 -3.92955e-05)
(0.11469 -0.000295397 4.51016e-06)
(0.116831 -0.000300649 -0.000724562)
(0.122697 -0.000169146 -0.000207384)
(0.121279 -0.000151843 -0.000317648)
(0.115023 0.000254487 0.000265462)
(0.11422 0.000123659 0.000249371)
(0.116025 -0.000144844 -0.0001166)
(0.104944 -0.000134818 0.000192995)
(0.117238 -0.000196751 -0.000813928)
(0.117073 0.000346331 -0.000540065)
(0.106061 -0.000388798 -0.000910123)
(0.114413 -0.000187321 0.000276578)
(0.116778 -6.97196e-05 0.000279643)
(0.114714 -0.000469843 8.60049e-05)
(0.106355 -0.000265862 9.90751e-05)
(0.11451 -0.000960302 -0.000303056)
(0.117069 -0.000733091 0.000287679)
(0.115575 -0.00102964 -0.000194459)
(0.104451 -0.0005516 -0.000324756)
(0.117177 0.000349086 -0.000497065)
(0.118547 0.000175309 9.62876e-06)
(0.11888 -5.68741e-05 -0.000291968)
(0.112918 0.000129271 -0.000192783)
(0.115411 0.000363635 0.000139724)
(0.114653 0.000232604 0.000281323)
(0.106315 5.95923e-05 0.000209761)
(0.12155 -0.000561802 1.9718e-05)
(0.12114 -0.000392403 0.00014253)
(0.121905 -0.000496441 -1.20177e-05)
(0.121508 -0.000470573 0.000185021)
(0.120331 -0.000312088 0.000229163)
(0.120477 -0.000225884 3.4157e-05)
(0.12219 -0.000314784 0.000264796)
(0.122459 -0.000317821 0.000271502)
(0.113396 0.000175287 -0.00101962)
(0.113505 0.000118935 -0.000405358)
(0.1154 0.000198722 -0.000648457)
(0.107059 -0.000236961 -0.00050906)
(0.115982 -0.000391064 0.000510891)
(0.116512 -0.00123668 -3.09677e-05)
(0.116671 -0.000599465 0.000202614)
(0.109045 -0.000472098 8.10309e-05)
(0.118112 0.000890766 -0.000211599)
(0.119808 0.00054924 -0.000422503)
(0.119831 0.000494969 -0.000632134)
(0.114773 0.000216668 -0.000694013)
(0.116467 1.77023e-05 9.36498e-05)
(0.114119 -6.9897e-05 -6.2039e-05)
(0.113527 -0.000236171 -0.000207375)
(0.10635 0.000140411 -8.72516e-05)
(0.120535 -4.13062e-05 0.000447032)
(0.11483 4.84879e-05 -4.27234e-06)
(0.12061 -0.00045634 -0.000375148)
(0.121824 -8.59776e-05 -0.000391678)
(0.120997 -0.000112325 -0.000223474)
(0.120901 -9.5617e-05 -0.000260716)
(0.119249 0.00040569 7.44999e-05)
(0.118138 0.0003448 0.000193096)
(0.114498 0.000460263 0.00031126)
(0.121221 0.000190328 -7.80966e-06)
(0.120358 0.000235245 0.000392865)
(0.121057 0.000153706 0.0003329)
(0.121033 0.000304304 0.0003384)
(0.120968 -0.000129281 -5.71216e-05)
(0.120865 -0.000412553 -0.000129374)
(0.114233 -0.000270402 -0.000131809)
(0.11932 -0.000184158 -0.000233605)
(0.118175 -0.000304691 5.28555e-07)
(0.119291 -0.000324805 9.20633e-05)
(0.112463 -9.1087e-05 -0.000300181)
(0.119412 -1.40928e-05 -3.60688e-05)
(0.119712 0.000261161 7.23313e-05)
(0.113868 0.000172497 0.000180414)
(0.115842 -0.000491632 0.000607542)
(0.119245 -0.000478643 0.00041052)
(0.11944 -0.000735264 0.000576151)
(0.117542 8.86342e-06 0.000222653)
(0.119008 -0.000334116 -0.000107133)
(0.119155 -0.000269224 9.53966e-05)
(0.11368 -9.73952e-05 0.000227693)
(0.115906 0.000398556 -0.000133417)
(0.113383 0.00028735 -0.000481202)
(0.105262 0.000882564 -0.000478386)
(0.120495 -0.000142951 -5.20973e-05)
(0.121808 -7.56859e-05 -0.000139005)
(0.122338 0.000445296 -0.000211022)
(0.118927 -0.000151248 0.000286246)
(0.119374 -0.000136564 0.000496204)
(0.112736 -0.00045352 0.000636971)
(0.120767 0.000305032 0.000109795)
(0.121526 -2.74574e-05 0.000102381)
(0.121394 0.00025577 -6.13902e-05)
(0.121569 0.000286479 -3.42414e-05)
(0.115998 -5.74548e-05 -0.000112461)
(0.116711 -0.00014898 0.000152514)
(0.116166 -0.000365807 -6.93589e-06)
(0.10514 0.000113444 7.27127e-05)
(0.114274 3.2063e-05 0.000382112)
(0.11411 -0.000195403 0.00036252)
(0.115438 -0.000101154 0.000578721)
(0.105538 -0.000261109 0.000333471)
(0.12032 -0.00028623 -0.000272815)
(0.121163 -0.000186306 0.000219369)
(0.121997 -0.000372225 5.78825e-06)
(0.121696 -6.36483e-05 0.000201555)
(0.120347 -0.000369577 -0.00034579)
(0.1215 2.44931e-06 -0.000444278)
(0.119947 0.000127889 -0.000352722)
(0.117953 -0.000210981 0.00069793)
(0.119995 -0.000262418 0.000156513)
(0.119591 -0.000162349 0.000307417)
(0.118445 -0.000230498 0.000713348)
(0.118631 -0.000128057 0.000177235)
(0.120167 -0.000371766 5.87559e-05)
(0.114192 -0.000110523 0.00028622)
(0.120534 -0.000257638 -0.000643834)
(0.120681 9.35153e-06 -0.000538266)
(0.118748 -7.2364e-05 -0.000284174)
(0.113853 0.000186063 -0.000524432)
(0.119913 -9.93506e-05 -0.000724601)
(0.116639 -0.000182921 -0.000688065)
(0.119794 0.000105995 -0.00058107)
(0.116488 0.00028679 0.000290826)
(0.119739 0.000417324 0.000432413)
(0.117318 0.000160618 0.000631787)
(0.120098 0.000293792 0.000292785)
(0.121531 0.000182357 -0.000519734)
(0.119064 0.000348883 -0.000530217)
(0.119619 -9.21906e-05 -0.000759584)
(0.116536 -2.32598e-05 -3.37034e-05)
(0.106021 -0.000147436 -0.000308684)
(0.116048 3.00068e-05 -6.19093e-05)
(0.118979 -0.000179687 -8.03252e-05)
(0.122027 0.000283365 6.71504e-05)
(0.121829 -2.91908e-05 4.89006e-05)
(0.121348 0.000117758 0.000243958)
(0.121909 2.5375e-05 0.000339611)
(0.120825 -0.000502262 3.89333e-05)
(0.120877 -0.00060774 -0.000100459)
(0.120662 -0.000485227 -3.65421e-05)
(0.120873 -0.000527414 -0.000229187)
(0.120925 -0.000488662 0.000148813)
(0.120655 -0.000585267 0.000130214)
(0.118952 -0.000499153 0.000342983)
(0.117871 -0.0011972 4.42251e-05)
(0.120036 -0.0011814 -0.000268863)
(0.119265 -0.00104139 -0.000511855)
(0.117981 -0.000107591 -0.000272664)
(0.117847 0.000214865 -0.000501181)
(0.114034 4.39476e-05 0.000214885)
(0.120718 0.000142866 -0.000431243)
(0.114767 -0.000128871 -0.000342203)
(0.11787 0.000572764 -0.000450264)
(0.118028 0.000604155 -0.000631934)
(0.11911 0.000166783 -0.000468636)
(0.113371 -4.77269e-05 -0.00042435)
(0.121519 0.000189946 -0.000323167)
(0.120019 0.000314257 -0.000351425)
(0.120613 0.000103983 -0.000507293)
(0.106137 2.14792e-05 -0.000171858)
(0.119097 0.000113049 -0.000228863)
(0.114468 -0.000104478 -0.000119245)
(0.116825 0.000170589 -0.000107469)
(0.119451 0.000201898 0.000229743)
(0.116503 0.000236687 -0.000138517)
(0.119733 0.000494788 2.49289e-06)
(0.11998 4.08664e-05 -0.000276387)
(0.119458 3.95408e-05 -0.000409495)
(0.119004 6.61742e-05 -7.49833e-05)
(0.115237 0.000254896 -0.00035532)
(0.121694 -7.87624e-05 -0.000399065)
(0.120184 -0.000175962 -0.000563582)
(0.121244 -0.000273106 -0.000554418)
(0.11994 -0.000429575 -0.000413017)
(0.119652 -0.00057958 -0.00040806)
(0.121559 -0.00042677 -0.000246801)
(0.120699 -0.000452917 -0.000123583)
(0.121274 0.000162282 -0.000409344)
(0.121522 -0.000112117 -0.000315773)
(0.115343 -0.000663382 -0.000426427)
(0.116322 -0.000872936 -0.000461614)
(0.105205 -6.87248e-05 -0.000393277)
(0.118536 -0.000658606 0.000309752)
(0.119689 -0.000354114 3.14459e-05)
(0.121731 -0.000360277 -0.00017577)
(0.11961 -0.000184034 -0.000254709)
(0.121885 -0.000394409 -0.000177654)
(0.121425 -5.15154e-05 0.00018071)
(0.121221 7.26265e-05 -0.000108915)
(0.120555 0.000261975 0.000234827)
(0.117202 -0.000254459 -0.00047753)
(0.120816 -0.000282949 -0.000583921)
(0.112162 0.000167206 0.000154332)
(0.114094 -0.000262317 0.000659581)
(0.113784 -0.000423331 0.000294552)
(0.103735 -0.000474907 0.000363615)
(0.120351 -0.000406727 3.86285e-06)
(0.119575 -0.000474325 0.000284064)
(0.115101 -0.000381708 0.000821468)
(0.114082 -0.00098876 -0.000344795)
(0.106501 -0.000521779 -0.000210965)
(0.118849 0.000340761 -0.000167995)
(0.11907 0.000466032 0.000187149)
(0.103101 0.000132291 -0.000217201)
(0.119785 -0.000212789 0.000335918)
(0.121836 -0.000362671 0.000315122)
(0.114854 -0.000354523 0.00027691)
(0.117348 0.00031258 0.000297611)
(0.11805 -0.000330929 4.71423e-05)
(0.115555 0.000460582 -0.000224177)
(0.115678 0.000202513 -0.000276737)
(0.116094 0.000380413 -0.000556945)
(0.105069 3.11143e-05 -0.000114912)
(0.119654 -6.77036e-05 0.000132571)
(0.119034 -2.08525e-06 0.0001386)
(0.11855 -3.07196e-06 0.000210572)
(0.120457 0.000672764 -0.000276776)
(0.121283 0.000716774 -0.000243853)
(0.118574 8.45808e-05 -0.000185285)
(0.11939 3.27299e-05 -0.000335858)
(0.121424 -0.000584094 -0.000193352)
(0.12103 4.64219e-05 0.000258938)
(0.116408 -0.000517129 -2.88997e-05)
(0.116192 -0.000263307 -0.000103406)
(0.104464 -0.000287728 0.000109397)
(0.114995 -0.000886003 0.000184702)
(0.113725 -0.00058785 0.000542516)
(0.106106 -0.000567812 0.000152978)
(0.120746 -0.000642295 0.000326212)
(0.119122 -0.000152418 0.00051107)
(0.120156 -0.000472912 0.000579797)
(0.118926 -0.000305262 8.40225e-05)
(0.121173 0.000156374 -0.000634761)
(0.121952 3.61295e-05 -0.000609604)
(0.119873 0.000182353 -0.000449564)
(0.115728 0.000488414 0.000112572)
(0.116504 0.000160191 4.57666e-05)
(0.104341 0.000306818 -0.000452359)
(0.121336 -0.00065001 0.000105344)
(0.121276 -0.000690832 0.0003342)
(0.12109 -0.000494019 0.000276068)
(0.118112 -7.6187e-05 -0.000212391)
(0.115975 0.000104202 -0.00048176)
(0.106342 -2.39195e-05 -0.000379652)
(0.114279 -0.000225325 0.000215819)
(0.114265 -0.000493243 8.8458e-05)
(0.106824 -0.000291213 -4.42122e-05)
(0.118693 0.000215284 -0.000414963)
(0.118348 0.000180807 -0.000317467)
(0.119759 0.00030288 -0.000134216)
(0.114173 -0.000210164 -0.000338002)
(0.119075 -0.000314994 -0.000289452)
(0.120816 -0.000461257 5.96367e-05)
(0.118872 -0.000272416 0.000435679)
(0.120295 -0.000325048 5.32619e-05)
(0.117343 -0.00109193 0.000268571)
(0.118943 -0.000847559 4.47534e-05)
(0.11909 -0.000792229 -6.90009e-05)
(0.112423 -0.000822773 -0.000151405)
(0.114511 -0.000303278 0.000561003)
(0.118154 4.01568e-05 0.000527389)