/*--------------------------------*- C++ -*----------------------------------*\
| =========                 |                                                 |
| \\      /  F ield         | OpenFOAM: The Open Source CFD Toolbox           |
|  \\    /   O peration     | Version:  2212                                  |
|   \\  /    A nd           | Website:  www.openfoam.com                      |
|    \\/     M anipulation  |                                                 |
\*---------------------------------------------------------------------------*/
FoamFile
{
    version     2.0;
    format      ascii;
    arch        "LSB;label=32;scalar=64";
    class       volScalarField;
    location    "0.062";
    object      epsilon;
}
// * * * * * * * * * * * * * * * * * * * * * * * * * * * * * * * * * * * * * //

dimensions      [0 2 -3 0 0 0 0];

internalField   nonuniform List<scalar> 
31639
(
0.186161
0.187788
0.188513
0.181676
0.191267
0.192178
0.196602
0.187726
0.188118
0.183497
0.185563
0.183847
0.186098
0.182261
0.188126
0.198785
0.187259
0.194324
0.195091
0.190054
0.211432
0.184723
0.183253
0.194569
0.199609
0.189083
0.189391
0.153792
0.195199
0.183934
0.182706
0.196422
0.181656
0.198726
0.207083
0.183885
0.213525
0.183179
0.183821
0.222638
0.205042
0.210146
0.182843
0.186052
0.186703
0.183254
0.189501
0.191567
0.185872
0.182063
0.183545
0.216633
0.183287
0.216272
0.192553
0.189319
0.212792
0.188707
0.187441
0.210053
0.187835
0.187452
0.20134
0.190275
0.186017
0.181726
0.187371
0.187126
0.205497
0.181902
0.183631
0.190637
0.183487
0.187758
0.183416
0.208558
0.182782
0.193338
0.187598
0.185746
0.199539
0.223013
0.183177
0.186229
0.184314
0.183755
0.182259
0.18252
0.203424
0.182088
0.187038
0.189838
0.208528
0.188377
0.198425
0.189787
0.189613
0.187824
0.187061
0.210696
0.183069
0.184096
0.187415
0.211012
0.209238
0.18282
0.212845
0.217309
0.19878
0.215588
0.18346
0.210787
0.190171
0.19404
0.186748
0.21547
0.192903
0.194139
0.187268
0.188078
0.186106
0.183939
0.183642
0.187268
0.190194
0.184034
0.188572
0.198625
0.199776
0.183158
0.181412
0.182778
0.183429
0.194918
0.185069
0.186894
0.208906
0.213388
0.183468
0.187623
0.18797
0.183282
0.183611
0.212923
0.218923
0.183149
0.184804
0.208444
0.208117
0.183216
0.204361
0.190751
0.195188
0.185999
0.20835
0.182165
0.189432
0.207439
0.207513
0.196397
0.183119
0.209353
0.203486
0.213593
0.213248
0.187804
0.209825
0.183285
0.183863
0.209753
0.189404
0.190927
0.208814
0.186208
0.182151
0.184778
0.186861
0.183716
0.186329
0.186139
0.188605
0.192848
0.188843
0.219367
0.190119
0.18271
0.187486
0.182981
0.212359
0.21251
0.185855
0.185768
0.186665
0.188451
0.187712
0.194026
0.194953
0.183099
0.210214
0.192946
0.18441
0.183301
0.183471
0.183625
0.192498
0.188223
0.189331
0.187627
0.184796
0.22013
0.188609
0.193694
0.186728
0.185021
0.189541
0.182485
0.20818
0.19726
0.186781
0.184351
0.183704
0.191945
0.210387
0.193713
0.211153
0.194257
0.185541
0.200207
0.208795
0.18726
0.185815
0.183159
0.206104
0.214803
0.187248
0.185485
0.210426
0.182633
0.203329
0.212339
0.188371
0.186885
0.189006
0.200463
0.20167
0.188181
0.187729
0.188918
0.20885
0.18796
0.188691
0.210336
0.200381
0.183748
0.185209
0.195489
0.207671
0.184155
0.184951
0.19546
0.181482
0.182853
0.189822
0.183383
0.188855
0.193884
0.210377
0.196479
0.181924
0.18885
0.176001
0.196594
0.191081
0.188212
0.182051
0.19143
0.210861
0.193288
0.201305
0.183577
0.192747
0.18393
0.182706
0.194289
0.207515
0.205169
0.207241
0.216552
0.183296
0.203908
0.188327
0.188475
0.196187
0.205762
0.183848
0.195935
0.203608
0.184731
0.190098
0.203619
0.188595
0.204161
0.188142
0.188612
0.209767
0.193591
0.18965
0.219225
0.215501
0.183394
0.182243
0.176239
0.211699
0.208499
0.183982
0.203687
0.199402
0.184037
0.186056
0.18915
0.18439
0.182121
0.207598
0.182519
0.215579
0.216765
0.186509
0.183657
0.183299
0.182257
0.185571
0.205057
0.187051
0.188138
0.184319
0.184347
0.181468
0.188683
0.190059
0.187748
0.18364
0.185584
0.188669
0.190381
0.187864
0.1911
0.186195
0.188563
0.208336
0.189911
0.182317
0.193259
0.185735
0.182465
0.188673
0.210176
0.18878
0.188511
0.211983
0.184848
0.206525
0.189324
0.178254
0.217824
0.188262
0.188942
0.209635
0.188352
0.20678
0.190984
0.184033
0.188932
0.216308
0.186899
0.206115
0.186895
0.183179
0.18468
0.186304
0.206464
0.18413
0.211351
0.188565
0.216092
0.182482
0.183383
0.182782
0.18272
0.197159
0.18616
0.187908
0.187077
0.188704
0.211142
0.189841
0.185372
0.184517
0.184861
0.189349
0.183815
0.192622
0.209309
0.193672
0.186307
0.184947
0.21707
0.183095
0.183431
0.188785
0.184756
0.183761
0.191075
0.182837
0.200491
0.186665
0.184228
0.214417
0.189142
0.18709
0.206715
0.210786
0.210475
0.197471
0.213293
0.18994
0.180638
0.196663
0.185924
0.209976
0.184077
0.182431
0.18826
0.185046
0.192983
0.184413
0.1899
0.192852
0.182183
0.1873
0.209934
0.188267
0.183974
0.183068
0.186588
0.182656
0.189568
0.186136
0.186128
0.18386
0.186321
0.208157
0.190364
0.21793
0.198456
0.188595
0.211787
0.217428
0.195208
0.185214
0.184488
0.209593
0.186334
0.198461
0.187974
0.186592
0.173901
0.188652
0.217211
0.188846
0.183069
0.183026
0.184772
0.19311
0.210701
0.187452
0.186977
0.183725
0.214427
0.210665
0.188506
0.211186
0.205475
0.18774
0.214593
0.193124
0.203017
0.187752
0.209921
0.182307
0.184096
0.183627
0.183546
0.202505
0.183128
0.183515
0.187819
0.185597
0.187121
0.18286
0.187396
0.198137
0.184415
0.182787
0.188021
0.196219
0.182131
0.187924
0.21694
0.217741
0.188187
0.185078
0.182318
0.190134
0.186577
0.187766
0.184096
0.188067
0.193623
0.191519
0.207048
0.188332
0.189239
0.182981
0.205626
0.203038
0.203986
0.18984
0.188254
0.216531
0.187385
0.198636
0.185936
0.191359
0.183365
0.192397
0.208238
0.185631
0.181693
0.203412
0.18401
0.177102
0.180435
0.189344
0.154241
0.204135
0.188145
0.188289
0.206981
0.208206
0.187902
0.187176
0.186091
0.203884
0.192047
0.183422
0.18857
0.209256
0.201167
0.187585
0.182667
0.211109
0.218349
0.185178
0.21249
0.186698
0.182962
0.210895
0.187639
0.186944
0.193053
0.214665
0.182952
0.192886
0.20622
0.182893
0.186385
0.189085
0.184399
0.216897
0.197283
0.189438
0.195327
0.203939
0.195741
0.189037
0.183079
0.184871
0.184439
0.182864
0.184447
0.199648
0.183865
0.184483
0.184906
0.202734
0.187799
0.189554
0.182551
0.207208
0.217113
0.181998
0.201835
0.181652
0.189994
0.207226
0.189039
0.183552
0.191136
0.187295
0.210344
0.183881
0.187196
0.21703
0.183508
0.184409
0.161341
0.209393
0.209242
0.196571
0.18684
0.188622
0.190119
0.18735
0.18395
0.188812
0.190026
0.209927
0.181786
0.215027
0.187198
0.194195
0.188838
0.18291
0.186896
0.201993
0.212452
0.211191
0.193396
0.183114
0.20099
0.18213
0.194115
0.183245
0.209202
0.190085
0.185686
0.180995
0.183425
0.182984
0.186728
0.190228
0.18234
0.183181
0.184231
0.202595
0.18378
0.20795
0.184511
0.191605
0.189279
0.205933
0.189658
0.216832
0.182571
0.191516
0.18406
0.188346
0.190098
0.206441
0.174023
0.211112
0.221618
0.208772
0.206328
0.209115
0.190872
0.215354
0.182712
0.188467
0.218367
0.184152
0.208419
0.195696
0.188788
0.194133
0.186701
0.182138
0.180686
0.184839
0.19091
0.186091
0.195357
0.193747
0.212068
0.189371
0.18264
0.188937
0.185128
0.184069
0.210482
0.183865
0.184053
0.184137
0.183845
0.184202
0.18683
0.182916
0.182483
0.18954
0.184519
0.184425
0.206771
0.184125
0.19552
0.188754
0.188985
0.187318
0.197878
0.184179
0.188662
0.18878
0.193746
0.207784
0.182372
0.188642
0.196659
0.211271
0.183985
0.211823
0.18201
0.186303
0.189525
0.188231
0.182286
0.186219
0.212627
0.186572
0.195367
0.191606
0.204611
0.183261
0.184071
0.190563
0.189335
0.188855
0.187589
0.194993
0.190857
0.214829
0.183544
0.18723
0.18238
0.204281
0.187523
0.186583
0.189733
0.198049
0.185348
0.183788
0.190523
0.212654
0.213774
0.189068
0.213527
0.202042
0.189019
0.187559
0.182345
0.213933
0.188175
0.182826
0.205228
0.209422
0.185506
0.205611
0.1899
0.205718
0.185729
0.200781
0.196735
0.183198
0.213501
0.189699
0.189511
0.184312
0.184498
0.181921
0.209335
0.18385
0.185296
0.196319
0.182387
0.184789
0.188174
0.177
0.18725
0.184408
0.182779
0.184038
0.185187
0.193577
0.187359
0.187472
0.207882
0.189501
0.188063
0.183623
0.18647
0.190708
0.182478
0.183968
0.186349
0.18486
0.183288
0.184382
0.187076
0.210135
0.192761
0.183936
0.219592
0.189794
0.190071
0.193964
0.190331
0.18241
0.184814
0.183047
0.19056
0.185525
0.187446
0.185768
0.187754
0.19558
0.209311
0.184262
0.212412
0.192031
0.193011
0.190358
0.187274
0.181763
0.210423
0.184784
0.206351
0.185799
0.197089
0.189468
0.189806
0.182318
0.209481
0.183892
0.183375
0.187706
0.18975
0.190056
0.216018
0.183578
0.185588
0.186925
0.182874
0.182771
0.186127
0.191018
0.184225
0.20456
0.192944
0.182604
0.209745
0.202333
0.183964
0.182802
0.196141
0.193961
0.192133
0.198347
0.188818
0.201488
0.184061
0.185336
0.219688
0.188446
0.181861
0.186307
0.187934
0.186773
0.183408
0.205627
0.205526
0.181237
0.183488
0.187342
0.204268
0.184183
0.184271
0.203472
0.185458
0.183103
0.183558
0.187461
0.183669
0.190002
0.185571
0.187231
0.195181
0.208694
0.18694
0.186715
0.20388
0.182498
0.21321
0.190624
0.191803
0.20925
0.191199
0.194745
0.185639
0.190178
0.185728
0.211772
0.212809
0.192198
0.209228
0.190141
0.182748
0.189327
0.183512
0.195258
0.187943
0.185588
0.195397
0.191718
0.187478
0.188724
0.189124
0.206679
0.188844
0.18679
0.181664
0.182596
0.213673
0.210343
0.189018
0.18237
0.201031
0.191026
0.189266
0.187821
0.183345
0.19228
0.189545
0.189251
0.208639
0.183758
0.187487
0.207264
0.199059
0.186951
0.19537
0.18347
0.184268
0.190317
0.207177
0.183304
0.209301
0.191818
0.187565
0.200031
0.185687
0.213233
0.188145
0.185721
0.190357
0.216958
0.209936
0.182176
0.184693
0.195812
0.182134
0.18841
0.188253
0.212099
0.206058
0.189911
0.189892
0.189505
0.183465
0.181483
0.184869
0.181692
0.188422
0.189455
0.184357
0.212537
0.186521
0.185326
0.186697
0.189055
0.185391
0.194376
0.182526
0.1906
0.215732
0.182985
0.201624
0.183563
0.195012
0.182092
0.209027
0.185073
0.182847
0.190392
0.187713
0.213471
0.183049
0.184073
0.183235
0.210121
0.181643
0.190432
0.183665
0.186096
0.184946
0.184787
0.187491
0.195322
0.185597
0.208155
0.208848
0.209611
0.200363
0.18766
0.211621
0.182859
0.18447
0.187505
0.191481
0.188345
0.188784
0.18509
0.188482
0.194987
0.183729
0.189417
0.197181
0.182774
0.186952
0.19027
0.185131
0.197674
0.184451
0.183884
0.182131
0.1847
0.184946
0.19681
0.183534
0.190362
0.188893
0.18861
0.188083
0.182157
0.187919
0.184654
0.193884
0.189995
0.186536
0.207168
0.215013
0.185114
0.197592
0.185878
0.196294
0.212037
0.189333
0.184265
0.201848
0.195713
0.187572
0.182594
0.183775
0.189976
0.205246
0.188859
0.188557
0.194858
0.188407
0.188706
0.217038
0.198225
0.197483
0.188187
0.186568
0.189313
0.185943
0.187625
0.188851
0.189288
0.203198
0.198077
0.21882
0.188189
0.187956
0.18481
0.182753
0.181842
0.209958
0.187507
0.194436
0.188644
0.18695
0.18399
0.21163
0.180793
0.208509
0.187262
0.189068
0.189772
0.185536
0.194719
0.188787
0.20318
0.189818
0.193488
0.186653
0.19523
0.208081
0.183212
0.185709
0.188091
0.184625
0.18471
0.207636
0.194976
0.190182
0.204648
0.183614
0.185867
0.182446
0.182226
0.18228
0.209587
0.212306
0.206947
0.182944
0.21319
0.183495
0.187071
0.206166
0.195342
0.185527
0.183847
0.198506
0.195229
0.189241
0.187172
0.184817
0.18922
0.203954
0.189155
0.186366
0.185197
0.186316
0.182995
0.182433
0.182836
0.187352
0.208965
0.21334
0.188729
0.197703
0.186481
0.214722
0.185776
0.190024
0.18199
0.207517
0.188572
0.185804
0.188982
0.195796
0.208774
0.184477
0.201919
0.187419
0.189899
0.181949
0.181114
0.188233
0.214699
0.210829
0.190086
0.190827
0.194688
0.185271
0.212891
0.176319
0.184567
0.19655
0.185458
0.180088
0.185589
0.182401
0.184051
0.187792
0.187166
0.214004
0.195129
0.183111
0.208641
0.185893
0.191127
0.203253
0.187815
0.16693
0.188839
0.184198
0.184176
0.212502
0.190392
0.188671
0.209013
0.194932
0.188924
0.193519
0.185656
0.206496
0.207606
0.189344
0.193689
0.181391
0.182891
0.182373
0.188573
0.187921
0.187089
0.18715
0.182789
0.203456
0.187963
0.191139
0.18363
0.187028
0.195544
0.191314
0.185722
0.21066
0.189463
0.18429
0.190211
0.2224
0.18965
0.211913
0.186976
0.217015
0.185184
0.183439
0.18718
0.187188
0.20361
0.20727
0.184533
0.185548
0.186274
0.187984
0.195184
0.183424
0.184979
0.183886
0.210769
0.198286
0.184717
0.18509
0.189749
0.189161
0.210268
0.184802
0.183663
0.186474
0.187265
0.18677
0.188194
0.183002
0.185387
0.206202
0.188537
0.185956
0.188807
0.189219
0.186596
0.217858
0.201489
0.183429
0.186191
0.186031
0.184956
0.18575
0.182954
0.187803
0.19016
0.184871
0.18389
0.197098
0.192439
0.189548
0.188185
0.184154
0.215392
0.188351
0.209661
0.183883
0.210429
0.207526
0.187565
0.213846
0.195587
0.186912
0.183354
0.183169
0.196458
0.192463
0.180895
0.202294
0.205278
0.195188
0.199422
0.183359
0.186201
0.188081
0.211443
0.186378
0.183912
0.182721
0.207871
0.205168
0.189978
0.187071
0.185458
0.201286
0.207563
0.190945
0.194846
0.182417
0.185337
0.21351
0.186709
0.185391
0.206529
0.216348
0.183863
0.201485
0.202426
0.18208
0.185814
0.182592
0.182301
0.185861
0.194265
0.183856
0.197112
0.18241
0.196949
0.18179
0.184829
0.188547
0.208014
0.182628
0.181386
0.192182
0.189369
0.188669
0.202476
0.161719
0.186842
0.193046
0.18159
0.194067
0.178922
0.209318
0.184919
0.183832
0.212502
0.184167
0.189692
0.218513
0.208866
0.188279
0.1872
0.185268
0.195861
0.206409
0.183534
0.183699
0.184435
0.18679
0.181487
0.209971
0.184639
0.189068
0.208795
0.208331
0.223189
0.20438
0.18395
0.195523
0.18861
0.184559
0.197738
0.195976
0.215295
0.21504
0.182889
0.182983
0.206462
0.184923
0.187143
0.208508
0.190623
0.191058
0.204299
0.192502
0.180931
0.204932
0.215703
0.181931
0.184472
0.200828
0.186094
0.198318
0.201622
0.208328
0.185397
0.204805
0.210526
0.189136
0.183053
0.189784
0.188207
0.184759
0.1892
0.181067
0.166426
0.185867
0.207454
0.182378
0.184847
0.188206
0.196145
0.186876
0.204608
0.185535
0.188898
0.194569
0.210401
0.213249
0.21937
0.195341
0.209565
0.191545
0.205054
0.193622
0.183072
0.185048
0.192897
0.187197
0.18718
0.191036
0.183437
0.21431
0.187789
0.182297
0.18218
0.188749
0.181804
0.202356
0.188691
0.189937
0.210389
0.187634
0.181838
0.184026
0.178769
0.184611
0.18855
0.216488
0.210601
0.189301
0.182543
0.189265
0.182943
0.19623
0.193306
0.204558
0.212683
0.212124
0.215696
0.185396
0.187977
0.179387
0.189034
0.194044
0.183843
0.216234
0.184013
0.186258
0.184155
0.190519
0.188735
0.183814
0.183261
0.184652
0.170532
0.190303
0.184479
0.182138
0.184941
0.183753
0.186514
0.182994
0.185426
0.198123
0.185362
0.185619
0.184109
0.185116
0.212097
0.182585
0.184578
0.185165
0.182759
0.208842
0.218387
0.188916
0.185436
0.197142
0.184232
0.182417
0.181467
0.181745
0.1956
0.186525
0.189852
0.185085
0.214116
0.213567
0.191306
0.187166
0.205331
0.183988
0.208314
0.192583
0.189258
0.187272
0.193484
0.181299
0.18762
0.186573
0.186757
0.186089
0.187608
0.195928
0.216582
0.183452
0.222637
0.220148
0.16622
0.209387
0.213604
0.191126
0.189284
0.20751
0.195708
0.221148
0.206148
0.185969
0.186082
0.212417
0.212353
0.183411
0.212132
0.187072
0.182543
0.191416
0.184163
0.204578
0.208695
0.191877
0.184777
0.202569
0.207712
0.19103
0.198256
0.187828
0.188208
0.211016
0.184537
0.212667
0.212491
0.192912
0.184531
0.197061
0.194771
0.193399
0.182957
0.215703
0.20442
0.190323
0.176831
0.185698
0.214745
0.21839
0.193371
0.18072
0.187996
0.190401
0.190183
0.186436
0.18699
0.206505
0.182662
0.197011
0.208063
0.217689
0.183127
0.187839
0.182675
0.186434
0.184091
0.208933
0.193116
0.215321
0.224898
0.188787
0.208287
0.197315
0.188087
0.168355
0.209592
0.183189
0.184672
0.182315
0.186471
0.225275
0.18694
0.210829
0.183949
0.211984
0.182955
0.219128
0.188759
0.190996
0.198095
0.194934
0.216991
0.198806
0.18743
0.184015
0.185643
0.184943
0.184019
0.210103
0.183146
0.158236
0.187639
0.186027
0.184719
0.185922
0.177602
0.184626
0.193131
0.196657
0.19657
0.184139
0.183825
0.196628
0.200417
0.186725
0.191391
0.184823
0.178547
0.18732
0.190218
0.18962
0.182703
0.183533
0.183961
0.191544
0.184689
0.186983
0.175056
0.187161
0.195055
0.18572
0.189974
0.181739
0.204882
0.205982
0.18787
0.178495
0.180598
0.175395
0.183567
0.187563
0.184539
0.205192
0.195989
0.183575
0.18441
0.183429
0.182506
0.19475
0.181402
0.207181
0.182524
0.196237
0.188091
0.193516
0.188265
0.186442
0.184048
0.208962
0.184457
0.181104
0.189904
0.206373
0.183084
0.18242
0.184111
0.187809
0.187781
0.186902
0.209111
0.182071
0.193593
0.187985
0.200179
0.197556
0.204607
0.212645
0.196132
0.183927
0.189937
0.205728
0.191458
0.210325
0.1894
0.189047
0.216901
0.208287
0.199025
0.188801
0.186699
0.194629
0.169493
0.192477
0.169629
0.200159
0.182012
0.183096
0.184556
0.173522
0.189436
0.213449
0.205454
0.185475
0.196864
0.192862
0.184202
0.181843
0.186455
0.180365
0.213337
0.17668
0.182973
0.192505
0.180455
0.180281
0.187634
0.180715
0.18223
0.196029
0.206505
0.189946
0.211446
0.215929
0.191313
0.188903
0.188691
0.187852
0.187711
0.186709
0.218902
0.195552
0.179878
0.184506
0.21261
0.192074
0.200844
0.188399
0.18315
0.194451
0.186041
0.184251
0.185468
0.212765
0.184162
0.211791
0.181197
0.183634
0.185857
0.181103
0.186993
0.181615
0.209331
0.177684
0.183573
0.198935
0.184955
0.190115
0.194882
0.1849
0.190575
0.184324
0.183086
0.180518
0.187288
0.182408
0.191017
0.182346
0.204477
0.189732
0.210379
0.210111
0.188652
0.188079
0.188577
0.184735
0.178465
0.183311
0.212209
0.185989
0.182872
0.188271
0.181979
0.208235
0.214958
0.189127
0.214953
0.182792
0.186338
0.216635
0.191381
0.185053
0.189395
0.210663
0.201624
0.214538
0.183481
0.214842
0.185042
0.18752
0.213687
0.185313
0.184254
0.18374
0.182179
0.20194
0.183419
0.184622
0.202514
0.186119
0.182821
0.187222
0.206025
0.178505
0.188861
0.182489
0.194326
0.186871
0.193116
0.193612
0.194908
0.193816
0.176889
0.184618
0.183715
0.20035
0.189305
0.186618
0.181388
0.18611
0.215749
0.18169
0.202997
0.18624
0.182781
0.180143
0.195319
0.186916
0.186408
0.188225
0.186938
0.191687
0.209771
0.207785
0.188864
0.183853
0.170476
0.195661
0.182714
0.207379
0.186991
0.2109
0.184497
0.183245
0.184893
0.209889
0.183951
0.208607
0.186767
0.1875
0.200214
0.18654
0.201869
0.197171
0.185662
0.209216
0.196944
0.189524
0.218095
0.188148
0.184301
0.218238
0.196928
0.176703
0.191122
0.189133
0.183154
0.184959
0.181849
0.198229
0.212993
0.216767
0.151305
0.182055
0.174273
0.184146
0.185249
0.206352
0.206506
0.188329
0.186777
0.215717
0.186862
0.185657
0.196246
0.183693
0.190986
0.180269
0.203105
0.191874
0.184663
0.22302
0.18189
0.174102
0.184048
0.182526
0.183356
0.188557
0.212096
0.18371
0.186004
0.185579
0.183656
0.17869
0.181466
0.185606
0.187118
0.181761
0.189176
0.185877
0.20794
0.19096
0.181916
0.172695
0.183585
0.188177
0.188678
0.182279
0.207239
0.183638
0.208172
0.184851
0.185889
0.192054
0.18501
0.194591
0.190682
0.182015
0.191743
0.174046
0.169367
0.184978
0.213193
0.188156
0.188162
0.198141
0.183067
0.187859
0.18393
0.18283
0.210257
0.183718
0.184074
0.182325
0.190075
0.188213
0.214798
0.204597
0.177828
0.208728
0.185276
0.184962
0.204331
0.189094
0.180853
0.196995
0.198089
0.199963
0.193963
0.191667
0.178462
0.194819
0.181179
0.174354
0.183897
0.212976
0.185605
0.183619
0.182149
0.206975
0.19849
0.189881
0.155246
0.207424
0.18788
0.190876
0.184025
0.177594
0.184058
0.184771
0.18977
0.184274
0.187803
0.193432
0.195358
0.18317
0.184783
0.189052
0.177156
0.180858
0.203744
0.210611
0.19
0.163383
0.187112
0.182917
0.185375
0.181799
0.185213
0.175999
0.18524
0.180638
0.202076
0.191616
0.193156
0.180523
0.185601
0.181511
0.184942
0.188906
0.191583
0.185542
0.186686
0.187255
0.182151
0.187347
0.196543
0.196294
0.204922
0.192232
0.185715
0.205583
0.183322
0.191222
0.18329
0.188563
0.183789
0.186518
0.175643
0.175394
0.187497
0.188172
0.182697
0.196306
0.210854
0.187174
0.191116
0.186013
0.188037
0.188246
0.182872
0.188472
0.213755
0.197529
0.20962
0.186372
0.189475
0.207059
0.182731
0.191285
0.194017
0.185921
0.201142
0.204565
0.182194
0.202553
0.207894
0.155062
0.162541
0.185329
0.200215
0.184716
0.184795
0.197261
0.185545
0.180247
0.177751
0.183566
0.212633
0.183273
0.165688
0.179813
0.203529
0.201991
0.182288
0.212693
0.195303
0.190676
0.183998
0.181385
0.18125
0.192696
0.19022
0.17172
0.188849
0.188023
0.183761
0.191556
0.206199
0.175744
0.188588
0.17917
0.152782
0.205151
0.187948
0.211774
0.2089
0.188088
0.182283
0.194872
0.190019
0.183025
0.180271
0.1857
0.180032
0.215974
0.180819
0.210966
0.184261
0.208618
0.186897
0.181018
0.182658
0.207945
0.192548
0.182709
0.183211
0.18732
0.179294
0.19065
0.184221
0.188924
0.207762
0.188192
0.197127
0.176464
0.179173
0.184021
0.190866
0.182217
0.191052
0.195667
0.208751
0.181219
0.181218
0.216712
0.184784
0.188449
0.186245
0.206961
0.187453
0.192723
0.18715
0.171415
0.193902
0.188037
0.220636
0.186503
0.211425
0.207644
0.189536
0.184642
0.214571
0.185287
0.185879
0.158905
0.216228
0.178377
0.182534
0.21961
0.189927
0.220776
0.212538
0.184125
0.183139
0.190347
0.175608
0.184571
0.187978
0.194962
0.176916
0.18902
0.189186
0.192628
0.179023
0.20585
0.173514
0.192182
0.193135
0.184452
0.181516
0.189054
0.183381
0.190773
0.180741
0.184344
0.191689
0.188868
0.184231
0.190335
0.189522
0.183583
0.184472
0.186516
0.167716
0.173774
0.179372
0.190445
0.198194
0.176388
0.177924
0.19901
0.186979
0.171387
0.20847
0.206501
0.179357
0.184641
0.190544
0.184646
0.182828
0.201848
0.185601
0.186402
0.202697
0.194617
0.209712
0.177049
0.187822
0.187924
0.182506
0.209644
0.189358
0.187644
0.18367
0.18026
0.160219
0.188531
0.184938
0.183997
0.174324
0.18696
0.166804
0.180432
0.181581
0.198983
0.216972
0.196486
0.178829
0.184974
0.202511
0.19834
0.184889
0.185415
0.189061
0.194837
0.220287
0.199002
0.198907
0.188548
0.191131
0.189372
0.184008
0.180473
0.166282
0.184742
0.181241
0.188787
0.195737
0.184907
0.173106
0.206613
0.19654
0.187917
0.165828
0.169777
0.185845
0.188922
0.181179
0.213023
0.192516
0.187436
0.173994
0.174531
0.178757
0.181676
0.184309
0.182062
0.188197
0.192401
0.179041
0.181968
0.183724
0.185083
0.181767
0.18069
0.206468
0.197376
0.214249
0.190258
0.169122
0.192774
0.20521
0.185167
0.197982
0.199254
0.191581
0.179786
0.190138
0.176196
0.187901
0.190588
0.179214
0.205943
0.179492
0.203161
0.185455
0.176117
0.189651
0.189282
0.182179
0.175766
0.20219
0.202205
0.193432
0.193524
0.189914
0.162279
0.18607
0.193694
0.180962
0.190413
0.19612
0.197039
0.163138
0.182503
0.188017
0.219694
0.208578
0.194949
0.176919
0.182482
0.203828
0.162316
0.181243
0.211102
0.184001
0.185871
0.183083
0.210986
0.183509
0.203252
0.201664
0.207379
0.179884
0.1896
0.190169
0.184442
0.185452
0.187428
0.20711
0.220732
0.184143
0.190221
0.185573
0.177996
0.205166
0.181233
0.194091
0.169351
0.188411
0.196311
0.19759
0.183898
0.18098
0.199975
0.206163
0.172575
0.177497
0.179829
0.194007
0.203831
0.207845
0.182479
0.186182
0.175185
0.178184
0.194105
0.186888
0.18042
0.173879
0.189419
0.180467
0.192972
0.186638
0.175674
0.183008
0.192938
0.172352
0.186468
0.175604
0.169682
0.18015
0.182004
0.190859
0.177735
0.181429
0.164805
0.203358
0.206099
0.183151
0.200333
0.194388
0.187195
0.170814
0.183591
0.17075
0.207295
0.205179
0.183551
0.159385
0.183307
0.20915
0.197705
0.185588
0.205956
0.18582
0.195244
0.217481
0.190003
0.181607
0.18366
0.184673
0.181705
0.182977
0.182972
0.181552
0.1835
0.189843
0.178573
0.195154
0.182245
0.177957
0.185337
0.183947
0.186444
0.169643
0.185294
0.184705
0.188244
0.196113
0.190023
0.213992
0.179254
0.185955
0.185441
0.183173
0.172777
0.189633
0.213122
0.184617
0.193077
0.195103
0.167774
0.209402
0.181696
0.190893
0.183007
0.185071
0.171794
0.207906
0.191052
0.176387
0.203144
0.176197
0.179571
0.168297
0.189383
0.199312
0.197157
0.170996
0.166718
0.168835
0.203253
0.19102
0.168487
0.182413
0.209122
0.187
0.178478
0.177924
0.171519
0.186232
0.174503
0.191336
0.188193
0.176675
0.17638
0.199625
0.19842
0.185593
0.194263
0.211209
0.162933
0.182943
0.202645
0.191962
0.20493
0.18361
0.183039
0.187389
0.157806
0.184347
0.184494
0.18717
0.182399
0.188319
0.186036
0.175975
0.191374
0.189545
0.17951
0.189597
0.195706
0.196085
0.184351
0.166596
0.1994
0.16946
0.17372
0.178131
0.170106
0.183855
0.184868
0.184377
0.18969
0.18694
0.174582
0.168623
0.150599
0.18792
0.177766
0.192332
0.195555
0.20657
0.178448
0.181991
0.183932
0.173914
0.172443
0.17703
0.181653
0.19924
0.190029
0.188153
0.16925
0.206691
0.199281
0.206849
0.172496
0.181439
0.167276
0.158572
0.18792
0.167459
0.211684
0.18694
0.209141
0.202828
0.171141
0.199478
0.199739
0.168762
0.162147
0.182799
0.210335
0.185191
0.18688
0.192309
0.178087
0.180178
0.168417
0.171629
0.208505
0.195989
0.187677
0.19253
0.181498
0.190657
0.173618
0.193486
0.187244
0.187495
0.175247
0.153829
0.153983
0.174136
0.180077
0.182431
0.189401
0.177785
0.206764
0.185059
0.19112
0.170563
0.210414
0.178635
0.174593
0.187553
0.210066
0.168696
0.183304
0.151305
0.168343
0.156247
0.184488
0.206347
0.198955
0.178341
0.198989
0.179424
0.20786
0.155669
0.183967
0.198456
0.184568
0.166485
0.217593
0.167793
0.181453
0.163511
0.185342
0.183976
0.172547
0.21723
0.174871
0.190063
0.180619
0.183645
0.18753
0.17036
0.198747
0.211051
0.1777
0.211107
0.161893
0.210669
0.201056
0.171037
0.187451
0.184939
0.190631
0.164918
0.203165
0.182694
0.169003
0.178364
0.203395
0.190905
0.180594
0.161225
0.179912
0.187617
0.182255
0.186275
0.179098
0.181253
0.203713
0.181052
0.186143
0.197787
0.158099
0.173045
0.181974
0.191181
0.185558
0.162737
0.178358
0.1735
0.173208
0.156972
0.151724
0.151204
0.18477
0.193715
0.185135
0.183042
0.199307
0.190539
0.185446
0.189865
0.179922
0.177926
0.185595
0.174526
0.185256
0.208848
0.207265
0.173167
0.185358
0.181263
0.173361
0.18897
0.179561
0.199891
0.169995
0.187548
0.173455
0.175908
0.169556
0.202448
0.16892
0.185425
0.171299
0.176928
0.164702
0.163627
0.180811
0.204175
0.164971
0.212331
0.189916
0.200082
0.157732
0.187723
0.173789
0.173277
0.173769
0.188737
0.179906
0.14836
0.176241
0.163986
0.186965
0.194341
0.188826
0.170997
0.184424
0.183188
0.181052
0.166462
0.174768
0.179471
0.175352
0.157169
0.154406
0.184707
0.164196
0.161008
0.170307
0.180641
0.18357
0.175876
0.164415
0.165457
0.190848
0.173698
0.162446
0.151626
0.179197
0.172825
0.192285
0.200263
0.184036
0.19358
0.174977
0.174538
0.167849
0.152171
0.151174
0.183466
0.196558
0.176778
0.185103
0.180883
0.179627
0.174664
0.161221
0.166852
0.205853
0.179707
0.195238
0.159437
0.18521
0.18602
0.20385
0.204677
0.173236
0.164022
0.164916
0.192436
0.177837
0.183754
0.184252
0.165318
0.166215
0.214204
0.166551
0.149722
0.165478
0.176055
0.167826
0.1784
0.166271
0.176557
0.176665
0.152961
0.198391
0.197512
0.179584
0.178734
0.167999
0.176118
0.181245
0.165897
0.20696
0.169047
0.185059
0.196149
0.172867
0.173091
0.185363
0.175569
0.176188
0.183285
0.19498
0.176011
0.182268
0.168011
0.172367
0.16198
0.170951
0.183634
0.177276
0.175632
0.176785
0.189686
0.166363
0.159788
0.161917
0.184785
0.201272
0.155804
0.175327
0.192705
0.189757
0.190358
0.202986
0.160362
0.172187
0.167789
0.16271
0.188649
0.198082
0.194096
0.197078
0.176776
0.18215
0.174807
0.187675
0.169711
0.163147
0.180068
0.159309
0.204292
0.173375
0.177405
0.169339
0.169575
0.199696
0.165432
0.159434
0.166817
0.162962
0.190499
0.179887
0.169856
0.158195
0.169925
0.157522
0.181577
0.189878
0.190769
0.183749
0.171432
0.190049
0.187594
0.205541
0.175132
0.18238
0.165878
0.182508
0.173378
0.167966
0.171113
0.20532
0.167952
0.183161
0.16863
0.180725
0.149089
0.15319
0.165436
0.179211
0.168613
0.162222
0.172958
0.192794
0.183229
0.177456
0.175669
0.189176
0.1821
0.181109
0.161146
0.167226
0.184117
0.163565
0.197075
0.168225
0.156498
0.189623
0.166695
0.17981
0.170375
0.165096
0.164352
0.159889
0.197204
0.196063
0.184562
0.17107
0.167695
0.168801
0.167104
0.178513
0.166515
0.181433
0.166568
0.192396
0.157208
0.192947
0.16932
0.166305
0.186642
0.184548
0.171971
0.175479
0.152575
0.166857
0.168115
0.157203
0.168832
0.181127
0.198859
0.192688
0.188813
0.172626
0.172824
0.165791
0.163951
0.177338
0.18075
0.201789
0.176944
0.175828
0.187988
0.161302
0.167788
0.201318
0.197201
0.209416
0.183649
0.152171
0.160668
0.208091
0.180895
0.165388
0.181572
0.199621
0.205743
0.169252
0.169328
0.183731
0.160863
0.148912
0.189774
0.150046
0.19194
0.166933
0.157693
0.180594
0.164865
0.191886
0.187574
0.156075
0.155888
0.182726
0.160422
0.171288
0.156212
0.163622
0.171673
0.193279
0.161014
0.172394
0.195002
0.173124
0.171362
0.159611
0.182383
0.17427
0.171094
0.16117
0.168914
0.177638
0.180701
0.170069
0.195343
0.169197
0.18448
0.156516
0.171844
0.165616
0.188819
0.172399
0.186785
0.201623
0.171261
0.196478
0.185059
0.174709
0.181713
0.161108
0.166397
0.17435
0.174555
0.184522
0.169506
0.166849
0.182577
0.166776
0.163238
0.157465
0.170893
0.171353
0.189274
0.155374
0.173635
0.185691
0.160582
0.158219
0.191059
0.159683
0.172404
0.171442
0.169818
0.150308
0.153199
0.170136
0.164238
0.181102
0.170045
0.178643
0.156695
0.174542
0.180939
0.170913
0.160418
0.173746
0.197615
0.174512
0.170721
0.190661
0.14956
0.153415
0.177066
0.147007
0.201342
0.178994
0.177325
0.180521
0.171738
0.160521
0.198531
0.183983
0.157428
0.186107
0.178659
0.16795
0.176594
0.165722
0.162082
0.168064
0.182235
0.197875
0.158006
0.188663
0.175102
0.158163
0.20559
0.160578
0.154271
0.159675
0.167244
0.170109
0.168473
0.178371
0.180754
0.183244
0.163236
0.164578
0.159305
0.189148
0.162745
0.148667
0.162026
0.161789
0.15695
0.175721
0.163885
0.181419
0.191382
0.171104
0.188817
0.174126
0.185009
0.180478
0.172093
0.196968
0.186723
0.158676
0.158178
0.17506
0.151329
0.147252
0.155359
0.180542
0.152451
0.148839
0.170181
0.181526
0.181723
0.183153
0.161237
0.152576
0.171141
0.167401
0.158447
0.180329
0.164087
0.184422
0.15974
0.154338
0.158019
0.156484
0.208868
0.16744
0.179598
0.180671
0.178804
0.169743
0.160966
0.176499
0.156433
0.166953
0.18425
0.160045
0.182057
0.150493
0.148737
0.174753
0.165161
0.166687
0.163726
0.178588
0.174534
0.19487
0.206612
0.188989
0.156421
0.148853
0.164563
0.165563
0.15023
0.149571
0.153033
0.168092
0.176234
0.185819
0.177861
0.169301
0.184416
0.148328
0.162155
0.16724
0.181779
0.177743
0.159073
0.166828
0.16697
0.179714
0.188764
0.160198
0.162065
0.182674
0.196708
0.190476
0.167454