/*--------------------------------*- C++ -*----------------------------------*\
| =========                 |                                                 |
| \\      /  F ield         | OpenFOAM: The Open Source CFD Toolbox           |
|  \\    /   O peration     | Version:  2212                                  |
|   \\  /    A nd           | Website:  www.openfoam.com                      |
|    \\/     M anipulation  |                                                 |
\*---------------------------------------------------------------------------*/
FoamFile
{
    version     2.0;
    format      ascii;
    arch        "LSB;label=32;scalar=64";
    class       volScalarField;
    location    "0.062";
    object      k;
}
// * * * * * * * * * * * * * * * * * * * * * * * * * * * * * * * * * * * * * //

dimensions      [0 2 -2 0 0 0 0];

internalField   nonuniform List<scalar> 
31639
(
0.00756261
0.00748489
0.00754755
0.00778592
0.00751837
0.00744105
0.00737175
0.00761927
0.00751944
0.00770297
0.00767117
0.00769685
0.00753311
0.00772477
0.00736664
0.00727199
0.00761869
0.00740533
0.00720237
0.00758526
0.00687304
0.00772044
0.00772709
0.00719272
0.00719157
0.00749839
0.00754104
0.00617826
0.00737149
0.00776776
0.0077007
0.00732629
0.00773218
0.00716267
0.00704066
0.00774993
0.00665186
0.00787227
0.00774641
0.00666914
0.00697353
0.00707581
0.00766793
0.00771046
0.00765446
0.00770102
0.00740413
0.0073858
0.00760459
0.0077623
0.00770084
0.00666857
0.00773426
0.00684644
0.00732633
0.00757055
0.00688156
0.00754826
0.00744771
0.00688784
0.00748372
0.0077157
0.00725863
0.00754633
0.00752302
0.00777569
0.00744503
0.00750473
0.00717938
0.00775392
0.00767686
0.00724966
0.00762912
0.00754535
0.00765678
0.00708713
0.00764927
0.00737457
0.00735423
0.00757735
0.00725014
0.00660364
0.00774817
0.00756166
0.00755524
0.0076824
0.00774303
0.0077205
0.00711491
0.00778283
0.00755932
0.00756324
0.0069129
0.00739784
0.00708611
0.00744724
0.00735699
0.00752173
0.00754421
0.00693479
0.0076933
0.00764074
0.00739285
0.00684344
0.00686974
0.00771196
0.0068894
0.00674677
0.00708046
0.00686023
0.00764942
0.00696101
0.00744282
0.00730149
0.00751039
0.00681634
0.00745813
0.00751845
0.00760627
0.00745222
0.00767455
0.00765985
0.00766092
0.00752217
0.00756859
0.00772625
0.0075261
0.00712167
0.00702013
0.00762026
0.00767046
0.00766467
0.00771825
0.00739593
0.00765963
0.00749744
0.00688973
0.00676465
0.00765214
0.00751767
0.00751427
0.00766685
0.00769588
0.00679424
0.0067118
0.00771581
0.00759435
0.00699342
0.00700369
0.00766205
0.00722202
0.00771005
0.00721999
0.00759837
0.00714711
0.00777207
0.00747773
0.00710621
0.0070661
0.00721339
0.0077366
0.00717423
0.0072449
0.00691097
0.00699422
0.00743675
0.00714294
0.00779086
0.00768925
0.00680506
0.00739191
0.00729167
0.00701415
0.00749761
0.00778444
0.0075611
0.00754452
0.00778049
0.0074987
0.00750189
0.00738053
0.00740528
0.00733516
0.00669662
0.00755122
0.00782912
0.00750299
0.0077677
0.00699637
0.00700051
0.00797193
0.00765998
0.00763534
0.00746936
0.00753945
0.0073982
0.00738107
0.00763404
0.00685708
0.00735608
0.00774345
0.00779887
0.00765943
0.00758907
0.00748507
0.00742791
0.0074483
0.00730946
0.00774529
0.00669639
0.00748057
0.00740539
0.00758462
0.00768927
0.00776917
0.00773384
0.00702379
0.00725655
0.00774074
0.00759472
0.00757099
0.00748954
0.00685707
0.00748693
0.00691043
0.00736035
0.00767568
0.00732001
0.00701409
0.00760942
0.0075655
0.00780661
0.00711331
0.00702074
0.00759323
0.00760352
0.00684341
0.00776521
0.00724889
0.00686778
0.00739477
0.00760233
0.00748043
0.00732862
0.00729231
0.00763681
0.00738604
0.00734294
0.00702432
0.0074484
0.00735835
0.00707926
0.00734894
0.00778722
0.0076411
0.00735366
0.00708003
0.00762085
0.00765746
0.00764472
0.00775852
0.00771247
0.00747473
0.00772527
0.00738742
0.00742373
0.00676514
0.00718846
0.00772205
0.00735024
0.00735786
0.00732074
0.00751609
0.00790195
0.00779731
0.00765684
0.00693853
0.0074262
0.0072012
0.00771779
0.00746095
0.00779998
0.00774892
0.007381
0.00698021
0.00727512
0.00710785
0.0069496
0.00771426
0.00712845
0.00764579
0.00743025
0.0072708
0.00708771
0.00785443
0.00735075
0.00744944
0.0077106
0.00755344
0.0072852
0.00740497
0.00717629
0.00751588
0.00742268
0.00702712
0.00729907
0.00732682
0.00654054
0.00674394
0.00771437
0.00771902
0.00741883
0.00684747
0.00715309
0.00763334
0.00714847
0.00701964
0.00774288
0.00790297
0.00743935
0.00770476
0.0077559
0.00704803
0.00764979
0.00685113
0.00686184
0.00782831
0.00771681
0.00772662
0.00779007
0.00765744
0.00707936
0.00746354
0.00743664
0.00773602
0.00782133
0.00781082
0.00743672
0.00732543
0.00768819
0.00761492
0.00751962
0.0074146
0.00740263
0.0073826
0.00747869
0.0075471
0.00743589
0.00705108
0.00756659
0.00775377
0.00735762
0.00767852
0.00775495
0.00748639
0.00702801
0.00747347
0.00745211
0.0068457
0.00792918
0.00716124
0.00757028
0.00751702
0.00681708
0.00748982
0.00747932
0.00694211
0.00750308
0.00707011
0.0074852
0.00775092
0.00764084
0.0067567
0.00753139
0.00707708
0.00754688
0.0076947
0.00777584
0.0077659
0.0071549
0.007664
0.00689039
0.0073939
0.0069012
0.00775285
0.00765379
0.00771667
0.00768051
0.00713339
0.00779328
0.0074524
0.00764649
0.00743826
0.00726844
0.00743995
0.00759484
0.00761556
0.00762785
0.00750292
0.00760231
0.00740941
0.00709791
0.00747554
0.00755654
0.00759887
0.00678228
0.00769899
0.00770327
0.00743612
0.00755257
0.00759142
0.00754752
0.00776351
0.00671547
0.0075574
0.00770905
0.00678179
0.00746503
0.00758603
0.0071001
0.00693003
0.00691067
0.00733569
0.00696106
0.00745045
0.00722554
0.00732571
0.00777123
0.0069862
0.00765743
0.00773567
0.00747843
0.0076843
0.00735168
0.00774557
0.00745723
0.0076016
0.0077812
0.0074506
0.00698934
0.00750568
0.00770307
0.00769027
0.00762174
0.00771962
0.00740435
0.00752497
0.00769756
0.00779665
0.00770122
0.0070528
0.00745976
0.00666755
0.00754628
0.00741423
0.00700788
0.00699647
0.00731634
0.00763927
0.00766217
0.00693613
0.00764144
0.00731055
0.00744761
0.00765259
0.00625121
0.00743182
0.00688297
0.00736392
0.00770597
0.00775707
0.00766923
0.00745453
0.00681037
0.00762105
0.00750837
0.00757151
0.00689197
0.00708796
0.0074506
0.00695116
0.00706479
0.00748044
0.00687023
0.0073737
0.00667447
0.00762886
0.00700753
0.00777012
0.00769295
0.00766176
0.007716
0.00733409
0.00763884
0.00770869
0.00748022
0.00767586
0.00749928
0.00765852
0.00778841
0.00730462
0.00770036
0.00771985
0.00746031
0.00720877
0.00777996
0.007506
0.00678134
0.00686562
0.00748372
0.00783627
0.00772564
0.00750754
0.00792248
0.00783838
0.00761063
0.00752637
0.00738917
0.00732845
0.0070646
0.00748629
0.00761714
0.00775359
0.00727341
0.00718583
0.00711651
0.00740069
0.00742267
0.00669307
0.00759532
0.00730615
0.00758872
0.00747105
0.00769559
0.00746853
0.00709594
0.00762336
0.00772091
0.00719274
0.00766977
0.00762014
0.007228
0.00746907
0.00618899
0.0071468
0.00745811
0.00750005
0.00710768
0.00704766
0.00750547
0.00688026
0.00758943
0.00726326
0.00740134
0.00772248
0.00746479
0.00684631
0.00736249
0.00750785
0.00773336
0.00700753
0.00662886
0.00769682
0.0068943
0.00753721
0.00779918
0.00706285
0.00745823
0.00772727
0.00752944
0.00700495
0.00768386
0.00753422
0.00693578
0.00765069
0.0075242
0.0074386
0.00756795
0.00677999
0.0071949
0.00764894
0.00732829
0.00750852
0.00749467
0.00777578
0.00765514
0.00757434
0.00769562
0.00774294
0.00763423
0.00717216
0.00766599
0.00773248
0.00779736
0.00719255
0.00751426
0.00750784
0.00789612
0.00712833
0.00675156
0.00773873
0.00705852
0.00784301
0.00740691
0.0070397
0.0075142
0.00770686
0.0076372
0.00755499
0.00677519
0.00758334
0.00745998
0.00684124
0.0077255
0.00768035
0.00629488
0.00699947
0.00721249
0.00730816
0.00756479
0.00753939
0.0074908
0.00748604
0.00771526
0.00747855
0.00746205
0.00704426
0.00779205
0.00689244
0.00745195
0.00740254
0.00715965
0.00777773
0.00745871
0.00719774
0.00690227
0.00699041
0.00737952
0.00769392
0.00714321
0.00776666
0.00754847
0.00769641
0.00704985
0.00738277
0.0076376
0.00777964
0.00776104
0.00764335
0.0074938
0.0075103
0.00776102
0.0077735
0.00770851
0.0072557
0.0076863
0.00702322
0.0077506
0.00761572
0.00749136
0.00712709
0.00742854
0.00662456
0.00774504
0.00758589
0.00781957
0.00742374
0.00727106
0.00694794
0.00748359
0.00688172
0.00681179
0.00708556
0.00736232
0.00700365
0.00747173
0.00694657
0.00768013
0.00758369
0.00678983
0.00777289
0.00711922
0.00713057
0.00737887
0.00725305
0.00761828
0.00774962
0.0077793
0.00767482
0.00745808
0.00753608
0.00737962
0.00736101
0.00690921
0.00567394
0.00775992
0.00742007
0.00761756
0.00769658
0.00695197
0.00772143
0.00772003
0.00764898
0.00766118
0.00761545
0.00755377
0.00780358
0.00781313
0.00753571
0.00769633
0.00767894
0.00712459
0.00770659
0.00724411
0.00757259
0.00730518
0.00741429
0.00722184
0.00781556
0.00744922
0.00751444
0.00746659
0.00717932
0.00779439
0.00753702
0.00734758
0.00712001
0.00763821
0.0068435
0.0077002
0.00762572
0.00727506
0.00772368
0.00783772
0.00772538
0.00691065
0.0075455
0.00747356
0.00755539
0.00707898
0.00770494
0.0076993
0.0073657
0.00750351
0.00734654
0.00763609
0.00728579
0.00741023
0.00686913
0.00764645
0.00756069
0.00761671
0.00733202
0.00746744
0.00759165
0.00750966
0.007318
0.00767126
0.00765561
0.00744007
0.00684908
0.00681727
0.00745951
0.0066547
0.00693856
0.00754049
0.00755543
0.00768828
0.00681755
0.00743291
0.0077413
0.00716891
0.00687065
0.00751245
0.00707375
0.00762625
0.00720765
0.00769107
0.00720585
0.00729093
0.00779776
0.00682365
0.00735161
0.00741641
0.0076831
0.00776234
0.00772053
0.00712227
0.00757756
0.00774374
0.00731207
0.00776782
0.00770566
0.00755835
0.00750824
0.00751117
0.00778237
0.00784509
0.00779635
0.0076078
0.00727523
0.00762053
0.0074821
0.00684797
0.00738714
0.00770095
0.00771897
0.00779204
0.00748112
0.00773241
0.0077264
0.00734078
0.00769961
0.00767093
0.00755696
0.00768883
0.00697524
0.00734705
0.00758211
0.0067669
0.00754855
0.007436
0.00745118
0.0074103
0.00778711
0.00762191
0.00768731
0.00735035
0.00762664
0.00747849
0.00776112
0.00754748
0.00739637
0.00708753
0.00770722
0.00721348
0.00738807
0.00745125
0.00742629
0.00755084
0.007758
0.00702563
0.0077228
0.00709481
0.00759436
0.00736156
0.00739616
0.00744575
0.00772176
0.00695753
0.0075883
0.00771983
0.00776989
0.00758905
0.00744272
0.00670067
0.00764687
0.00769563
0.00754587
0.00763004
0.00770261
0.00757458
0.007717
0.00743637
0.00710985
0.00740504
0.00775809
0.00685553
0.00712994
0.00786977
0.0076731
0.00725422
0.00741188
0.00749671
0.00721463
0.00745455
0.00717201
0.00769783
0.00775238
0.00675109
0.00754358
0.00773146
0.00770981
0.00786604
0.00743401
0.00770022
0.00714409
0.00712225
0.0077168
0.00767037
0.00750273
0.00717063
0.0076709
0.00768448
0.00728652
0.00779573
0.00771678
0.00772975
0.00760181
0.00764937
0.00758512
0.00755366
0.00741534
0.00725622
0.00696576
0.00751107
0.00750619
0.00709987
0.00772343
0.00694059
0.00739681
0.00743162
0.00706024
0.00742813
0.00729553
0.00751398
0.00746248
0.00767787
0.0070662
0.00705653
0.00738553
0.00694805
0.00729841
0.0076817
0.0074445
0.00770988
0.00758149
0.00740313
0.00778868
0.00731111
0.007571
0.00741515
0.00742171
0.00754114
0.00710727
0.00750789
0.00766219
0.00773583
0.00779027
0.00713017
0.00694537
0.00751877
0.00769355
0.00714488
0.00736041
0.00767608
0.00743426
0.00790923
0.00740534
0.00739277
0.00767508
0.00701921
0.00769021
0.00783274
0.00710089
0.00724036
0.0074816
0.00733029
0.00777006
0.00781752
0.00766515
0.0071501
0.00768725
0.0069806
0.00740117
0.00773219
0.0073906
0.00790435
0.00682823
0.00752808
0.00756575
0.00756144
0.00689667
0.0069482
0.00765094
0.00781127
0.00733201
0.00776151
0.00760744
0.00747882
0.0070151
0.00727221
0.00760404
0.00743703
0.00748223
0.00780903
0.00775645
0.00783826
0.00777267
0.00757945
0.00756771
0.00762723
0.0071707
0.00771654
0.00761398
0.00756599
0.00757861
0.00779484
0.00746243
0.00775335
0.00740407
0.00673519
0.00782664
0.00728325
0.00767065
0.00726513
0.00771977
0.00716828
0.00760219
0.00781706
0.00741154
0.00749175
0.00686767
0.00765985
0.00768204
0.00753531
0.00695271
0.00784707
0.00741978
0.00753696
0.00772594
0.00776043
0.00767091
0.0074594
0.00752543
0.007849
0.00716765
0.00720886
0.00709641
0.00716632
0.00756215
0.0069596
0.00776879
0.00774925
0.00786709
0.00738292
0.00730849
0.00750375
0.00766327
0.00750745
0.00753358
0.00773783
0.00777513
0.00751839
0.00772225
0.00757515
0.00737593
0.00755294
0.00727716
0.00775263
0.00773852
0.00779529
0.00784508
0.00769305
0.00725254
0.00783248
0.00755543
0.00750128
0.00739611
0.00760858
0.00773677
0.00747394
0.00767866
0.00735522
0.00749507
0.00757196
0.00718335
0.00693084
0.00734345
0.0074074
0.00778049
0.00726705
0.00693433
0.00754134
0.00770848
0.00728157
0.00728331
0.00751082
0.00778155
0.00766648
0.00739646
0.00733069
0.00750912
0.00772705
0.00732134
0.00743429
0.00746806
0.00692848
0.0073505
0.00739691
0.00763749
0.00768538
0.00745166
0.00771343
0.00763337
0.00746126
0.00747508
0.00700491
0.0071773
0.00695106
0.0077315
0.00759375
0.00785975
0.00797852
0.00754713
0.00693401
0.00774485
0.00732183
0.00756219
0.00757881
0.00769404
0.00696054
0.00770237
0.00706207
0.00753236
0.00747653
0.00744835
0.00787841
0.00739896
0.00764911
0.00715342
0.00740721
0.0074363
0.00774651
0.00720981
0.00730733
0.00764215
0.00766913
0.00763907
0.00765397
0.00775054
0.00712309
0.00750765
0.00735294
0.00728551
0.00762214
0.00782297
0.00778109
0.00769176
0.00782033
0.00709722
0.00708229
0.00711954
0.00769161
0.00695108
0.00770035
0.00758187
0.00703498
0.00733626
0.00766026
0.00770654
0.007261
0.00732283
0.00733541
0.00757521
0.00780826
0.00742188
0.00706073
0.00756201
0.00786656
0.00767128
0.00787306
0.00776817
0.00791293
0.00778274
0.00774604
0.00719228
0.0069308
0.00751525
0.00723782
0.00780744
0.00709223
0.00759712
0.00741673
0.00780893
0.00724454
0.00768361
0.00766508
0.00757822
0.0074562
0.00707152
0.00771609
0.00735078
0.0078415
0.00746801
0.00778556
0.00776328
0.00753406
0.00695416
0.00704561
0.00744925
0.00765204
0.00720285
0.00791601
0.00712367
0.00759986
0.00763384
0.00730294
0.00761392
0.0075998
0.00777197
0.00777722
0.00773893
0.00754637
0.00755118
0.00693215
0.00725858
0.00781809
0.00718752
0.00763918
0.00746353
0.00714153
0.00744447
0.00722487
0.00745746
0.00760042
0.00768071
0.00715991
0.00745859
0.00752703
0.00710479
0.00725873
0.00748509
0.00754872
0.00763813
0.00704506
0.00701155
0.00748011
0.0073796
0.0078258
0.00785722
0.00777908
0.00733973
0.00738263
0.00756612
0.00728806
0.00758847
0.00698089
0.00751598
0.00743456
0.00781633
0.00768679
0.00749957
0.00757961
0.00779465
0.00705771
0.00758505
0.00782389
0.00736076
0.00665082
0.00745749
0.00715915
0.00751307
0.00688829
0.00773294
0.00788563
0.00779924
0.00753075
0.00698133
0.00703452
0.00770941
0.00776996
0.00775242
0.00755377
0.00749672
0.00763748
0.00777298
0.00767674
0.00686361
0.0074523
0.00766337
0.00760466
0.00723743
0.00760068
0.0068665
0.00778927
0.00772198
0.00746768
0.00756857
0.00762324
0.00746546
0.00782992
0.00764755
0.00712793
0.00742561
0.00771199
0.00740869
0.00746524
0.00760271
0.00690724
0.00707443
0.00776435
0.0078468
0.00777436
0.00785029
0.0075714
0.00772154
0.00753764
0.00759329
0.00760802
0.00774491
0.00729469
0.00745483
0.00733024
0.00749022
0.0077031
0.00680148
0.00753889
0.00691074
0.00773309
0.00693455
0.00684432
0.00743842
0.00685344
0.00759915
0.00755343
0.00771268
0.00775437
0.00730867
0.00720179
0.00778742
0.00736049
0.00707178
0.00751593
0.00720134
0.00778355
0.00761998
0.00753792
0.0071135
0.00768157
0.00764764
0.00776269
0.00693623
0.00732644
0.00759706
0.00759307
0.00790216
0.00706682
0.00702569
0.00771592
0.00761267
0.00779112
0.00750334
0.00679867
0.007594
0.00769464
0.00695638
0.0068822
0.0077567
0.0071146
0.00713021
0.00772733
0.00783439
0.00768373
0.00787514
0.0074699
0.00737125
0.00777336
0.00718698
0.00775914
0.00729824
0.00744235
0.00771667
0.00745043
0.00696158
0.00769624
0.00769178
0.00732569
0.00748112
0.00749591
0.00727857
0.00674434
0.00750668
0.00755945
0.00767038
0.00733443
0.00748151
0.00699336
0.00767094
0.00782756
0.0068654
0.00759666
0.0076019
0.00672289
0.0069747
0.00755745
0.00747453
0.00772191
0.00739169
0.00711633
0.00767263
0.00776689
0.0077067
0.00760696
0.00777522
0.00702694
0.00778749
0.00751105
0.00710913
0.00699879
0.00661328
0.00707386
0.00756942
0.00742127
0.00762212
0.00745875
0.00714658
0.007253
0.00689671
0.00684982
0.00780438
0.00778022
0.00716893
0.00777382
0.00778149
0.00711576
0.00749082
0.00752748
0.00726791
0.00733196
0.00775323
0.00726363
0.00683369
0.0077607
0.00776245
0.00734449
0.00781224
0.00732274
0.00716416
0.00711487
0.00733806
0.00687946
0.00712016
0.00760838
0.00757469
0.00740615
0.00772955
0.0077965
0.00745261
0.00760898
0.00524546
0.00735659
0.00702606
0.00738813
0.00769121
0.00746382
0.00724266
0.00742578
0.00713086
0.00761274
0.00746366
0.00724978
0.00704623
0.00677173
0.00679301
0.00738355
0.00706652
0.00743486
0.00705826
0.00736173
0.00772982
0.00748598
0.00735717
0.00752447
0.00764371
0.00749601
0.00765456
0.00690303
0.00752123
0.00773878
0.00777989
0.0073849
0.00787337
0.00721714
0.00762146
0.00745886
0.00695431
0.00774104
0.00775843
0.00758766
0.00750595
0.00765788
0.00755807
0.00675859
0.00683136
0.00740914
0.00781816
0.00748438
0.00773687
0.00730399
0.00739134
0.00713179
0.00700653
0.00702432
0.00697221
0.00760975
0.00758663
0.00766299
0.00734796
0.00732149
0.00788493
0.00711831
0.00744513
0.00783378
0.00769924
0.00725635
0.00740292
0.007659
0.00770004
0.00772344
0.00650824
0.00759214
0.007701
0.0074753
0.00743877
0.00775958
0.0076343
0.00776974
0.00759326
0.00722405
0.00756658
0.00773044
0.00758206
0.00738287
0.00706087
0.00774311
0.00774748
0.00768151
0.00771542
0.00683514
0.00664369
0.0074055
0.00764488
0.0073647
0.00758847
0.00765641
0.00767988
0.00769064
0.00732986
0.00767062
0.00750235
0.00770067
0.00714094
0.00712543
0.00741225
0.00781639
0.00711899
0.00768829
0.00705249
0.00740815
0.0075086
0.00786487
0.00746835
0.00773463
0.00782463
0.00767259
0.00752525
0.00766196
0.00748641
0.00731418
0.00680415
0.00785751
0.00656394
0.00701963
0.00646336
0.00680959
0.00690111
0.00740207
0.00758947
0.00706311
0.00728202
0.00669596
0.00709823
0.00719513
0.00779881
0.00693263
0.0069653
0.007654
0.00693714
0.00729417
0.00750003
0.00767635
0.007337
0.00697674
0.00677786
0.00721648
0.00786798
0.00718117
0.00688809
0.00761439
0.00728696
0.0075454
0.00748584
0.0071195
0.00768534
0.0067876
0.00694952
0.00733661
0.00769688
0.00733036
0.00740539
0.00741271
0.00745322
0.00676106
0.00715454
0.00739657
0.00760672
0.00767328
0.0070028
0.00667074
0.00735595
0.00781107
0.00745115
0.0075289
0.00711823
0.00741248
0.00749117
0.00699095
0.00776613
0.00726875
0.00695432
0.0066992
0.00762491
0.00748524
0.00775185
0.0074932
0.00771724
0.00702841
0.00736422
0.00680735
0.00670418
0.00769466
0.00711073
0.00747668
0.00752219
0.00715952
0.00695496
0.00777112
0.00769751
0.00780406
0.00756194
0.00652898
0.007442
0.0067541
0.00773858
0.00708953
0.00772913
0.00669474
0.00763746
0.00762929
0.0072479
0.00727878
0.00680084
0.00722861
0.0074689
0.00761486
0.00759343
0.00780745
0.00763794
0.00710908
0.00778593
0.0066973
0.00755389
0.00760648
0.00774013
0.00768326
0.00726894
0.00780144
0.00742164
0.00729266
0.00725974
0.00750314
0.00764826
0.00721948
0.00697822
0.00776556
0.00761949
0.00737157
0.00769711
0.00758107
0.00759843
0.0076047
0.00765732
0.00764975
0.00740973
0.0074324
0.00771293
0.00764796
0.00670706
0.00747719
0.00710517
0.00780487
0.0076218
0.00774729
0.00695626
0.00695079
0.00750605
0.00750834
0.00749982
0.0075722
0.00768837
0.00742583
0.00760937
0.00706992
0.00757058
0.00737204
0.0077735
0.0076845
0.00775359
0.00756445
0.00776265
0.00725492
0.0077252
0.00716689
0.00740656
0.00732173
0.00754456
0.00740422
0.00762772
0.00688725
0.0077368
0.00757183
0.00736028
0.00698768
0.00772145
0.0075326
0.00767451
0.00742543
0.00748692
0.00770308
0.00696563
0.00773083
0.00745875
0.00751185
0.00715858
0.00723747
0.0073116
0.00693436
0.00732764
0.00787537
0.0075541
0.00664306
0.00749741
0.00692613
0.00755957
0.00761182
0.00682126
0.00685602
0.00725926
0.00751247
0.00769276
0.00730302
0.00734238
0.00744972
0.00669281
0.00734579
0.00774034
0.00768753
0.00772967
0.00742135
0.00764251
0.00707268
0.00710463
0.00785307
0.00748698
0.00760027
0.00761582
0.00777841
0.00750475
0.00748319
0.0068277
0.00750117
0.00771913
0.0072342
0.0076805
0.00762151
0.00756416
0.00708207
0.00753655
0.00736343
0.00659634
0.00758212
0.00720802
0.00700274
0.00756035
0.00749478
0.00765745
0.00766807
0.00756378
0.00786567
0.00661238
0.00728685
0.00766274
0.00776209
0.00676322
0.00761442
0.00706318
0.00718912
0.00778795
0.00713479
0.00757447
0.00783865
0.00762976
0.00677282
0.00762175
0.00707991
0.00769824
0.00761117
0.00761024
0.0077377
0.00756184
0.00768335
0.00697275
0.00753834
0.00767649
0.00701362
0.0075864
0.0075131
0.00730925
0.00768554
0.00729318
0.0077273
0.00777479
0.00777317
0.00743242
0.00762771
0.00755106
0.00757859
0.00726323
0.00719952
0.00694372
0.0068405
0.00758183
0.0076764
0.00749038
0.00781216
0.00715297
0.0077926
0.00682764
0.00784938
0.00781163
0.00767105
0.00778921
0.00723805
0.00679454
0.00743048
0.00701958
0.00774971
0.00745697
0.00685699
0.00736335
0.00788027
0.0075616
0.00695135
0.00718857
0.0068113
0.00786722
0.00697254
0.00769342
0.0071621
0.0071451
0.00774354
0.0077464
0.00774226
0.00759683
0.00679015
0.00746475
0.00775292
0.00705815
0.00782244
0.00737061
0.00786711
0.00660863
0.00753713
0.00715121
0.00745652
0.00722963
0.00737911
0.00731164
0.00716585
0.00739974
0.00742473
0.00742118
0.00733886
0.00782611
0.00700107
0.00747173
0.00742732
0.00757921
0.00777792
0.00711795
0.00767436
0.00700566
0.00742763
0.00771589
0.00761405
0.00740478
0.00758083
0.00759647
0.00714546
0.00746817
0.00738538
0.00691648
0.00691547
0.00764074
0.00766297
0.00706812
0.0073752
0.00765122
0.00703261
0.00756014
0.0071464
0.00761809
0.00779319
0.00743653
0.00699544
0.00766684
0.00682441
0.00756939
0.00781638
0.00657254
0.00792249
0.00701763
0.00734161
0.00720225
0.00700384
0.00739287
0.00728869
0.00684048
0.00775083
0.00772381
0.00654308
0.00731433
0.00743984
0.00748379
0.00761803
0.0078165
0.00768078
0.00722902
0.0071677
0.00681894
0.00675176
0.00616282
0.00777555
0.00748823
0.00758074
0.00765365
0.00697893
0.00687377
0.00742615
0.00769805
0.00684104
0.00766904
0.0074656
0.0074458
0.0075898
0.00727723
0.00754388
0.007362
0.00744339
0.00775582
0.00653923
0.00748885
0.00744123
0.00771364
0.00751003
0.00769713
0.00749739
0.00704121
0.00780948
0.00797685
0.00748547
0.00736674
0.00700647
0.00730791
0.00758026
0.00773691
0.0073648
0.00740045
0.00730492
0.00675439
0.0072506
0.00776266
0.00729232
0.00794605
0.00747163
0.00725695
0.00772968
0.00695335
0.00760128
0.00695123
0.00775949
0.00758234
0.0073008
0.00789859
0.00728348
0.00746093
0.00771939
0.00736466
0.00755087
0.00729164
0.00762525
0.00697159
0.00748396
0.00745682
0.00703387
0.00767744
0.00731616
0.00722748
0.00775017
0.00705596
0.00777747
0.00738134
0.00768691
0.00710763
0.00753377
0.00701259
0.00696499
0.00768458
0.00705358
0.00738597
0.00765444
0.00675442
0.00736483
0.00761186
0.00730141
0.00690005
0.00722138
0.00741931
0.00731277
0.00750019
0.00741123
0.00760837
0.00722443
0.0076846
0.00668225
0.00681571
0.00777502
0.00725935
0.00675173
0.00688744
0.00745861
0.00610396
0.00693498
0.00746747
0.00746633
0.00789101
0.0070772
0.00771962
0.00769969
0.00772174
0.00773475
0.0078123
0.00735904
0.00730074
0.00769059
0.00730252
0.00729341
0.00755791
0.00731272
0.00668243
0.00694988
0.00735052
0.00637466
0.00759782
0.00764128
0.00731735
0.00766995
0.00772195
0.00744911
0.00795256
0.00714182
0.00683559
0.00735413
0.0073778
0.00757663
0.00729236
0.00749734
0.00774487
0.00732642
0.00720731
0.00746497
0.00784514
0.00765455
0.00787949
0.00764039
0.00738957
0.00746926
0.00718979
0.00718172
0.00783461
0.00724218
0.00782485
0.00732658
0.00768813
0.00655432
0.00757034
0.00746956
0.00747783
0.00716143
0.00761651
0.00744402
0.00769027
0.00662059
0.00722102
0.00746945
0.00727301
0.00748967
0.00746303
0.00750988
0.00771321
0.00746889
0.00678437
0.00717462
0.00695499
0.00748451
0.00745719
0.00699838
0.0078839
0.00754962
0.00749289
0.00769475
0.00713166
0.00698699
0.00780693
0.00695946
0.00684337
0.00664835
0.00673454
0.00664166
0.00727423
0.00780663
0.00774908
0.00739415
0.00748065
0.00759175
0.00723691
0.00759937
0.00684139
0.0077343
0.00512711
0.00757913
0.00692695
0.00676823
0.00763425
0.0069577
0.0075652
0.0076051
0.0076835
0.00703922
0.00756323
0.00741548
0.00749077
0.00695016
0.00770217
0.00754639
0.00771822
0.00758467
0.00700389
0.00743359
0.00748579
0.00725417
0.00662572
0.00716856
0.00714241
0.00686937
0.00694653
0.00748772
0.0072074
0.00690748
0.00720863
0.00762048
0.00772239
0.00777546
0.00538836
0.00685028
0.00767432
0.00689238
0.00755896
0.00676544
0.00780844
0.00756524
0.00764805
0.00699116
0.00743933
0.00775154
0.0077412
0.00753074
0.00766497
0.00748847
0.00742679
0.00745322
0.00692556
0.00747226
0.00723494
0.00721985
0.00722447
0.00672658
0.00744349
0.00772773
0.00701419
0.00718722
0.00693235
0.00763578
0.00758466
0.0067715
0.00733583
0.00748285
0.00754054
0.00693604
0.00747075
0.00751759
0.00793982
0.00628718
0.00749698
0.00739781
0.00687559
0.00778091
0.00716025
0.007061
0.00754867
0.00782229
0.00690641
0.00771676
0.00756594
0.0068761
0.00683892
0.00764971
0.00777596
0.00692697
0.00754546
0.0068123
0.00721159
0.007768
0.00712649
0.00755492
0.00744432
0.00786197
0.00733278
0.00729893
0.00714684
0.007342
0.00750763
0.00725219
0.0076523
0.00698806
0.00696014
0.00752676
0.00734297
0.00767799
0.0072596
0.00768216
0.00755466
0.0075693
0.00770328
0.00758054
0.00731827
0.00701437
0.00762646
0.00740182
0.00728339
0.0075304
0.00781995
0.00764859
0.007264
0.006928
0.00749116
0.00706262
0.00673516
0.00719185
0.00733874
0.00667772
0.00757452
0.00705733
0.00642023
0.00689636
0.00748369
0.00652783
0.00735284
0.00762682
0.00745154
0.00678041
0.00747035
0.0079213
0.00696129
0.00669685
0.00707004
0.00758373
0.00745825
0.00735789
0.00765065
0.00692724
0.00768646
0.00750635
0.00779631
0.00769643
0.0052391
0.00751464
0.00752927
0.00755377
0.00717704
0.00741193
0.00649544
0.00735813
0.00777708
0.00725548
0.00682966
0.00735233
0.0076054
0.00758562
0.00670051
0.00750627
0.00769483
0.007797
0.00744668
0.00750451
0.00679449
0.00680489
0.0067877
0.00748243
0.00738848
0.00756419
0.00785976
0.00763228
0.00654712
0.00773301
0.00766704
0.00770464
0.00729678
0.0077456
0.00703782
0.0070953
0.00729794
0.00740366
0.00712006
0.00677646
0.00755015
0.00716143
0.00764537
0.00714135
0.00640339
0.00729181
0.00754915
0.00737624
0.00693551
0.00709933
0.00761557
0.00769073
0.00715615
0.00736504
0.00758464
0.00777375
0.00758807
0.0078285
0.00758023
0.00758762
0.00670401
0.00747258
0.00702675
0.00766834
0.00739737
0.0072209
0.00684271
0.00779031
0.00671109
0.00723617
0.00678814
0.00720626
0.00651555
0.00736667
0.00744149
0.007443
0.00722574
0.00717612
0.00766262
0.00692349
0.00758338
0.007191
0.0073817
0.00655195
0.00761023
0.00734866
0.00704163
0.00716709
0.00740968
0.00734372
0.00738989
0.00601222
0.00750262
0.00731093
0.00734825
0.00706601
0.00724158
0.00722495
0.00611129
0.00758814
0.00742542
0.00432639
0.00708003
0.00767351
0.00757396
0.00760925
0.007114
0.00635461
0.00769244
0.00703013
0.00767932
0.00783302
0.00736558
0.00711056
0.00774064
0.0067771
0.0065285
0.00659292
0.00744964
0.00741962
0.00711025
0.00781776
0.0076203
0.00750197
0.00708069
0.00668408
0.00784348
0.00753267
0.00788235
0.0076184
0.00683585
0.00723019
0.0073412
0.00696228
0.00742386
0.00728928
0.00746445
0.00793744
0.0073407
0.00744888
0.00699396
0.00722647
0.00717448
0.00743459
0.00732238
0.00677373
0.00700811
0.00743277
0.00760768
0.00692116
0.00749454
0.00714903
0.00765662
0.00691833
0.00697198
0.00615317
0.00771548
0.00769938
0.00755837
0.00753685
0.00724917
0.00689364
0.00683359
0.00631855
0.00734866
0.00682142
0.0073028
0.00722201
0.00758717
0.00725443
0.00760762
0.00698532
0.00444639
0.00696512
0.00764118
0.00494109
0.0074607
0.00786986
0.00728455
0.00783692
0.00689581
0.00704397
0.00701826
0.00777737
0.00586526
0.00769437
0.00699657
0.00638083
0.00768041
0.00706664
0.0077282
0.00462871
0.00668153
0.0074357
0.00760375
0.00778884
0.00757582
0.00773291
0.00759538
0.00760388
0.00771402
0.00758768
0.00745245
0.00715517
0.00612986
0.00760256
0.00714416
0.00720483
0.00768682
0.00765493
0.00737373
0.00672476
0.00779998
0.00762462
0.00733642
0.00686365
0.00683121
0.00755006
0.00763208
0.00774594
0.00764381
0.00735728
0.00754538
0.00687443
0.00758544
0.00738668
0.00761387
0.00717117
0.00686608
0.00637426
0.00733602
0.00790385
0.0076042
0.0072303
0.00706676
0.00733225
0.00688104
0.00677505
0.007544
0.00716987
0.00556815
0.00599682
0.0064154
0.00682052
0.00738537
0.00721222
0.00728281
0.00726787
0.00660001
0.00730456
0.00768771
0.00653282
0.00792154
0.00669083
0.00763576
0.00701974
0.00768229
0.00746475
0.00755128
0.00758654
0.0071447
0.0068966
0.00707475
0.0071347
0.00757634
0.00739782
0.00705724
0.00700637
0.00741366
0.00672822
0.0074107
0.00707344
0.00760974
0.007119
0.00733665
0.00559165
0.00772299
0.00778887
0.00744161
0.00763921
0.00736962
0.0073446
0.00743077
0.0075307
0.00756352
0.00767996
0.00757894
0.00671211
0.00666044
0.00791215
0.00689588
0.00668533
0.00664401
0.00734385
0.00767182
0.00732882
0.00784865
0.0078711
0.00764819
0.00765566
0.0072848
0.00687706
0.00724064
0.00623857
0.00752833
0.00732697
0.00722479
0.00727404
0.00709219
0.00726621
0.00774498
0.00659705
0.00707754
0.00729187
0.00664756
0.00762206
0.00633751
0.00653133
0.00673948
0.00740311
0.00701734
0.00676138
0.00704449
0.00684308
0.00732339
0.0062352
0.00619799
0.00726732
0.00684703
0.0065418
0.00735025
0.00682774
0.00716443
0.00724446
0.00704103
0.00675485
0.00731067
0.00694181
0.00703677
0.00671831
0.00718437
0.00707337
0.00635298
0.00761988
0.00726807
0.00729973
0.00700435
0.00697729
0.00672226
0.00738537
0.00733974
0.00769245
0.00744858
0.00745979
0.00720227
0.00748758
0.00763036
0.00746846
0.00581724
0.00609422
0.00659507
0.00756683
0.00668958
0.0075225
0.00594482
0.00709646
0.00744174
0.00698313
0.00719059
0.00718321
0.00716683
0.00721354
0.00777397
0.00699517
0.00713454
0.0077278