/*--------------------------------*- C++ -*----------------------------------*\
| =========                 |                                                 |
| \\      /  F ield         | OpenFOAM: The Open Source CFD Toolbox           |
|  \\    /   O peration     | Version:  2212                                  |
|   \\  /    A nd           | Website:  www.openfoam.com                      |
|    \\/     M anipulation  |                                                 |
\*---------------------------------------------------------------------------*/
FoamFile
{
    version     2.0;
    format      ascii;
    arch        "LSB;label=32;scalar=64";
    class       volScalarField;
    location    "0.062";
    object      nut;
}
// * * * * * * * * * * * * * * * * * * * * * * * * * * * * * * * * * * * * * //

dimensions      [0 2 -1 0 0 0 0];

internalField   nonuniform List<scalar> 
31639
(
2.765e-05
2.68502e-05
2.71966e-05
3.00307e-05
2.65981e-05
2.59303e-05
2.48769e-05
2.7832e-05
2.7051e-05
2.91024e-05
2.85413e-05
2.90009e-05
2.74442e-05
2.94659e-05
2.59617e-05
2.39422e-05
2.78972e-05
2.53984e-05
2.39307e-05
2.72462e-05
2.0108e-05
2.90406e-05
2.93239e-05
2.39306e-05
2.3319e-05
2.67625e-05
2.70237e-05
2.23379e-05
2.50539e-05
2.95237e-05
2.92112e-05
2.45936e-05
2.96207e-05
2.32347e-05
2.15439e-05
2.93962e-05
1.86501e-05
3.04485e-05
2.93798e-05
1.79797e-05
2.13454e-05
2.14424e-05
2.89415e-05
2.87587e-05
2.82436e-05
2.91264e-05
2.60362e-05
2.56281e-05
2.80014e-05
2.97853e-05
2.90787e-05
1.84749e-05
2.9373e-05
1.95062e-05
2.50879e-05
2.7246e-05
2.0029e-05
2.71737e-05
2.66332e-05
2.03274e-05
2.6835e-05
2.85827e-05
2.35517e-05
2.6936e-05
2.73825e-05
2.99435e-05
2.6624e-05
2.7088e-05
2.25741e-05
2.97474e-05
2.88844e-05
2.48125e-05
2.85487e-05
2.72899e-05
2.87671e-05
2.16749e-05
2.88104e-05
2.53162e-05
2.59471e-05
2.78201e-05
2.37087e-05
1.75986e-05
2.94964e-05
2.76331e-05
2.78727e-05
2.89066e-05
2.96057e-05
2.93916e-05
2.23965e-05
2.99389e-05
2.74965e-05
2.71191e-05
2.06252e-05
2.61471e-05
2.27751e-05
2.63007e-05
2.56906e-05
2.71099e-05
2.73833e-05
2.05425e-05
2.90972e-05
2.85409e-05
2.6246e-05
1.99749e-05
2.02994e-05
2.92784e-05
2.00697e-05
1.8852e-05
2.26983e-05
1.9647e-05
2.8705e-05
2.06892e-05
2.62163e-05
2.47272e-05
2.71838e-05
1.9407e-05
2.59516e-05
2.62051e-05
2.7805e-05
2.65751e-05
2.84832e-05
2.87083e-05
2.87628e-05
2.71935e-05
2.71067e-05
2.91932e-05
2.70337e-05
2.29812e-05
2.22019e-05
2.85336e-05
2.91889e-05
2.89271e-05
2.92288e-05
2.52566e-05
2.85315e-05
2.70691e-05
2.04501e-05
1.93002e-05
2.87242e-05
2.71095e-05
2.7035e-05
2.88639e-05
2.9031e-05
1.9512e-05
1.85195e-05
2.9255e-05
2.80875e-05
2.1117e-05
2.12123e-05
2.88382e-05
2.297e-05
2.80472e-05
2.4036e-05
2.79366e-05
2.20653e-05
2.98435e-05
2.65661e-05
2.19093e-05
2.16549e-05
2.38443e-05
2.94177e-05
2.21266e-05
2.32152e-05
2.01249e-05
2.0646e-05
2.65035e-05
2.18846e-05
2.98048e-05
2.89411e-05
1.987e-05
2.59637e-05
2.50628e-05
2.12048e-05
2.71701e-05
2.99411e-05
2.7846e-05
2.74149e-05
2.96558e-05
2.71603e-05
2.7211e-05
2.59935e-05
2.55923e-05
2.56426e-05
1.83985e-05
2.69929e-05
3.0193e-05
2.70235e-05
2.96771e-05
2.07452e-05
2.0755e-05
3.07749e-05
2.84267e-05
2.81084e-05
2.66446e-05
2.72541e-05
2.53884e-05
2.51508e-05
2.86461e-05
2.01307e-05
2.52406e-05
2.92635e-05
2.98635e-05
2.87785e-05
2.82285e-05
2.61944e-05
2.63818e-05
2.63715e-05
2.56281e-05
2.92162e-05
1.83335e-05
2.67024e-05
2.54813e-05
2.77269e-05
2.87602e-05
2.86609e-05
2.94988e-05
2.13279e-05
2.4025e-05
2.88718e-05
2.81592e-05
2.8082e-05
2.63012e-05
2.01141e-05
2.60431e-05
2.03542e-05
2.50993e-05
2.85782e-05
2.40872e-05
2.12063e-05
2.78292e-05
2.77228e-05
2.99461e-05
2.20953e-05
2.06523e-05
2.77127e-05
2.8052e-05
2.00304e-05
2.97146e-05
2.32587e-05
1.99916e-05
2.61263e-05
2.7833e-05
2.66452e-05
2.41131e-05
2.37319e-05
2.78927e-05
2.61538e-05
2.56867e-05
2.12626e-05
2.65647e-05
2.58257e-05
2.14439e-05
2.42569e-05
2.97019e-05
2.83721e-05
2.48958e-05
2.17238e-05
2.83836e-05
2.85335e-05
2.69096e-05
2.98515e-05
2.92771e-05
2.64903e-05
2.92895e-05
2.60075e-05
2.55827e-05
1.95793e-05
2.367e-05
2.94997e-05
2.57471e-05
2.76841e-05
2.45347e-05
2.66079e-05
2.98583e-05
3.00566e-05
2.75634e-05
2.05486e-05
2.56785e-05
2.31845e-05
2.92019e-05
2.59922e-05
2.97698e-05
2.95781e-05
2.52362e-05
2.11315e-05
2.32173e-05
2.19403e-05
2.00724e-05
2.92199e-05
2.24284e-05
2.79366e-05
2.6363e-05
2.42513e-05
2.19729e-05
3.02005e-05
2.48195e-05
2.45299e-05
2.89655e-05
2.70118e-05
2.34588e-05
2.61673e-05
2.27023e-05
2.70219e-05
2.62903e-05
2.11866e-05
2.47681e-05
2.54753e-05
1.75622e-05
1.89942e-05
2.9205e-05
2.9425e-05
2.81069e-05
1.99335e-05
2.20864e-05
2.85034e-05
2.25791e-05
2.22405e-05
2.93186e-05
3.0212e-05
2.63334e-05
2.8975e-05
2.97267e-05
2.15354e-05
2.88559e-05
1.95957e-05
1.95495e-05
2.95719e-05
2.91817e-05
2.93131e-05
2.99668e-05
2.84381e-05
2.19967e-05
2.68023e-05
2.64557e-05
2.92219e-05
2.98654e-05
3.02577e-05
2.63798e-05
2.54109e-05
2.83344e-05
2.84188e-05
2.74217e-05
2.62251e-05
2.59054e-05
2.61106e-05
2.6341e-05
2.75317e-05
2.63907e-05
2.14777e-05
2.71327e-05
2.96784e-05
2.52102e-05
2.85696e-05
2.96635e-05
2.67349e-05
2.11507e-05
2.66276e-05
2.65133e-05
1.98966e-05
3.06114e-05
2.23484e-05
2.72433e-05
2.85296e-05
1.92014e-05
2.68178e-05
2.66464e-05
2.069e-05
2.68999e-05
2.17564e-05
2.6403e-05
2.93801e-05
2.78112e-05
1.8995e-05
2.73141e-05
2.18696e-05
2.74271e-05
2.90904e-05
2.94657e-05
2.91342e-05
2.23154e-05
2.87097e-05
2.02174e-05
2.60933e-05
1.98359e-05
2.96446e-05
2.87499e-05
2.93204e-05
2.9056e-05
2.32283e-05
2.93628e-05
2.66005e-05
2.81285e-05
2.63879e-05
2.25191e-05
2.62418e-05
2.8005e-05
2.82884e-05
2.83271e-05
2.67571e-05
2.82978e-05
2.5651e-05
2.16629e-05
2.59694e-05
2.75842e-05
2.80992e-05
1.90719e-05
2.91363e-05
2.91153e-05
2.63613e-05
2.77864e-05
2.82251e-05
2.68317e-05
2.96684e-05
2.02441e-05
2.75375e-05
2.90327e-05
1.93051e-05
2.65166e-05
2.76835e-05
2.19482e-05
2.05055e-05
2.04212e-05
2.45256e-05
2.04464e-05
2.63022e-05
2.60119e-05
2.45595e-05
2.92339e-05
2.09197e-05
2.86689e-05
2.95215e-05
2.67366e-05
2.87192e-05
2.52057e-05
2.92791e-05
2.63555e-05
2.69667e-05
2.99108e-05
2.66739e-05
2.09427e-05
2.69308e-05
2.90278e-05
2.90745e-05
2.802e-05
2.9363e-05
2.60286e-05
2.73792e-05
2.86507e-05
2.97558e-05
2.86484e-05
2.15068e-05
2.63092e-05
1.83594e-05
2.58252e-05
2.62328e-05
2.08697e-05
2.02621e-05
2.46793e-05
2.83578e-05
2.86403e-05
2.06586e-05
2.82034e-05
2.42363e-05
2.65569e-05
2.82466e-05
2.0224e-05
2.63494e-05
1.96296e-05
2.58436e-05
2.91932e-05
2.95886e-05
2.8649e-05
2.58987e-05
1.98115e-05
2.78857e-05
2.7136e-05
2.80827e-05
1.99366e-05
2.1463e-05
2.65033e-05
2.05916e-05
2.18616e-05
2.6825e-05
1.97956e-05
2.53383e-05
1.97489e-05
2.78983e-05
2.10531e-05
2.98053e-05
2.89323e-05
2.87716e-05
2.91932e-05
2.39056e-05
2.86775e-05
2.91428e-05
2.68121e-05
2.8571e-05
2.70496e-05
2.88677e-05
2.91326e-05
2.42366e-05
2.8938e-05
2.93438e-05
2.66409e-05
2.38355e-05
2.99098e-05
2.69823e-05
1.90781e-05
1.94833e-05
2.67848e-05
2.98611e-05
2.94633e-05
2.66795e-05
3.02765e-05
2.94495e-05
2.83165e-05
2.71082e-05
2.53791e-05
2.5238e-05
2.16943e-05
2.67826e-05
2.75941e-05
2.95693e-05
2.31547e-05
2.28886e-05
2.23448e-05
2.59657e-05
2.63402e-05
1.86197e-05
2.77076e-05
2.41859e-05
2.7875e-05
2.62516e-05
2.90677e-05
2.60924e-05
2.17622e-05
2.81764e-05
2.95285e-05
2.28904e-05
2.87718e-05
2.95083e-05
2.6059e-05
2.65171e-05
2.23503e-05
2.25189e-05
2.66077e-05
2.68873e-05
2.19669e-05
2.14704e-05
2.69815e-05
2.27615e-05
2.7857e-05
2.32875e-05
2.56718e-05
2.9262e-05
2.65953e-05
2.01593e-05
2.42514e-05
2.70443e-05
2.94659e-05
2.09347e-05
1.81121e-05
2.87922e-05
2.01319e-05
2.73857e-05
2.99212e-05
2.1288e-05
2.66803e-05
2.87464e-05
2.64296e-05
2.05727e-05
2.90445e-05
2.64861e-05
2.09944e-05
2.88036e-05
2.73371e-05
2.63371e-05
2.79537e-05
1.90743e-05
2.36158e-05
2.77957e-05
2.47449e-05
2.488e-05
2.58266e-05
2.87861e-05
2.88079e-05
2.79296e-05
2.88986e-05
2.9507e-05
2.84382e-05
2.31887e-05
2.87661e-05
2.91691e-05
2.95928e-05
2.29658e-05
2.70596e-05
2.67632e-05
3.07388e-05
2.20704e-05
1.88958e-05
2.96153e-05
2.22164e-05
3.04767e-05
2.59882e-05
2.15232e-05
2.68816e-05
2.91231e-05
2.74643e-05
2.74273e-05
1.96406e-05
2.81466e-05
2.67559e-05
1.94085e-05
2.92711e-05
2.87887e-05
2.2104e-05
2.10577e-05
2.23751e-05
2.44535e-05
2.75655e-05
2.71221e-05
2.65628e-05
2.69212e-05
2.91235e-05
2.66593e-05
2.63721e-05
2.12739e-05
3.00598e-05
1.98837e-05
2.66982e-05
2.53961e-05
2.44308e-05
2.97653e-05
2.67898e-05
2.30834e-05
2.01821e-05
2.08244e-05
2.53426e-05
2.90949e-05
2.28483e-05
2.98078e-05
2.64181e-05
2.9093e-05
2.13814e-05
2.58068e-05
2.82734e-05
3.0095e-05
2.95544e-05
2.8734e-05
2.70668e-05
2.6686e-05
2.97303e-05
2.9689e-05
2.90283e-05
2.3387e-05
2.8932e-05
2.1348e-05
2.93015e-05
2.72432e-05
2.66847e-05
2.21994e-05
2.61865e-05
1.82152e-05
2.95705e-05
2.70428e-05
2.98984e-05
2.63349e-05
2.503e-05
2.10455e-05
2.89637e-05
2.01894e-05
1.88435e-05
2.16431e-05
2.36436e-05
2.11108e-05
2.63234e-05
2.01665e-05
2.90545e-05
2.74642e-05
1.90009e-05
2.95278e-05
2.18862e-05
2.33835e-05
2.59566e-05
2.43884e-05
2.79775e-05
2.96758e-05
3.01439e-05
2.86804e-05
2.62222e-05
2.74668e-05
2.50889e-05
2.51699e-05
2.02593e-05
1.53002e-05
2.9673e-05
2.62265e-05
2.821e-05
2.8964e-05
2.06654e-05
2.91837e-05
2.91432e-05
2.85962e-05
2.87332e-05
2.8336e-05
2.74868e-05
2.99626e-05
3.01072e-05
2.69644e-05
2.88914e-05
2.87756e-05
2.20939e-05
2.90305e-05
2.41558e-05
2.73423e-05
2.54143e-05
2.64121e-05
2.37215e-05
2.98485e-05
2.64715e-05
2.69203e-05
2.58972e-05
2.23253e-05
2.99812e-05
2.71021e-05
2.47068e-05
2.15956e-05
2.85393e-05
1.98988e-05
2.93192e-05
2.80921e-05
2.51333e-05
2.85233e-05
3.03298e-05
2.88442e-05
2.02144e-05
2.74646e-05
2.57304e-05
2.6813e-05
2.20422e-05
2.91549e-05
2.89841e-05
2.56231e-05
2.67634e-05
2.57206e-05
2.79755e-05
2.45006e-05
2.58939e-05
1.97675e-05
2.86696e-05
2.74783e-05
2.86287e-05
2.36844e-05
2.67628e-05
2.77999e-05
2.6751e-05
2.43364e-05
2.85752e-05
2.87003e-05
2.61487e-05
1.98533e-05
1.95663e-05
2.64878e-05
1.86658e-05
2.14456e-05
2.7073e-05
2.73919e-05
2.91748e-05
1.95534e-05
2.6424e-05
2.95006e-05
2.25379e-05
2.02869e-05
2.73809e-05
2.19026e-05
2.75638e-05
2.27278e-05
2.86639e-05
2.3275e-05
2.4318e-05
2.98719e-05
1.9628e-05
2.56414e-05
2.61213e-05
2.88245e-05
2.93925e-05
2.94887e-05
2.18091e-05
2.81085e-05
2.91258e-05
2.4511e-05
2.97747e-05
2.89192e-05
2.73235e-05
2.86646e-05
2.71166e-05
2.95587e-05
3.03049e-05
2.97247e-05
2.81287e-05
2.46083e-05
2.78958e-05
2.68753e-05
2.03025e-05
2.5917e-05
2.83809e-05
2.92034e-05
2.93047e-05
2.64124e-05
2.94891e-05
2.92048e-05
2.60256e-05
2.88627e-05
2.88937e-05
2.78753e-05
2.8441e-05
2.08383e-05
2.52029e-05
2.8129e-05
1.87674e-05
2.702e-05
2.61822e-05
2.57615e-05
2.5966e-05
2.99191e-05
2.82901e-05
2.90555e-05
2.55168e-05
2.82168e-05
2.68531e-05
2.91823e-05
2.7306e-05
2.51742e-05
2.15993e-05
2.90137e-05
2.20472e-05
2.55819e-05
2.58893e-05
2.60744e-05
2.74003e-05
2.98014e-05
2.11115e-05
2.90488e-05
2.19542e-05
2.79371e-05
2.47468e-05
2.59847e-05
2.62875e-05
2.94338e-05
2.07974e-05
2.81818e-05
2.92495e-05
2.89464e-05
2.73172e-05
2.62315e-05
1.87064e-05
2.86675e-05
2.87198e-05
2.74153e-05
2.86512e-05
2.92154e-05
2.77428e-05
2.80585e-05
2.70156e-05
2.22404e-05
2.55779e-05
2.96648e-05
2.01666e-05
2.26125e-05
3.02995e-05
2.89871e-05
2.41465e-05
2.5491e-05
2.63258e-05
2.36181e-05
2.64876e-05
2.2976e-05
2.89745e-05
2.91846e-05
1.86717e-05
2.71776e-05
2.95819e-05
2.87145e-05
2.96312e-05
2.66302e-05
2.90957e-05
2.23385e-05
2.22132e-05
2.95712e-05
2.8858e-05
2.70424e-05
2.26546e-05
2.87531e-05
2.88412e-05
2.34843e-05
2.94925e-05
2.92698e-05
2.92954e-05
2.77438e-05
2.8672e-05
2.72527e-05
2.76724e-05
2.64318e-05
2.42788e-05
2.09252e-05
2.71609e-05
2.71582e-05
2.2252e-05
2.94174e-05
2.03342e-05
2.58318e-05
2.59153e-05
2.14395e-05
2.59727e-05
2.45975e-05
2.73725e-05
2.63541e-05
2.85658e-05
2.122e-05
2.10588e-05
2.55421e-05
2.07658e-05
2.52129e-05
2.90605e-05
2.63452e-05
2.91523e-05
2.64937e-05
2.6245e-05
2.94185e-05
2.46202e-05
2.69082e-05
2.63956e-05
2.62678e-05
2.70626e-05
2.19964e-05
2.68642e-05
2.82874e-05
2.96475e-05
2.99128e-05
2.14137e-05
2.06398e-05
2.69173e-05
2.92107e-05
2.28544e-05
2.55242e-05
2.80188e-05
2.64834e-05
3.07074e-05
2.56684e-05
2.59505e-05
2.80137e-05
2.12531e-05
2.8965e-05
2.94509e-05
2.18949e-05
2.37018e-05
2.69466e-05
2.47529e-05
2.96161e-05
2.9849e-05
2.77848e-05
2.22088e-05
2.90143e-05
2.09535e-05
2.57012e-05
2.86877e-05
2.45757e-05
3.02826e-05
1.9679e-05
2.71094e-05
2.77386e-05
2.70323e-05
1.97309e-05
2.06967e-05
2.89188e-05
2.97328e-05
2.47086e-05
2.97676e-05
2.76449e-05
2.67403e-05
2.0882e-05
2.30986e-05
2.74019e-05
2.6214e-05
2.65879e-05
2.99146e-05
2.98354e-05
2.99101e-05
2.9926e-05
2.74401e-05
2.72061e-05
2.83999e-05
2.17737e-05
2.87316e-05
2.81534e-05
2.75954e-05
2.73422e-05
2.94964e-05
2.57846e-05
2.96412e-05
2.58857e-05
1.89246e-05
3.01285e-05
2.36784e-05
2.88484e-05
2.43594e-05
2.94551e-05
2.21243e-05
2.81045e-05
3.00775e-05
2.59663e-05
2.69101e-05
1.98849e-05
2.88481e-05
2.8854e-05
2.78892e-05
2.07053e-05
3.05098e-05
2.60186e-05
2.78361e-05
2.88674e-05
2.93068e-05
2.86593e-05
2.67097e-05
2.60948e-05
2.98744e-05
2.22131e-05
2.23947e-05
2.16224e-05
2.30684e-05
2.7426e-05
2.05993e-05
2.97053e-05
2.92978e-05
2.9707e-05
2.56197e-05
2.55237e-05
2.68431e-05
2.85554e-05
2.69127e-05
2.61963e-05
2.93294e-05
2.87236e-05
2.58005e-05
2.9364e-05
2.76245e-05
2.57339e-05
2.77329e-05
2.41111e-05
2.93265e-05
2.931e-05
3.00277e-05
2.99897e-05
2.88001e-05
2.40534e-05
3.00832e-05
2.69885e-05
2.68101e-05
2.61026e-05
2.77013e-05
2.95745e-05
2.6753e-05
2.87378e-05
2.51126e-05
2.66104e-05
2.76629e-05
2.24169e-05
2.01071e-05
2.62182e-05
2.49922e-05
2.93108e-05
2.42131e-05
2.04098e-05
2.70342e-05
2.90226e-05
2.36412e-05
2.43938e-05
2.70676e-05
2.98462e-05
2.87838e-05
2.59175e-05
2.35645e-05
2.68709e-05
2.84989e-05
2.47574e-05
2.64013e-05
2.65994e-05
1.9906e-05
2.45311e-05
2.49353e-05
2.78968e-05
2.84928e-05
2.63978e-05
2.87977e-05
2.79501e-05
2.65306e-05
2.65675e-05
2.17334e-05
2.34061e-05
1.98727e-05
2.85875e-05
2.7612e-05
3.0084e-05
3.1349e-05
2.81911e-05
2.06101e-05
2.87905e-05
2.48145e-05
2.72831e-05
2.76515e-05
2.89573e-05
2.0604e-05
2.95332e-05
2.15269e-05
2.72682e-05
2.66088e-05
2.63106e-05
3.01087e-05
2.53032e-05
2.78929e-05
2.26667e-05
2.60145e-05
2.57219e-05
2.89347e-05
2.39632e-05
2.30955e-05
2.86894e-05
2.85038e-05
2.79225e-05
2.85578e-05
2.92696e-05
2.19926e-05
2.60178e-05
2.55855e-05
2.33429e-05
2.84769e-05
2.96336e-05
2.98668e-05
2.92202e-05
3.01963e-05
2.163e-05
2.12631e-05
2.20438e-05
2.91044e-05
2.03976e-05
2.9083e-05
2.7656e-05
2.16049e-05
2.47968e-05
2.84658e-05
2.9074e-05
2.39035e-05
2.47205e-05
2.55904e-05
2.75925e-05
2.96899e-05
2.62002e-05
2.19993e-05
2.72082e-05
2.98844e-05
2.85986e-05
2.9942e-05
2.96784e-05
3.08897e-05
2.98157e-05
2.88233e-05
2.22793e-05
2.02646e-05
2.69334e-05
2.38476e-05
2.94188e-05
2.10829e-05
2.79609e-05
2.60531e-05
3.01562e-05
2.2762e-05
2.81771e-05
2.84591e-05
2.735e-05
2.55549e-05
2.15572e-05
2.90465e-05
2.40842e-05
2.95275e-05
2.6432e-05
2.99828e-05
2.99489e-05
2.71398e-05
2.02723e-05
2.11909e-05
2.62735e-05
2.76157e-05
2.39835e-05
3.04402e-05
2.14533e-05
2.94819e-05
2.84167e-05
2.44211e-05
2.81328e-05
2.88643e-05
2.92922e-05
2.98445e-05
2.92865e-05
2.72924e-05
2.74186e-05
2.02096e-05
2.43009e-05
3.00419e-05
2.22844e-05
2.82536e-05
2.62306e-05
2.25833e-05
2.6557e-05
2.81429e-05
2.65052e-05
2.82249e-05
2.88279e-05
2.17118e-05
2.6297e-05
2.70262e-05
2.17356e-05
2.43265e-05
2.669e-05
2.65012e-05
2.82819e-05
2.16322e-05
2.13124e-05
2.65954e-05
2.53048e-05
3.03867e-05
3.038e-05
2.98633e-05
2.57113e-05
2.61029e-05
2.75385e-05
2.55433e-05
2.83531e-05
2.15572e-05
2.70484e-05
2.60258e-05
2.99436e-05
2.84332e-05
2.58863e-05
2.70265e-05
2.94423e-05
2.12808e-05
2.73297e-05
2.98942e-05
2.56361e-05
1.79002e-05
2.63922e-05
2.17674e-05
2.717e-05
1.96778e-05
2.90623e-05
3.05087e-05
2.92475e-05
2.72671e-05
2.15436e-05
2.1487e-05
2.89875e-05
2.92835e-05
2.90379e-05
2.73181e-05
2.59144e-05
2.86212e-05
2.93965e-05
2.88435e-05
2.0116e-05
2.52076e-05
2.86137e-05
2.81203e-05
2.48446e-05
2.74862e-05
2.01809e-05
2.9548e-05
2.92199e-05
2.69151e-05
2.75304e-05
2.80037e-05
2.66533e-05
3.0151e-05
2.83928e-05
2.21756e-05
2.63215e-05
2.87849e-05
2.61641e-05
2.65073e-05
2.7879e-05
1.97096e-05
2.2355e-05
2.95791e-05
2.97624e-05
2.92406e-05
2.99879e-05
2.77757e-05
2.93298e-05
2.72278e-05
2.72887e-05
2.81784e-05
2.93573e-05
2.42982e-05
2.59911e-05
2.5513e-05
2.68317e-05
2.89995e-05
1.93294e-05
2.71575e-05
2.0501e-05
2.9269e-05
2.05671e-05
2.03156e-05
2.65493e-05
1.97678e-05
2.65725e-05
2.74722e-05
2.91987e-05
2.95449e-05
2.44709e-05
2.42537e-05
3.01719e-05
2.41032e-05
2.19259e-05
2.60469e-05
2.34044e-05
2.9737e-05
2.80652e-05
2.71894e-05
2.15385e-05
2.84936e-05
2.86212e-05
2.96811e-05
2.08303e-05
2.3546e-05
2.7342e-05
2.77378e-05
3.03031e-05
2.23294e-05
2.14028e-05
2.80614e-05
2.67686e-05
2.99486e-05
2.73394e-05
1.94838e-05
2.77983e-05
2.87429e-05
2.10876e-05
1.97036e-05
2.94512e-05
2.261e-05
2.26037e-05
2.95148e-05
2.97286e-05
2.91007e-05
3.06174e-05
2.70199e-05
2.51727e-05
2.95789e-05
2.35842e-05
2.97044e-05
2.43402e-05
2.74216e-05
2.89956e-05
2.64964e-05
2.09684e-05
2.91898e-05
2.93556e-05
2.51319e-05
2.65992e-05
2.68034e-05
2.35484e-05
2.53141e-05
2.71434e-05
2.66416e-05
2.91598e-05
2.49474e-05
2.81551e-05
2.10284e-05
2.8639e-05
2.99968e-05
1.99623e-05
2.82018e-05
2.74181e-05
1.86155e-05
2.09617e-05
2.73018e-05
2.686e-05
2.89662e-05
2.51062e-05
2.20814e-05
2.88679e-05
2.9555e-05
2.89825e-05
2.78813e-05
2.99794e-05
2.11649e-05
2.95607e-05
2.6855e-05
2.17849e-05
2.1161e-05
1.76362e-05
2.20352e-05
2.8033e-05
2.53514e-05
2.77222e-05
2.71294e-05
2.32461e-05
2.41587e-05
1.98835e-05
1.96373e-05
2.99731e-05
2.97726e-05
2.24032e-05
2.94118e-05
2.91202e-05
2.18556e-05
2.64927e-05
2.66917e-05
2.327e-05
2.51332e-05
2.99016e-05
2.31707e-05
1.94849e-05
2.97945e-05
2.93976e-05
2.41736e-05
2.95163e-05
2.43348e-05
2.29106e-05
2.1869e-05
2.61397e-05
2.07974e-05
2.16728e-05
2.75457e-05
2.82095e-05
2.60117e-05
2.85703e-05
2.96099e-05
2.64203e-05
2.87777e-05
1.48795e-05
2.62056e-05
2.14163e-05
2.69364e-05
2.88018e-05
2.66398e-05
2.40692e-05
2.65566e-05
2.23668e-05
2.81124e-05
2.6541e-05
2.43119e-05
2.12377e-05
1.93532e-05
1.89317e-05
2.51177e-05
2.14454e-05
2.59727e-05
2.1866e-05
2.51912e-05
2.93737e-05
2.72555e-05
2.52545e-05
2.72205e-05
2.80926e-05
2.64721e-05
2.87472e-05
2.00115e-05
2.71113e-05
2.95671e-05
2.99012e-05
2.60044e-05
3.06875e-05
2.31664e-05
2.77055e-05
2.63619e-05
2.06884e-05
2.87429e-05
2.97923e-05
2.81565e-05
2.83637e-05
2.85891e-05
2.7267e-05
1.89898e-05
1.99432e-05
2.60991e-05
3.01361e-05
2.66369e-05
2.94481e-05
2.44679e-05
2.54357e-05
2.23782e-05
2.07738e-05
2.09345e-05
2.02834e-05
2.81114e-05
2.75572e-05
2.94611e-05
2.57061e-05
2.48622e-05
3.04363e-05
2.10897e-05
2.71105e-05
2.96531e-05
2.89704e-05
2.48737e-05
2.61334e-05
2.87215e-05
2.91178e-05
2.90743e-05
2.23544e-05
2.726e-05
2.89327e-05
2.7612e-05
2.69285e-05
2.94905e-05
2.81235e-05
2.96906e-05
2.79852e-05
2.37066e-05
2.77985e-05
2.89754e-05
2.81023e-05
2.65002e-05
2.11555e-05
2.95534e-05
2.92673e-05
2.86798e-05
2.93145e-05
2.01335e-05
1.81901e-05
2.61265e-05
2.83655e-05
2.47613e-05
2.81311e-05
2.8922e-05
2.92519e-05
2.92889e-05
2.47209e-05
2.839e-05
2.66822e-05
2.88356e-05
2.14341e-05
2.13959e-05
2.58472e-05
2.93783e-05
2.22139e-05
2.89143e-05
2.14886e-05
2.56474e-05
2.68107e-05
2.97271e-05
2.59446e-05
2.96979e-05
2.93691e-05
2.83973e-05
2.72903e-05
2.83923e-05
2.68867e-05
2.4574e-05
1.92383e-05
3.02893e-05
1.7417e-05
2.01446e-05
2.26191e-05
1.99312e-05
2.00664e-05
2.58005e-05
2.73874e-05
2.16369e-05
2.43859e-05
1.82467e-05
2.1997e-05
2.50541e-05
2.94168e-05
2.03633e-05
2.05619e-05
2.8747e-05
2.04172e-05
2.55968e-05
2.77334e-05
2.7706e-05
2.63073e-05
2.14136e-05
1.98115e-05
2.4427e-05
3.01523e-05
2.29119e-05
2.05579e-05
2.73157e-05
2.41051e-05
2.72801e-05
2.6797e-05
2.16185e-05
2.88062e-05
1.94973e-05
2.04556e-05
2.51116e-05
2.88936e-05
2.45411e-05
2.53404e-05
2.55707e-05
2.73263e-05
1.90729e-05
2.25363e-05
2.58708e-05
2.94496e-05
2.85364e-05
2.05524e-05
1.83383e-05
2.51842e-05
3.03849e-05
2.65791e-05
2.67939e-05
2.39782e-05
2.65241e-05
2.70099e-05
2.13002e-05
2.9717e-05
2.41364e-05
2.09197e-05
1.85546e-05
2.85733e-05
2.68452e-05
2.96055e-05
2.71052e-05
2.91162e-05
2.1279e-05
2.52742e-05
1.93692e-05
1.79865e-05
2.8226e-05
2.18479e-05
2.54976e-05
2.70752e-05
2.7402e-05
2.0771e-05
2.96696e-05
2.88763e-05
3.00651e-05
2.75993e-05
1.70302e-05
2.66637e-05
1.94736e-05
2.93e-05
2.1339e-05
2.93874e-05
1.84082e-05
2.7812e-05
2.74275e-05
2.38667e-05
2.4461e-05
1.91834e-05
2.3655e-05
2.67866e-05
2.83604e-05
2.79537e-05
2.96635e-05
2.8532e-05
2.1649e-05
2.97897e-05
2.55116e-05
2.73691e-05
2.79919e-05
2.91896e-05
2.8576e-05
2.67755e-05
2.96687e-05
2.56678e-05
2.43391e-05
2.41306e-05
2.75159e-05
2.86393e-05
2.38566e-05
2.18674e-05
2.90661e-05
2.73007e-05
2.6461e-05
2.98639e-05
2.76134e-05
2.73174e-05
2.74487e-05
2.88836e-05
2.8696e-05
2.68609e-05
2.59557e-05
2.89895e-05
2.81535e-05
2.31276e-05
2.68846e-05
2.32935e-05
2.95199e-05
2.75209e-05
2.9723e-05
2.12564e-05
2.11097e-05
2.69903e-05
2.84252e-05
2.80305e-05
2.94218e-05
2.89812e-05
2.64597e-05
2.82391e-05
2.19235e-05
2.6319e-05
2.66443e-05
2.94912e-05
2.89738e-05
2.96463e-05
2.64435e-05
2.98966e-05
2.28642e-05
2.94267e-05
2.35572e-05
2.62486e-05
2.49318e-05
2.72108e-05
2.64641e-05
2.84512e-05
2.04299e-05
2.92058e-05
2.84915e-05
2.56743e-05
2.1294e-05
2.93083e-05
2.79937e-05
2.87916e-05
2.64223e-05
2.68657e-05
2.85731e-05
2.08827e-05
2.9543e-05
2.58634e-05
2.70155e-05
2.30398e-05
2.3863e-05
2.35151e-05
2.03517e-05
2.46389e-05
3.03486e-05
2.70395e-05
1.93057e-05
2.64235e-05
2.05274e-05
2.71555e-05
2.75834e-05
1.93068e-05
2.03107e-05
2.38297e-05
2.69031e-05
2.85277e-05
2.46626e-05
2.86262e-05
2.59503e-05
2.37662e-05
2.4263e-05
2.96253e-05
2.90495e-05
2.91365e-05
2.85663e-05
2.77494e-05
2.10919e-05
2.21111e-05
2.99251e-05
2.56266e-05
2.69559e-05
2.83388e-05
2.99452e-05
2.71857e-05
2.79423e-05
1.96664e-05
2.86624e-05
2.93085e-05
2.44671e-05
2.94206e-05
2.89985e-05
2.74443e-05
2.49787e-05
2.80522e-05
2.48933e-05
1.89634e-05
2.72391e-05
2.21144e-05
2.04394e-05
2.68895e-05
2.67622e-05
2.79679e-05
2.81707e-05
2.74303e-05
2.98228e-05
1.79766e-05
2.44377e-05
2.93787e-05
2.93894e-05
1.93627e-05
2.71674e-05
2.23555e-05
2.46897e-05
2.98045e-05
2.35611e-05
2.77548e-05
3.00134e-05
2.82485e-05
1.94036e-05
2.83891e-05
2.13006e-05
2.94356e-05
2.83917e-05
2.80453e-05
2.97538e-05
2.75214e-05
2.92544e-05
2.09035e-05
2.87836e-05
2.88908e-05
2.22544e-05
2.80057e-05
2.67217e-05
2.46727e-05
2.87511e-05
2.51196e-05
2.91553e-05
2.97143e-05
3.01245e-05
2.65456e-05
2.87069e-05
2.6865e-05
2.83481e-05
2.32197e-05
2.45871e-05
2.06265e-05
2.00433e-05
2.74239e-05
2.8198e-05
2.6777e-05
2.97328e-05
2.58026e-05
2.98138e-05
1.97706e-05
2.98143e-05
3.00317e-05
2.81299e-05
3.00061e-05
2.26429e-05
1.93289e-05
2.62738e-05
2.06311e-05
2.95703e-05
2.68575e-05
1.95336e-05
2.54972e-05
3.02014e-05
2.71708e-05
2.06439e-05
2.30667e-05
1.94625e-05
3.03594e-05
2.0366e-05
2.8788e-05
2.46193e-05
2.15021e-05
2.91216e-05
2.93107e-05
2.93612e-05
2.85107e-05
2.05484e-05
2.7342e-05
2.93016e-05
2.21396e-05
2.95894e-05
2.67438e-05
2.9752e-05
1.90786e-05
2.8642e-05
2.43702e-05
2.74207e-05
2.42072e-05
2.62246e-05
2.49146e-05
2.38696e-05
2.5284e-05
2.55986e-05
2.80212e-05
2.62559e-05
3.00047e-05
2.20182e-05
2.65414e-05
2.66044e-05
2.85025e-05
2.92549e-05
2.1135e-05
2.91741e-05
2.17596e-05
2.66607e-05
2.93147e-05
2.89638e-05
2.52651e-05
2.76714e-05
2.78614e-05
2.44133e-05
2.68518e-05
2.56092e-05
2.05242e-05
2.07143e-05
2.78205e-05
2.87452e-05
2.63747e-05
2.50199e-05
2.88358e-05
2.1464e-05
2.75095e-05
2.17942e-05
2.83104e-05
2.98292e-05
2.69192e-05
2.09838e-05
2.8759e-05
2.00929e-05
2.76098e-05
2.9326e-05
1.94185e-05
3.02826e-05
2.19561e-05
2.46027e-05
2.51453e-05
2.11018e-05
2.49762e-05
2.52277e-05
1.93095e-05
2.87369e-05
2.91325e-05
1.76554e-05
2.44504e-05
2.8192e-05
2.63739e-05
2.7616e-05
3.00227e-05
2.87064e-05
2.58637e-05
2.33258e-05
1.96477e-05
1.89271e-05
2.25917e-05
2.98884e-05
2.89581e-05
2.80869e-05
2.84592e-05
2.12428e-05
2.05921e-05
2.63544e-05
2.8555e-05
1.95255e-05
2.83272e-05
2.70184e-05
2.54251e-05
2.82235e-05
2.49559e-05
2.84126e-05
2.40167e-05
2.59877e-05
2.93168e-05
1.72564e-05
2.77501e-05
2.86238e-05
2.90958e-05
2.781e-05
2.90807e-05
2.68299e-05
2.1038e-05
2.98782e-05
3.07882e-05
2.71739e-05
2.65943e-05
2.47252e-05
2.6487e-05
2.78625e-05
2.87914e-05
2.68575e-05
2.6055e-05
2.58374e-05
1.97459e-05
2.4777e-05
2.98122e-05
2.77137e-05
3.09533e-05
2.66997e-05
2.51206e-05
2.95005e-05
2.09971e-05
2.83175e-05
2.08902e-05
2.93149e-05
2.78352e-05
2.49781e-05
3.03491e-05
2.45357e-05
2.62736e-05
2.94647e-05
2.54582e-05
2.94831e-05
2.82531e-05
2.82898e-05
2.05178e-05
2.6791e-05
2.65961e-05
2.24728e-05
2.89777e-05
2.56435e-05
2.55601e-05
2.95677e-05
2.1311e-05
2.96324e-05
2.66392e-05
2.91675e-05
2.39203e-05
2.71404e-05
2.06048e-05
2.13396e-05
2.9887e-05
2.14527e-05
2.64996e-05
2.85094e-05
2.00948e-05
2.5816e-05
2.88336e-05
2.43557e-05
2.16315e-05
2.34711e-05
2.55418e-05
2.51106e-05
2.83689e-05
2.53741e-05
2.87553e-05
2.69412e-05
2.89008e-05
1.88693e-05
2.25255e-05
2.96297e-05
2.60383e-05
1.98223e-05
2.15089e-05
2.63679e-05
2.15995e-05
2.08677e-05
2.67122e-05
2.62848e-05
3.0453e-05
2.53827e-05
2.91393e-05
2.88773e-05
2.82778e-05
2.92195e-05
2.92481e-05
2.51975e-05
2.45553e-05
2.90608e-05
2.59732e-05
2.53234e-05
2.90195e-05
2.66111e-05
1.97254e-05
2.06403e-05
2.55932e-05
2.23846e-05
2.77664e-05
2.8729e-05
2.59956e-05
2.9123e-05
2.89751e-05
2.83753e-05
3.07271e-05
2.54128e-05
2.08103e-05
2.54024e-05
2.53622e-05
2.86196e-05
2.57868e-05
2.78711e-05
2.919e-05
2.55729e-05
2.44024e-05
2.70307e-05
2.9671e-05
2.81611e-05
3.06766e-05
2.80432e-05
2.50048e-05
2.55795e-05
2.27032e-05
2.41476e-05
2.97461e-05
2.29611e-05
3.00594e-05
2.52643e-05
2.90231e-05
2.05041e-05
2.80643e-05
2.69224e-05
2.86526e-05
2.63164e-05
2.78457e-05
2.65035e-05
2.91337e-05
2.00956e-05
2.22565e-05
2.68271e-05
2.491e-05
2.7141e-05
2.66581e-05
2.69639e-05
2.92797e-05
2.66384e-05
1.93797e-05
2.34537e-05
2.07684e-05
2.70513e-05
2.64143e-05
2.12885e-05
3.06134e-05
2.68171e-05
2.60436e-05
2.86618e-05
2.27573e-05
2.14779e-05
3.01071e-05
2.15206e-05
2.02741e-05
2.56545e-05
2.51128e-05
2.14217e-05
2.3786e-05
2.96938e-05
2.92451e-05
2.49448e-05
2.71438e-05
2.87778e-05
2.65177e-05
2.83142e-05
1.98107e-05
2.93755e-05
1.4279e-05
2.87515e-05
2.12178e-05
2.04108e-05
2.87751e-05
2.04842e-05
2.63738e-05
2.72996e-05
2.88766e-05
2.45861e-05
2.8404e-05
2.56831e-05
2.65485e-05
2.5317e-05
2.82718e-05
2.7259e-05
2.91758e-05
2.70284e-05
2.14108e-05
2.82982e-05
2.67427e-05
2.64335e-05
2.58605e-05
2.25441e-05
2.44284e-05
2.00541e-05
2.07892e-05
2.68275e-05
2.5648e-05
2.20359e-05
2.46122e-05
2.8556e-05
2.97727e-05
2.93011e-05
1.45147e-05
1.9555e-05
2.93142e-05
2.0266e-05
2.79082e-05
1.97462e-05
2.9361e-05
2.84555e-05
2.88208e-05
2.11539e-05
2.58685e-05
2.95977e-05
2.9438e-05
2.72478e-05
2.94916e-05
2.64723e-05
2.69468e-05
2.64633e-05
2.07772e-05
2.67021e-05
2.38982e-05
2.65853e-05
2.62169e-05
2.21291e-05
2.61256e-05
2.94956e-05
2.31764e-05
2.37601e-05
2.07193e-05
2.89565e-05
2.85701e-05
1.90428e-05
2.62106e-05
2.67413e-05
2.74766e-05
2.09207e-05
2.67965e-05
2.63915e-05
3.03162e-05
2.07542e-05
2.60875e-05
2.61943e-05
1.92835e-05
2.92158e-05
2.18244e-05
2.161e-05
2.70577e-05
2.9825e-05
2.00068e-05
2.89246e-05
2.77164e-05
2.67787e-05
1.94673e-05
2.95253e-05
2.9813e-05
1.96642e-05
2.69791e-05
1.89181e-05
2.20226e-05
2.9495e-05
2.49582e-05
2.69871e-05
2.84019e-05
3.01399e-05
2.57438e-05
2.4593e-05
2.59839e-05
2.56663e-05
2.68139e-05
2.45733e-05
2.94387e-05
2.13503e-05
2.51272e-05
2.65306e-05
2.51261e-05
2.87644e-05
2.61308e-05
2.80946e-05
2.80103e-05
2.70295e-05
2.95486e-05
2.80552e-05
2.51455e-05
2.34456e-05
2.84136e-05
2.5906e-05
2.51913e-05
2.78001e-05
2.98345e-05
2.82286e-05
2.83152e-05
2.48584e-05
2.8157e-05
2.35724e-05
2.05991e-05
2.6391e-05
2.72427e-05
2.01662e-05
2.76159e-05
2.61545e-05
1.77951e-05
2.07281e-05
2.81032e-05
2.07707e-05
2.55363e-05
2.83525e-05
2.73332e-05
2.04989e-05
2.7061e-05
3.02959e-05
2.15166e-05
2.07397e-05
2.14517e-05
2.92358e-05
2.66545e-05
2.59278e-05
2.88644e-05
2.06006e-05
2.8081e-05
2.7025e-05
2.9784e-05
2.95748e-05
1.54185e-05
2.69572e-05
2.75882e-05
2.791e-05
2.65934e-05
2.64458e-05
2.27642e-05
2.70062e-05
2.99783e-05
2.38099e-05
1.9348e-05
2.47605e-05
2.91103e-05
2.79971e-05
1.99531e-05
2.5567e-05
2.88223e-05
2.95089e-05
2.63976e-05
2.60146e-05
1.88612e-05
2.09424e-05
2.08468e-05
2.67242e-05
2.57053e-05
2.71927e-05
3.0215e-05
2.90495e-05
2.32005e-05
2.91322e-05
2.91906e-05
2.82992e-05
2.44812e-05
2.92011e-05
2.57517e-05
2.19294e-05
2.43889e-05
2.62524e-05
2.75139e-05
2.43428e-05
2.7606e-05
2.4432e-05
2.90356e-05
2.15465e-05
1.91688e-05
2.55305e-05
2.94784e-05
2.8057e-05
2.42179e-05
2.49678e-05
2.83205e-05
2.92387e-05
2.449e-05
2.53738e-05
2.89174e-05
2.98889e-05
2.82058e-05
2.98011e-05
2.84507e-05
2.8676e-05
1.95911e-05
2.54618e-05
2.07412e-05
2.78165e-05
2.91204e-05
2.43431e-05
2.05353e-05
2.94977e-05
2.0474e-05
2.36512e-05
2.16466e-05
2.59959e-05
2.00945e-05
2.77197e-05
2.65237e-05
2.61604e-05
2.62201e-05
2.25048e-05
2.9441e-05
2.12349e-05
2.79081e-05
2.64252e-05
2.58583e-05
2.04115e-05
2.86115e-05
2.76517e-05
2.20714e-05
2.28632e-05
2.55455e-05
2.50806e-05
2.58799e-05
2.0047e-05
2.72265e-05
2.48355e-05
2.68548e-05
2.3599e-05
2.40651e-05
2.38429e-05
2.06041e-05
2.8395e-05
2.63929e-05
7.66789e-06
2.16294e-05
2.71838e-05
2.91819e-05
2.85566e-05
2.23464e-05
2.23902e-05
2.93838e-05
2.10706e-05
2.88448e-05
2.97091e-05
2.66691e-05
2.15673e-05
2.9386e-05
2.03374e-05
1.90214e-05
1.8864e-05
2.77664e-05
2.61318e-05
2.39262e-05
2.98228e-05
2.8181e-05
2.70246e-05
2.17868e-05
1.82163e-05
3.00681e-05
2.68462e-05
3.01327e-05
2.93467e-05
2.04985e-05
2.596e-05
2.49903e-05
2.57607e-05
2.63266e-05
2.43594e-05
2.53789e-05
3.08337e-05
2.6797e-05
2.49718e-05
2.1354e-05
2.72343e-05
2.60995e-05
2.76628e-05
2.48731e-05
2.02595e-05
2.12669e-05
2.72477e-05
2.79775e-05
2.46095e-05
2.83703e-05
2.36973e-05
2.82315e-05