/*--------------------------------*- C++ -*----------------------------------*\
| =========                 |                                                 |
| \\      /  F ield         | OpenFOAM: The Open Source CFD Toolbox           |
|  \\    /   O peration     | Version:  2212                                  |
|   \\  /    A nd           | Website:  www.openfoam.com                      |
|    \\/     M anipulation  |                                                 |
\*---------------------------------------------------------------------------*/
FoamFile
{
    version     2.0;
    format      ascii;
    arch        "LSB;label=32;scalar=64";
    class       volScalarField;
    location    "0.062";
    object      p;
}
// * * * * * * * * * * * * * * * * * * * * * * * * * * * * * * * * * * * * * //

dimensions      [0 2 -2 0 0 0 0];

internalField   nonuniform List<scalar> 
31639
(
0.0108375
0.00752735
0.0123871
0.00550144
0.00761939
0.0106018
0.0119048
0.0113236
0.00804025
0.00686427
0.0117765
0.00766508
0.0079699
0.0103687
0.00902524
0.0126714
0.0146909
0.0150103
0.00245749
0.0115341
0.00840861
0.0064863
0.00881988
0.00544962
0.00946954
0.0112038
0.0108965
0.0344594
0.0113958
0.0113687
0.00609394
0.016224
0.00810902
0.00438033
0.0197914
0.0113048
0.00649781
0.0118307
0.0118114
0.0096553
0.00770634
0.0110586
0.00863612
0.0119844
0.0123584
0.00514416
0.00774898
0.00610272
0.0132945
0.00556207
0.00512883
0.00409942
0.0202026
0.0122723
0.00401404
0.0149864
0.00657955
0.0109852
0.00753872
0.00525507
0.00576033
0.0110489
0.00918036
0.0113074
0.0199493
0.00325068
0.00198995
0.00631771
0.00785173
0.00489275
0.00694449
0.0148112
0.00678953
0.00293189
0.0202632
0.0160673
0.00697198
0.00645135
0.00747389
0.00711086
0.0108031
0.0103821
0.0102214
0.00567295
0.0101055
0.00934913
0.00863546
0.00610814
0.00201446
0.00811694
0.00462261
0.0147452
0.0053826
0.00718208
0.00344285
0.0109104
0.00585533
0.00414255
0.00787839
0.0104514
0.0184756
0.0186445
0.00951153
0.00722833
0.00400615
0.00499147
0.0106527
0.0052711
0.00614176
0.00956237
0.0118618
0.0103069
0.0110448
0.00649833
0.00288215
0.0115301
0.0199698
0.0122453
0.0177422
0.00579534
0.0163734
0.00500486
0.00260296
0.00552527
0.0105559
0.0103934
0.00744804
0.00561791
0.00685508
0.00830274
0.0196113
0.000861714
0.0125432
0.0029427
0.00353495
0.00628318
0.0065739
0.00717969
0.00516412
0.00575717
0.00569909
0.00849547
0.00926868
0.00530536
0.00772213
0.0100942
0.0187626
0.00658143
0.00974983
0.0201181
0.00589006
0.0135214
0.0042082
0.00379721
0.00492732
0.00374598
0.00277111
0.00690479
0.0131519
0.00624975
0.00342849
0.0148665
0.00669562
0.0110271
0.0157204
0.0157751
0.0123321
0.0137583
0.00433199
0.00302387
0.0143109
0.0103621
0.0140325
0.00806014
0.0100234
0.00671719
0.0090852
0.0163438
0.00630629
0.00952132
0.0078714
0.0130002
0.0110964
0.0115347
0.0115791
0.011339
0.0135177
0.00953612
0.0103725
0.0128763
0.0131029
0.0068173
0.0133308
0.00403894
0.00462244
0.00479126
0.00461737
0.00733978
0.00471566
0.0117025
0.00979892
0.014874
0.0130399
0.0138991
0.00672179
0.00557031
0.00232464
0.0039355
0.0166167
0.00451255
0.00452376
0.00962669
0.0186806
0.010015
0.0120594
0.0101099
0.0101042
0.010084
0.0141669
0.00755903
0.00782012
0.00965046
0.0102094
0.0141517
0.0123236
0.00701193
0.0126897
0.0124542
0.00880886
0.0161499
0.00424505
0.0117087
0.0148686
0.0128857
0.0131799
0.00221667
0.0020346
0.013439
0.0110973
0.00400491
0.0056685
0.012111
0.0140612
0.013266
0.00585723
0.015162
0.00446907
0.0156604
0.0128388
0.00225086
0.000648002
0.00513567
0.0131617
0.0151007
0.00732831
0.0078293
0.0110039
0.0033565
0.0108557
0.0125274
0.0052464
0.00420931
0.00734727
0.0103723
0.00739911
0.0100584
0.00165126
0.0190433
0.0120029
0.0106978
0.0244415
0.00502213
0.0109108
0.0135206
0.00649132
0.0127225
0.00464052
0.0141984
0.00632057
0.00515496
0.0159019
0.0163205
0.0162177
0.0215609
0.0116427
0.0117138
0.0142054
0.0135445
0.00256438
0.0131632
0.0146259
0.00116937
0.00420585
0.00419744
0.012338
0.00363147
0.0147445
0.00196393
0.00577105
0.00670482
0.00622237
0.014193
0.00448611
0.00401218
0.00897901
0.00361313
0.0102682
0.00236658
0.00865501
0.0142369
0.00599993
0.0238155
0.019029
0.00844813
0.00774649
0.0109214
0.0020936
0.0164451
0.0127524
0.0125585
0.01205
0.00502619
0.0183759
0.00369313
0.00991625
0.013402
0.0120549
0.0135608
0.00437085
0.00505084
0.0052375
0.00548894
0.0145083
0.00411735
0.0149186
0.0198141
0.0202826
0.00628322
0.0137296
0.0155885
0.00350526
0.0017113
0.0151292
0.00315612
0.00452162
0.0140484
0.00378607
0.0124184
0.012278
0.018444
0.0069606
0.0141815
0.00690137
0.0130911
0.00398597
0.00520228
0.00447343
0.00902681
0.00915166
0.0136878
0.0149261
0.00914997
0.0237235
0.00253797
0.00634143
0.00570698
0.00305609
0.00909644
0.00973608
0.0135673
0.0088266
0.0165976
0.0103582
0.00488111
0.00328653
0.00546471
0.0190853
0.0159893
0.0132878
0.0167525
0.0126162
0.00410842
0.00619073
0.00408439
0.00378314
0.00359146
0.00442033
0.00761907
0.000323372
0.0151941
0.00222002
0.0168507
0.00447752
0.0141012
0.00388385
0.0144715
0.0153704
0.0115521
0.00551778
0.0223578
0.0150269
0.0118509
0.0112822
0.00373976
0.0133412
0.00201424
0.00585517
0.00591528
0.00615276
0.0115746
0.00505658
0.00596922
0.0132836
0.0245813
0.0121373
0.0133302
0.00977587
0.0104261
0.00933369
0.00775598
0.00748473
0.0184066
0.00891337
0.000778842
0.0132532
0.0242055
0.00856724
0.0179759
0.0103634
0.0124244
0.00540964
0.00449285
0.0141564
0.00510355
0.0112592
0.0112775
0.0137385
0.00334559
0.00412422
0.0147316
0.00622619
0.00217551
0.00263203
0.0101395
0.00350886
0.00631737
0.00666496
0.0154172
0.0150504
0.0163999
0.0153641
0.0133922
0.00651188
0.013753
0.00618099
0.0146185
0.0164174
0.00507357
0.0134206
0.0056226
0.0110366
0.0157462
0.0104348
0.00282775
0.0129494
0.03627
0.0027876
0.00837173
0.00570283
0.0125982
0.00163297
0.0043217
0.00517628
0.00430821
0.013697
0.00110081
0.00865681
0.0176779
0.00781602
0.00905413
0.0052244
0.0193527
0.00335944
0.00713215
0.0184234
0.0236837
0.00857508
0.0122989
0.00999411
0.00668044
0.00515281
0.00390839
0.0162519
0.0018369
0.01064
0.0102464
0.00971124
0.00291562
0.00441968
0.015816
0.0175433
0.00218203
0.00255568
0.00287973
0.00168004
0.0206838
0.00591671
0.00244712
0.0165204
0.0184509
0.0164439
0.00344249
0.0148679
0.0137829
0.0157742
0.00176499
0.0184283
0.0184596
-0.000364841
0.0160177
0.0154822
0.0161063
0.0102242
0.0171619
0.000703457
0.00278522
0.0156936
0.00228935
0.00279607
0.00475308
0.011599
0.00785126
0.0144416
0.000957631
0.00509097
0.0082534
0.0172807
0.00110915
0.0137664
0.00210624
0.0239811
0.0242209
0.00569251
0.0347388
0.0058691
0.00583059
0.00949865
0.00980638
0.00680352
0.00928533
0.0249105
0.00680695
0.0134396
0.000536234
0.00608873
0.00945687
0.00530734
0.0153816
0.00119013
0.00366644
0.00926493
0.00329406
0.00835425
0.00851299
0.00460425
0.0194354
0.00337611
0.00234185
0.000316187
0.010796
0.0177272
0.00264955
0.000518732
0.0032718
0.00360014
0.00283136
0.0164072
-6.9518e-05
0.0010726
0.00072503
0.0148154
0.00183209
0.0154754
0.0158478
0.0165014
0.00481472
3.1748e-05
0.000156279
0.00250596
0.000700174
0.0101291
0.000868426
0.010129
0.0160563
0.00134821
0.00587491
0.0078878
0.0193515
0.0178515
0.0140045
0.00665412
0.00320888
0.0185334
0.0159622
0.00149475
0.00164275
0.00687098
0.0116843
0.00477853
0.000974074
6.44471e-05
0.000794938
0.0153845
0.0129256
0.00589893
0.0356849
0.0126601
0.00991635
0.00681418
0.0107082
0.0137165
0.0135813
0.00949898
0.00605669
0.00757589
0.00784109
0.0128554
0.00297715
0.00923186
0.00107771
0.0100528
0.0235062
0.0162272
0.0151306
0.0112497
0.00883569
0.0213266
0.00995125
0.0119343
0.00529286
0.0189608
0.0178625
0.00258836
0.00984687
0.011136
0.000179931
0.0217435
0.00599655
0.00100914
0.00291653
0.00165485
0.0193274
0.0176426
0.0180265
0.00272132
8.62066e-05
0.0152464
0.0102474
0.0161313
0.0165377
0.0166577
0.00107981
-3.99374e-05
0.0156965
0.0137529
0.0142339
0.0166246
0.00092089
0.00592169
0.0244252
0.0034423
0.00197236
0.0170787
0.00969435
0.0040506
0.0155658
0.0153196
0.0125268
0.00719016
0.00481699
0.0113443
0.00656458
0.000296046
0.000613701
0.0012559
0.00481653
0.0018079
0.019328
0.00684705
0.000514692
0.000605235
0.0148262
0.00521137
0.00062501
0.0359715
0.00485439
0.00577448
0.00779825
0.00879833
0.00743749
0.00953626
0.00898263
0.00604682
0.00695075
0.0100122
0.00640583
0.00597298
0.00676822
0.00893362
0.017044
0.0096603
0.00913021
0.0149567
0.0193462
0.0165701
0.00455582
0.00899197
0.00256885
0.0101485
0.0201984
0.000756701
0.00185674
0.00171153
0.00516352
0.00599503
0.0148575
0.014279
0.00421605
0.00171683
0.0115968
0.0192654
0.000452261
0.0159003
0.00630826
0.0146692
0.0134061
0.0142266
0.018217
0.0168983
0.021914
0.0155404
0.0129782
0.0160972
0.014575
0.0150661
0.00542553
0.0189967
0.00532021
0.00139124
0.00353936
0.0147835
4.77922e-05
0.0121775
0.00288272
0.00400388
0.012261
0.00732872
0.0183227
0.00339476
0.0128185
0.00414449
0.0210846
0.00607819
0.000469697
0.000864715
0.0171978
0.0115055
0.000778833
0.00187526
0.00105866
0.00362616
0.000497333
0.000232023
0.0144836
0.0140572
0.000128059
0.0140763
0.0124338
0.0150609
0.00823345
0.00812619
0.00656924
0.0105674
0.011103
0.00512948
0.000823858
0.00970537
0.0132744
0.00982729
0.0181443
0.0163244
0.00972738
0.0159146
0.00599538
0.0244524
0.00286025
0.0159553
0.00955275
5.14011e-05
0.0108698
0.00278199
0.00584467
0.00239033
0.00237306
0.012187
0.0173383
0.00422823
0.015286
0.000740402
0.000694904
0.000786764
0.0201459
0.0203337
0.0193186
0.020793
0.0171017
0.0157967
0.00530163
0.00336624
0.00585354
0.00154766
0.0113039
0.00506563
0.0133184
0.00735611
0.00588985
0.00181864
-0.000124656
0.00430571
0.00229392
0.0180402
0.00782103
0.0042179
0.00405883
0.00750486
0.000699617
0.0126981
0.00409871
0.0158738
0.00303023
0.00204126
0.0104005
0.0103544
0.016182
0.0192187
0.016787
0.0127782
0.00716408
0.00778375
0.0152569
8.57559e-05
0.000851035
0.014986
0.0153266
-0.000132669
0.000304116
0.00213
0.0151003
0.00393928
0.00917755
0.0194202
0.0190319
0.00971014
0.0227463
0.00731979
0.0063191
0.0065206
0.00419728
0.00260156
0.0159715
0.00269272
0.00970907
0.0117692
0.0179554
0.00565334
0.00655387
0.00620642
0.0144798
0.014675
0.0146554
0.0208288
0.00193156
0.0169197
0.0166511
0.0170035
0.00921444
0.000322947
0.0200482
0.0206202
0.0189853
0.0111971
0.0118763
0.0129057
0.0120574
0.0144296
0.0110689
0.000456952
0.0151026
0.00702953
0.00480281
0.0153883
0.00115906
0.000675042
0.00268494
0.00254139
0.0183981
0.00740143
0.00268831
0.00376388
0.00670448
0.0136374
0.00637826
0.00585934
0.0122946
0.00858186
0.000241758
0.0158434
0.0100276
0.0166705
0.0083576
0.0017347
0.0128791
0.0128236
0.000636997
0.00739689
0.00686898
0.000474139
0.000595667
0.0156977
0.0180196
0.00725743
0.00942544
0.00107022
0.0166737
0.0207907
0.0174449
0.0120461
0.00560964
0.0164494
0.0124002
0.00649685
0.00909509
0.00503199
0.00513012
0.00809022
0.0154581
0.00277388
0.0101281
0.00636322
0.00574649
0.000174975
0.0172988
0.00676065
0.0178466
0.00490589
0.0146183
0.0168113
0.00839217
0.00839672
0.0176018
0.0142344
0.0160274
0.00619618
0.00716805
0.0141308
0.0134717
0.0106982
0.0113673
0.0164956
0.0168819
0.0222443
0.0130468
0.0147267
0.000912503
0.000579446
0.0151148
0.0137957
0.00709155
0.0164076
0.00233811
0.0115097
0.0128527
0.0161637
0.00198294
0.0165622
0.0150462
0.017905
0.0170523
0.0178091
0.00838252
0.0153282
0.00679165
0.0118229
0.0114294
0.0108642
0.0185556
0.0171776
0.0166443
0.014065
0.00761118
0.00991658
0.010946
0.0168687
0.0108291
2.26796e-05
0.017564
0.0193595
0.00912935
0.00768128
0.00322454
0.00225465
0.00641553
0.0170404
0.00532382
0.00569347
0.0210442
0.00853628
0.0031483
0.00435879
0.000351811
0.00815574
0.00922259
0.00839331
0.0157685
0.000535108
0.0182164
0.00163479
0.0176826
0.0171072
0.0208963
0.00803196
0.00829192
0.00703381
0.0132358
0.0117736
0.0137037
0.0212551
0.0154679
0.0161841
0.0108593
0.0131863
0.00779685
0.0138664
0.0120307
0.00264144
0.00240567
0.00967243
0.000747077
0.00688281
0.0183845
0.0193706
0.00349753
0.0177751
0.0115285
0.0186127
0.0102702
0.0105054
0.00139388
0.000770283
0.0135623
0.0122716
0.00590173
0.0077704
0.00734521
0.011396
0.00786763
0.0154007
0.0164831
0.0211675
0.0162752
0.0175455
0.0106258
0.00747225
0.00873236
0.000769902
0.00150397
0.0028603
0.00768735
0.00694417
0.0121993
0.00718082
0.0128436
0.014576
0.0161498
0.00742976
0.0046079
0.0215368
0.011284
0.0193271
0.0191308
0.00847563
0.0195076
0.0019618
0.0164713
0.00492008
0.00923753
0.00366314
0.00717397
0.00806462
0.0184788
0.0188151
0.000596124
0.0169064
0.0202423
0.0231005
0.00749573
0.0142624
0.0163192
0.0165672
0.00667572
0.00719936
0.0154194
0.0232883
0.0153391
0.00282256
0.0135338
0.022788
0.0132035
0.0129118
0.0125916
0.00627974
0.0191018
0.0165137
0.0192724
0.00165582
0.0138845
0.00109008
0.0113827
0.0161505
0.00345647
0.0162263
0.00507095
0.0154676
0.0210327
0.00908335
0.000433417
0.0103119
0.0109993
0.000632345
0.00681602
0.00688451
0.0108346
0.00795787
0.0219064
0.0177384
0.00697385
0.0068733
0.0171564
0.00965454
0.016409
0.021315
0.0166295
0.00053887
0.000540282
0.0175569
0.0152705
0.0106726
0.0119281
0.0136562
0.0113201
0.0117681
0.0192553
0.0168599
0.0202467
0.015214
0.013313
0.00185889
0.0194679
0.00256994
0.00736074
0.0181999
0.0194875
0.0157418
0.00822881
0.00736069
0.000388377
0.0170401
0.0105207
0.0180849
0.00992393
0.0191599
0.02023
0.0127838
0.0136611
0.00814065
0.00395776
0.0221272
0.0105292
0.0135162
0.0105224
0.00970378
0.0141015
0.0223733
0.0129517
0.0121001
0.0239938
0.00208025
0.0189166
0.0116697
0.0232681
0.0120594
0.00969269
0.0187774
0.019247
0.0034327
0.00715914
0.00398181
0.00492917
0.0166373
0.00880155
0.00956884
0.000374208
0.00763869
0.0277904
0.00785581
0.00821248
0.0113451
0.0117051
0.011062
0.0174894
0.0180188
0.0129869
0.00695728
0.0177797
0.00997366
0.0184094
0.0164457
0.0166161
0.0183033
0.0186781
0.0171498
0.006547
0.000490549
0.0197332
0.00594408
0.0206967
0.0230651
0.0216421
0.0078601
0.0197377
0.0132492
0.00207434
0.00170068
0.00287015
0.0176071
0.0182495
0.0181349
0.0168154
0.0202337
0.00828012
0.00679852
0.0184799
0.0204486
0.00972881
0.0181862
0.0195181
0.0129487
0.00748618
0.0222312
0.0198493
0.0170705
0.0138365
0.01768
0.0145037
0.0190233
0.00156845
0.0145657
0.0171105
0.0195201
0.0138845
0.018594
0.00929268
0.0233875
0.0145598
0.00190889
0.0177081
0.00423173
0.000106087
0.00400023
0.0139412
0.0118659
0.0137963
0.0177596
0.0192737
0.00724961
0.015226
0.00867135
0.0118099
0.011206
0.0110116
0.006784
0.0180469
0.0121359
0.0126383
0.0179553
0.0125898
0.00624791
0.00599764
0.0126401
0.0132958
0.0120867
0.0168401
0.0172581
0.000981897
0.0119304
0.0179725
0.0170877
0.0123646
0.0126546
0.0104071
0.0129463
0.0225782
0.00112079
0.00618739
0.0188548
0.00289277
0.00830277
0.00898961
0.00856156
0.0209681
0.0221904
0.00277412
0.0227472
0.0202685
0.0145343
0.0144783
0.020544
0.0150202
0.0190058
0.0178344
0.00352067
0.00791074
0.0216079
0.000383761
0.000640854
0.0207048
0.0192974
0.0034094
0.0205301
0.0150788
0.0131336
0.00856764
0.0194476
0.01892
0.00686935
0.017986
0.0166494
0.0146664
0.0131167
0.000771377
0.00136004
0.00100774
0.0151302
0.0173486
0.0111771
0.0196873
0.0223648
0.0108064
0.00958968
0.00669742
0.00400927
0.0239378
8.86564e-05
0.00274018
0.00858269
0.00102344
0.000218296
0.000397499
0.00918778
0.00671708
0.000801869
0.0296595
0.0188178
0.0141432
0.021994
0.01228
0.0236375
0.00385728
0.00759672
0.00793925
0.0228659
0.0228811
0.0123605
0.00645958
0.0129195
0.0116665
0.0152507
0.0141745
0.0147381
0.0173129
0.00127541
0.0184767
0.0185524
0.0187501
0.018249
0.015312
0.015075
0.0116181
0.0107055
0.0195954
0.0170257
0.00546147
0.00426589
0.0115219
0.0165423
0.0219145
0.00531324
0.00618989
0.00639102
0.0164529
0.0207776
0.0219489
0.0217388
0.00170044
0.00100172
0.0204436
0.000648992
0.0201582
0.0209659
0.00422038
0.00587943
0.0026442
0.0195633
0.0074332
0.0171757
0.0134735
0.0135253
0.0211684
0.0215611
0.0096797
0.0236525
0.0234348
0.015958
0.0146416
2.84809e-05
0.000561433
0.0162731
0.0147178
0.0177281
0.0231676
0.0354441
0.0235677
0.0185807
0.0235897
0.0187201
0.00228939
0.0171829
0.0198319
0.00266403
0.0187373
0.0045435
0.000471405
0.0183648
0.000617907
0.0084904
0.00922836
0.00913946
0.00840367
0.000388503
0.00179478
0.00576015
0.0224101
0.0209421
0.0151408
0.00897349
0.0113769
0.00717556
0.00899268
0.00667801
0.00873694
0.00857506
0.00771078
0.01602
0.0137511
0.018378
0.013601
0.0184225
0.00125066
0.018027
0.00090225
0.0238296
0.0185988
0.0121895
0.0153109
0.00740559
0.00973775
0.00339605
0.00246679
0.00596886
0.00400348
0.0109802
0.0180619
0.00843059
0.0141248
0.0128946
0.00503523
0.0126696
0.0223481
0.00130649
0.0028722
0.00118946
0.0147207
0.0210139
0.0169934
0.00549492
0.00428096
0.0208252
0.00263633
0.0207829
0.0196135
0.0359894
0.0208511
0.0206118
0.0235304
0.0221304
0.0211621
0.0165406
0.00423565
0.0171101
0.00405689
0.0175162
0.0181805
-2.66487e-05
0.0221952
0.0103654
0.00206917
0.0173607
0.0201836
0.0170499
0.0196362
0.0171112
0.0086736
0.0106049
0.0165176
0.0186278
0.0203924
0.0218909
0.000646967
0.00287087
0.0139447
0.0185076
0.0173438
0.0153893
0.0162983
0.00119514
0.0153956
0.00829124
0.00865121
0.00847793
0.00739961
0.00975857
0.0118205
0.000485332
0.0188447
0.0196761
0.0165928
0.00109861
0.0195427
0.0118689
0.0124824
0.0140708
0.0147295
0.0171801
0.0134021
0.0302045
0.00342078
0.0122547
0.0190819
0.0146967
0.0146815
0.00283954
0.0133216
0.0209811
0.0232858
0.0172295
0.00789413
0.0203155
0.00721412
0.0135782
0.0216342
0.022792
0.0135338
0.0230545
0.0228615
0.022695
0.0211309
0.014329
0.0220049
0.0208663
0.0182926
0.00815761
0.0164305
0.00647324
0.00176884
0.0168131
0.00533396
0.0214856
0.0218971
0.0212805
0.0198036
0.0125457
0.0199592
0.0226783
0.00700013
0.00494488
0.0097447
0.0241593
0.0164312
0.0158551
0.00404236
0.00351397
0.0190227
0.00120625
0.0115324
0.0236649
0.0203435
0.0172546
0.0178851
0.0107236
0.00949054
0.00246756
0.0184263
0.000263823
0.00671767
0.0206601
0.00085746
0.00255495
0.00401658
0.00521888
0.00306313
0.014497
0.0164133
0.0190532
0.0124807
0.00767223
0.0275357
0.00763888
0.00880536
0.00942668
0.0198913
0.0179132
0.0225726
0.0202949
0.00632547
0.011312
0.0109557
0.0109593
0.012781
0.0155699
0.0156038
0.0181646
0.0172382
0.0162233
0.0118951
0.00881524
0.00893239
0.00215008
0.017083
0.0203501
0.00727834
0.00299769
0.0304574
0.0114879
0.0207695
0.0140425
0.021134
0.0253058
0.0164013
0.00734187
0.00622797
0.0134746
0.0222524
0.0213263
0.00554453
0.0238202
0.000182317
-0.000240122
0.0206264
0.022938
0.0114403
0.00947375
0.0192292
0.00487957
0.0214533
0.0232292
0.00935481
0.0189834
0.0197051
0.0292713
0.00530656
0.0222817
0.0130054
0.0135878
0.0186896
0.0223354
0.00244697
0.0174298
0.0238423
0.0231978
0.0248223
0.00529683
0.0194532
0.0189889
0.00274015
0.0154155
0.022355
0.0158984
0.00220599
0.00691064
0.0146132
0.00479019
0.016148
0.00679417
0.000566406
0.000745733
0.00980246
0.00281436
0.0211629
0.0123749
0.00539342
0.00943263
0.021937
0.0219884
0.0194682
0.0204119
0.0216464
0.0124794
0.00223559
0.00465553
0.0107978
0.0184784
0.0185471
0.0190507
0.0192548
0.0131055
0.0128825
0.0116517
0.0160277
0.0141957
0.0143139
0.0154425
0.023327
0.0168123
0.0185706
0.0158101
0.0175331
0.0173255
0.00873061
0.0170112
0.0132857
0.00820513
0.0119395
0.0269417
0.0134643
0.0300368
0.017844
0.00513819
0.00796142
0.0156904
0.0255361
0.0143726
0.0135567
0.00607497
0.0178942
0.000532566
0.00150508
0.000290128
0.0221307
0.0217719
0.0223591
0.0115114
0.0241507
0.00429651
0.0228996
0.0232139
0.0223674
0.00228916
0.0254939
0.0225488
0.00169481
0.0238861
0.0135998
0.0142872
0.0133575
0.0186299
0.0202112
0.0166258
0.0174558
0.0185038
0.0114322
0.0110059
0.00283559
0.0232034
0.0182833
0.0208645
0.0160142
0.0203262
0.0226911
0.00842516
0.0219067
0.00223217
0.0163397
0.00776434
0.000863333
0.000136403
0.00983497
0.0204628
0.00770614
0.018677
0.0190245
0.00641643
0.0200336
0.00743749
0.0239819
0.0190334
0.0236827
0.0178249
0.00966378
0.0187938
0.0196889
0.0218181
0.00502016
0.0193839
0.0193858
0.0203069
0.0217755
0.0155637
0.0205953
0.0165943
0.00221857
0.0197688
0.00493889
0.0147178
0.0155547
0.0106653
0.0170546
0.0257642
0.0129937
0.0119877
0.012683
0.00878425
0.0165376
0.00612755
0.0109764
0.0202406
0.0095722
0.0191346
0.00572379
0.0204578
0.0170557
0.00530835
0.0144563
0.0211383
0.00559827
0.0167686
0.0110272
0.00148162
7.74903e-05
0.00148566
0.0213944
0.0140535
0.0160234
0.0122128
0.0119491
0.0214382
0.0232354
0.0225309
0.0170541
0.0221811
0.0181602
0.0234546
0.0123537
0.0238884
0.023699
0.023742
0.0230162
0.0223347
0.00270046
0.0187857
0.0224194
0.0170483
0.0154455
0.0249381
0.0224802
0.011295
0.0233153
0.00233733
0.0211622
0.0221927
0.0154617
0.0147983
0.0200103
0.0209786
0.0199712
0.000987507
0.0233332
0.0176496
0.00665645
0.000324928
0.0230888
0.00708519
0.00295573
0.00192469
0.000249443
0.016576
0.0052452
0.0277513
0.00844506
0.0199309
0.0106452
0.00809028
0.011647
0.0194904
0.00832937
0.0231369
0.0192607
0.0112933
0.0215961
0.0193407
0.0165795
0.025887
0.0175106
0.0222516
0.0142817
0.02399
0.0142217
0.0141513
0.00300314
0.018093
0.0170248
0.018038
0.0207976
0.0152197
0.0240521
0.0180134
0.0175187
0.00242479
0.00535176
0.0241385
0.0126983
0.00470047
0.012769
0.0318367
0.00772298
0.0249414
0.0057877
0.00114062
0.00962362
0.0099821
0.00883702
0.0165129
0.00504994
0.0154047
0.0193521
0.013742
0.00456162
0.00493396
0.022637
0.0013853
0.0168576
0.0156723
0.0103728
0.0211213
0.0252012
0.0109402
0.0210871
0.0197613
0.0174398
0.000342291
0.0170473
0.0190533
0.0225654
0.0230017
0.0259474
0.0241357
0.00298419
0.00196745
0.0244046
0.00287466
0.0218251
0.0233511
0.0216908
0.0046987
0.0266353
0.0102332
0.0193222
0.0232263
0.0209582
0.0216236
0.020746
0.0197631
0.018074
0.0106157
0.0198153
0.015015
0.00174469
0.00985714
0.0217603
0.0197816
0.0255485
0.0269194
0.00136769
0.014044
0.00228147
0.00438725
0.0226943
0.00431966
0.00370153
0.0238414
0.00549199
0.00935211
0.013715
0.0230889
0.000239622
0.022522
0.0194022
0.0106468
0.0221285
0.0235653
0.0122218
0.0222165
0.017992
0.0238322
0.022167
0.0218185
0.0161297
0.0247353
0.0171968
0.00497461
0.00523713
0.02399
0.0178942
0.0219197
0.0266039
0.0197593
0.0210449
0.0262328
0.00522871
0.023807
0.0232714
0.0239463
0.0131045
0.0346445
0.0040267
0.00674052
0.0105943
0.00979153
0.0258946
0.00782064
0.0189791
0.0150712
0.0157409
0.0147275
0.00532542
0.00961503
0.00626296
0.0225379
0.0010225
0.0239873
0.0244784
0.0247228
0.0117061
0.0205272
0.0305902
0.0190746
0.0016944
0.0220337
0.00734505
0.00921994
0.0252056
0.011825
0.0248968
0.0253313
0.0169746
0.00265124
0.0225052
0.0215695
0.0223674
0.0166232
0.0221218
0.0221341
0.0213502
0.0188563
0.0194075
0.0199783
0.0200675
0.0164973
0.0153212
0.0015424
0.0229791
0.0139134
0.0149514
0.0162773
0.00826923
0.0069311
0.0277415
0.0216196
0.019806
0.0251587
0.0260156
0.00971295
0.00396037
0.00671827
0.0272666
0.0140297
0.0071412
0.0233545
0.00604457
0.0203449
0.0116398
0.0050822
0.00486696
0.0190383
0.011052
0.020887
0.000862156
0.0183786
0.00189733
0.0199109
0.0113835
0.0166257
0.0170677
0.0162081
0.0209742
0.0203184
0.0229138
0.00704096
0.0312225
0.0301271
0.0265374
0.0183121
0.0180759
0.0140582
0.0191463
0.0213548
0.0225015
0.0256486
6.21342e-05
0.0099744
0.0110231
0.0339771
0.0229965
0.00284441
0.0236821
0.00287199
0.0134907
0.0154821
0.00943634
0.00686991
0.0266725
0.0217248
0.00734604
0.0145479
0.0275073
0.00935927
0.00574571
0.000469448
0.0134355
0.00198887
0.0247522
0.00587314
0.0262727
0.0311568
0.00804366
0.0219136
0.000290858
0.000313812
0.00760467
0.0253402
0.0253431
0.0241267
0.0214453
0.0015813
0.0165772
0.0356624
0.0158371
0.0213548
0.0203439
0.0211349
0.0214001
0.0169797
0.0234107
0.0208446
0.00728604
0.00177588
0.00201856
0.00203577
0.0199781
0.022329
0.0124918
0.0222831
0.00522664
0.00542504
0.00616947
0.0192196
0.0260056
0.0256236
0.0269021
0.0152455
0.00753039
0.0236224
0.00714369
0.0191342
0.0207588
0.0214575
0.0117139
0.0235946
0.0106669
0.0195687
0.0203352
0.0194279
0.0102586
0.0145421
0.0361824
0.00907245
0.00230374
0.0185415
0.0158419
0.0198128
0.0127311
0.014879
0.0160905
0.0171851
0.014194
0.0207155
0.0299069
0.0153621
0.0232603
0.0106917
0.0191126
0.0145067
0.0184285
0.0200469
0.018861
0.0254005
0.00352678
0.024941
0.016546
0.000768759
0.0108213
0.0261459
0.0234497
0.013824
0.00330106
0.0212337
0.0076602
0.026882
0.00771496
0.0219361
0.0207987
0.0243444
0.0185637
0.0225125
0.015426
0.00257038
0.0202227
0.002262
0.0245521
0.000235099
0.000849039
0.00509471
0.0018258
0.0167919
0.000852492
0.0271266
0.0273248
0.0229627
0.0236629
0.0257037
0.0257657
0.024896
0.0252095
0.00703255
0.0274635
0.0248459
0.00544405
0.0235421
0.0289491
0.0161851
8.82885e-05
0.0226954
0.024628
0.0212074
0.0197933
0.0223109
0.0264963
0.00249477
0.0232968
0.00115208
0.000607953
3.27107e-05
0.020319
0.0143871
0.00627433
0.0117848
0.0230738
0.0341431
0.0162177
0.0211463
0.0216828
0.0263238
0.00216287
0.0360476
0.0243193
0.00705972
0.017276
0.00837676
0.0181772
0.0222502
0.00852174
0.0239847
0.0186593
0.0101157
0.0159201
0.00974801
0.0197059
0.0158055
0.0252633
0.0259978
0.00737634
0.0134837
0.0164059
0.0159941
0.0216659
0.0304437
0.0110576
0.0215617
0.0165538
0.0108727
0.0140082
0.027532
0.0155196
0.0141677
-0.000170967
0.0292613
0.028617
0.000929601
0.0236201
0.00177799
0.0177785
0.0270075
0.0039969
0.0250919
0.0250087
0.0266541
0.0255771
0.0205629
0.0211397
0.0229669
0.00624693
0.0222633
0.00780003
0.00205464
0.0117734
0.00315177
0.0211501
0.0228955
0.0097417
0.00969453
0.0118754
0.0267427
0.00299328
0.0228745
0.013607
0.0264459
0.0187594
0.025831
0.0249261
0.0278735
0.0247427
0.00115684
0.0164678
0.0246216
0.0172285
0.0224554
0.0216578
0.00454474
0.0259982
0.0197263
0.027211
1.79593e-05
0.0247744
0.00628476
0.0133437
0.00178004
0.0211515
0.0204534
0.0320115
0.0195901
0.00654773
0.024248
0.0230953
0.000711292
0.00050131
0.0315114
0.0216441
0.00751362
0.0351322
0.00864909
0.0136327
0.0236439
0.000299317
0.00272496
0.0360954
0.00687367
0.0103615
0.0102097
0.0168395
0.023106
0.0133128
0.00967967
0.023678
0.026594
0.0245367
0.0229219
0.0134769
0.0231013
0.0162772
0.00998813
0.0203955
0.0200509
0.016302
0.018445
0.0133862
0.0125716
0.0233362
0.0239143
0.0243383
0.0202425
0.0287421
0.019567
0.020294
0.0191009
0.0200264
0.0242253
0.0174073
0.00387285
0.0263561
0.0255011
0.023814
0.00403239
0.0226419
0.0197866
0.0221174
0.0201692
0.0269818
0.0236816
0.00308299
0.00953488
0.0266996
0.0268932
0.0290447
0.00262009
0.0130135
0.00914057
0.0249187
0.0241217
0.0258045
0.0288438
0.029157
0.0250799
0.0286373
0.0246613
0.0242263
0.0156007
0.0258652
0.0218718
0.0285641
0.0345376
0.0216728
0.0202448
0.0357591
0.017863
0.012731
0.0266089
0.0147045
0.0286297
0.000801605
0.022201
0.0137537
0.0328637
0.0214715
0.0204943
0.0272321
0.0130884
0.000857518
0.0120213
0.0331778
0.000188176
-0.000169504
0.0219555
0.00853507
0.00923373
0.00908841
0.00652391
0.00553523
0.00618743
0.00496977
0.00977062
0.0254087
0.0284228
0.00285471
0.0256591
0.0227319
0.00223232
0.0216031
0.0262978
0.0266372
0.0150487
0.0185514
0.0141175
0.026172
0.014735
0.0225977
0.020214
0.0150337
0.0209415
0.0255248
0.0144804
0.0141477
0.020772
0.0204211
0.0173395
0.0278219
0.00323171
0.0292849
0.017875
0.0152526
0.0167694
0.0263525
0.0115026
0.00886593
0.0264361
0.0234614
0.0241175
0.0257206
0.0328954
0.0296867
0.0265431
0.0240366
0.0261961
0.0275629
0.0267226
0.0165798
0.0281106
0.0268104
0.00782223
0.0239895
0.0177841
0.0280265
0.0232901
0.0275915
0.0138602
0.0248517
0.0175683
0.0204346
0.0258218
0.0279204
0.00752194
0.0227971
0.0181836
0.0175177
0.0185409
0.0285185
0.0234087
0.0246511
0.000467746
0.0209634
2.81979e-05
0.0245305
0.002012
0.0337579
0.00849699
0.0174614
0.00683465
0.00658138
0.00594534
0.0226689
0.0246286
0.0169053
0.0173299
0.0226068
0.0154343
0.0258134
0.0265567
0.0192829
0.029074
0.0251864
0.0292506
0.0253256
0.0237088
0.0272406
0.0154172
0.0199813
0.0206054
0.0163779
0.00364
0.027451
0.0269193
0.0319608
0.00833701
0.0252295
0.0225081
0.00894231
0.0205373
0.0250404
0.0219215
0.0284756
0.027002
0.0258168
0.0281335
0.0209562
0.0268896
0.0280753
0.0271634
0.0266338
0.0222853
0.0249395
0.0197316
0.0287833
0.0241604
0.0360607
0.0354035
0.0233035
0.0285001
0.0228739
0.0225155
0.0219155
0.0187885
0.0264241
0.0234385
0.0252791
0.0263515
0.0288628
0.0254294
0.0216527
0.0241791
0.024189
0.0281572
0.0233855
0.0249141
0.0265035
0.0275441
0.00194204
0.025531
0.00269544
0.00308529
0.00342863
0.00174569
0.0251075
0.00534283
0.000628538
0.0185187
0.0248702
0.0340712
0.0347175
0.0287408
0.023046
0.0282086
0.0153426
0.0317712
0.0203617
0.0223918
0.0243644
0.0263364
0.0173129
0.0260328
0.027242
0.0197358
0.0211984
0.027069
0.0213435
0.0311843
0.0271914
0.0302059
0.00934244
0.00172647
0.0252175
0.0250039
0.0245965
0.0303664
0.0257691
0.0309207
0.0258601
0.0278112
0.0162626
0.0289023
0.0208738
0.0278498
0.0221644
0.0281957
0.0290361
0.0177034
0.0256667
0.0190432
0.0265815
0.0190441
0.0268838
0.0233414
0.0224997
0.0268065
0.0259886
0.0233074
0.0260539
0.017755
0.0309627
0.0242236
0.025672
0.0265099
0.0276469
0.00754462
0.0187587
0.0280187
0.00275922
0.00361461
0.0285054
0.0251399
0.000427723
0.0341425
0.0227251
0.0314416
0.0247471
0.0215663
0.0215397
0.0297384
0.0249057
0.0213902
0.0225504
0.0242536
0.0248373
0.0246051
0.0319591
0.027334
0.0274542
0.0184971
0.0185505
0.0288934
0.0233863
0.0273627
0.0273207
0.0308729
0.0341636
0.0324535
0.0217817
0.0289693
0.022881
0.026836
0.0262982
0.022496
0.0102616
0.0284468
0.034442
0.0279278
0.0214801
0.0247603
0.0214846
0.0354742
0.0198326
0.0254625
0.0215449
0.0225493
0.0269782
0.0284697
0.0227193
0.0272306
0.0266914
0.0242479
0.0276763
0.0268711
0.0267909
0.024021
0.0289606
0.0290688
0.0285638
0.0245121
0.0282126
0.0282607
0.0279692
0.00899584
0.0286457
0.0203288
0.0210337
0.0258294
0.0308367
0.0205033
0.0249876
0.0289651
0.0245159
0.0250862
0.0217155
0.0324492
0.024185
0.0283788
0.0205512
0.020654
0.0248394
0.0287113
0.0204898
0.0244333
0.0242856
0.0282335
0.02867
0.0244996
0.0247374
0.030777
0.0306587
0.0252784
0.030308
0.0296831
0.0267217
0.0305525
0.0124829
0.0303927
0.0287336
0.0283082
0.0285628
0.027221
0.0284949
0.0314808