/*--------------------------------*- C++ -*----------------------------------*\
| =========                 |                                                 |
| \\      /  F ield         | OpenFOAM: The Open Source CFD Toolbox           |
|  \\    /   O peration     | Version:  2212                                  |
|   \\  /    A nd           | Website:  www.openfoam.com                      |
|    \\/     M anipulation  |                                                 |
\*---------------------------------------------------------------------------*/
FoamFile
{
    version     2.0;
    format      ascii;
    arch        "LSB;label=32;scalar=64";
    class       surfaceScalarField;
    location    "0.062";
    object      phi;
}
// * * * * * * * * * * * * * * * * * * * * * * * * * * * * * * * * * * * * * //

dimensions      [0 3 -1 0 0 0 0];

oriented        oriented;

internalField   nonuniform List<scalar> 
68568
(
-1.53819e-07
1.58592e-07
-2.98795e-08
2.51068e-08
1.47811e-07
-7.55555e-08
-7.83072e-08
6.0515e-09
1.79298e-07
-1.37e-07
-6.05307e-08
1.82325e-08
-4.63593e-09
2.24471e-09
-1.72268e-07
1.74659e-07
-1.31064e-09
1.44359e-07
1.05509e-09
-1.44103e-07
1.41585e-07
-4.39293e-10
-1.3048e-07
-1.06657e-08
8.50809e-08
-9.00503e-08
1.32567e-07
-1.27597e-07
-4.03218e-08
-2.7674e-08
1.53077e-07
1.33784e-07
-1.60295e-08
-1.12772e-07
-4.98224e-09
1.51794e-07
5.46215e-08
-5.86048e-08
1.02776e-07
1.3995e-07
-6.34277e-08
-6.52102e-08
-2.06033e-07
1.95687e-07
-1.42421e-07
6.98769e-08
-5.76278e-09
1.86647e-07
-1.92112e-07
1.3739e-08
-8.27381e-09
-7.1426e-08
-5.23514e-08
1.22668e-07
1.10953e-09
1.30874e-07
8.94797e-08
-1.33086e-07
-8.72678e-08
-5.21961e-08
-8.05375e-08
1.17334e-07
1.53992e-08
1.14215e-07
-1.19554e-07
-4.68575e-08
1.14113e-07
-4.38406e-09
-7.03485e-10
-1.09026e-07
8.7188e-08
-1.58091e-07
7.92113e-08
-8.30825e-09
1.14864e-07
-4.4902e-10
-1.1439e-07
-2.46696e-11
-1.83309e-08
9.24963e-09
1.4408e-07
-1.34999e-07
-4.69112e-08
1.94316e-07
-2.79611e-08
-1.19444e-07
-8.26656e-10
-5.56727e-10
-1.3928e-07
1.40663e-07
-7.62449e-08
-4.99414e-08
1.19065e-07
7.12138e-09
-9.95319e-08
-4.1e-08
-1.32874e-08
-6.65791e-08
1.45104e-07
8.66309e-09
7.93975e-08
4.64211e-08
-3.19935e-08
-9.38252e-08
-7.02894e-08
-1.01662e-07
1.31629e-07
5.03574e-08
-1.23918e-07
3.27141e-09
1.57785e-07
-8.38343e-08
-1.48597e-07
7.46464e-08
-1.34834e-08
2.45298e-09
1.19926e-07
-1.08895e-07
1.61203e-07
-3.37395e-08
-1.1527e-08
-1.15936e-07
1.22419e-07
-9.37656e-08
-6.04697e-08
3.18159e-08
-9.26776e-10
1.12144e-07
-1.1145e-07
2.32285e-10
1.25459e-07
8.70272e-08
-8.7145e-08
5.99344e-10
-4.81556e-10
4.44539e-08
-1.64558e-07
9.57652e-08
2.43387e-08
-1.66295e-07
1.44529e-07
6.62209e-08
-7.57426e-08
-1.75485e-10
-3.26801e-10
-8.69594e-10
1.16849e-07
-1.11508e-09
1.15936e-07
-1.15421e-07
-6.8181e-10
1.67107e-10
-2.71509e-08
-1.62182e-07
1.23485e-07
2.00169e-07
-1.52153e-07
-1.71501e-07
-6.37841e-08
-1.07074e-07
3.01733e-07
-1.50836e-07
1.68352e-07
-1.41322e-07
1.23807e-07
-1.27274e-07
6.74257e-08
-5.36182e-09
1.1874e-07
-1.15931e-07
-3.7249e-09
9.15206e-10
1.00953e-07
2.59812e-08
1.21042e-08
-1.39039e-07
2.31315e-09
-1.56618e-07
1.51888e-07
3.4969e-08
-3.02393e-08
-8.87222e-09
-9.59506e-08
1.04496e-07
3.26816e-10
-1.12882e-07
1.4172e-07
1.76302e-07
-2.02452e-07
-3.93441e-10
-1.77209e-10
2.15432e-09
-1.70707e-09
1.12321e-07
-1.12768e-07
4.04574e-08
-1.19047e-07
-1.94775e-09
9.43452e-08
-1.00694e-07
3.7502e-09
2.59841e-09
-8.82794e-08
1.46371e-07
-6.42639e-08
6.17193e-09
1.51286e-07
-7.82995e-08
-7.64307e-08
3.44432e-09
9.29938e-08
-9.33137e-08
-5.06722e-10
-1.1559e-07
-1.75629e-09
1.19591e-07
7.84866e-08
7.38187e-08
-7.99989e-09
-1.44305e-07
-6.23579e-09
1.39516e-07
-1.34194e-07
9.13824e-10
9.12054e-08
-1.54709e-07
-3.07511e-09
1.11846e-07
-1.80806e-08
3.46229e-08
-1.28388e-07
1.54632e-07
-2.42406e-08
-1.75265e-07
4.48738e-08
4.18621e-08
8.48903e-08
-1.26393e-08
6.63358e-08
-1.31516e-07
7.20375e-08
-6.85764e-09
1.38588e-07
-1.39786e-07
-1.11961e-10
-1.03876e-07
1.48306e-07
-3.27948e-08
-1.16349e-08
-2.11814e-07
-1.55044e-07
2.96531e-07
7.03265e-08
-1.31039e-07
-2.38998e-09
1.37479e-07
-6.43612e-09
1.38873e-07
-1.47342e-07
-5.55638e-08
6.40325e-08
-1.29569e-07
6.6921e-08
6.86442e-08
-5.99656e-09
3.24202e-09
-5.62227e-08
-5.01253e-08
-1.03674e-07
1.03779e-07
-4.96337e-10
3.91808e-10
4.13679e-08
1.79205e-07
-6.92872e-08
1.07892e-07
-6.52552e-08
5.17085e-08
-7.52033e-08
-8.22e-08
1.53465e-07
3.93782e-09
-6.22463e-10
-2.2607e-07
-3.97296e-10
2.27089e-07
7.62411e-08
-4.80206e-08
8.77156e-08
-3.02678e-10
6.63033e-08
-6.61078e-08
1.07158e-10
-1.99058e-08
1.44333e-07
6.97852e-08
-1.94212e-07
1.75442e-07
-8.86659e-08
-9.19817e-08
5.20566e-09
1.22734e-07
3.92361e-08
-3.7369e-08
-1.24601e-07
1.68956e-07
-7.95102e-08
7.87139e-08
-1.6816e-07
3.6381e-08
1.37347e-08
1.1884e-07
-9.11079e-08
8.65988e-08
-1.67759e-07
1.27607e-07
1.13663e-09
-1.25027e-07
-3.71623e-09
-4.09052e-08
-2.88219e-07
2.0185e-07
8.61233e-08
8.8971e-08
-6.74271e-09
-3.42195e-10
4.83044e-10
9.66415e-08
-9.67823e-08
-1.27089e-07
1.26957e-07
-4.25141e-10
-6.13853e-08
1.22626e-07
6.18512e-09
7.59263e-09
9.02238e-08
-5.18124e-09
-9.26352e-08
-1.31855e-07
5.84016e-08
9.21219e-08
-1.86685e-08
-4.53856e-08
-8.35054e-08
-1.03888e-08
-8.57926e-08
1.66366e-07
5.55026e-09
7.43948e-08
7.7397e-08
-1.46495e-07
-5.29721e-09
1.16596e-07
1.19324e-09
-1.17594e-07
-1.94964e-10
-4.16273e-09
-2.35522e-07
-1.48939e-08
2.4437e-07
-7.77661e-09
1.30679e-07
-1.29451e-07
5.90872e-08
-7.77942e-09
9.99741e-08
-3.78768e-10
-9.85253e-08
-1.07002e-09
1.25408e-07
-8.34458e-10
1.39752e-07
-4.78135e-08
8.35036e-08
1.95807e-10
-1.06392e-07
-3.48665e-09
1.14302e-07
-4.42384e-09
9.31863e-08
-5.15446e-08
-9.22858e-08
-1.80283e-10
9.23868e-08
7.93149e-11
-3.59702e-08
-1.4019e-07
1.48779e-07
2.73813e-08
-2.35763e-09
1.34043e-07
-1.31241e-07
-4.44101e-10
-9.09242e-08
-3.77819e-08
1.28734e-07
-2.8204e-11
-4.28149e-09
2.10832e-09
-1.13417e-07
-1.68169e-07
8.95195e-08
8.39129e-08
-5.26304e-09
3.26999e-10
-1.03191e-07
1.03168e-07
-3.04833e-10
1.41526e-07
-7.32207e-10
-3.43647e-10
-1.14151e-07
2.83681e-10
1.1421e-07
4.70495e-09
2.23905e-08
-2.00979e-08
1.35288e-07
-7.3999e-08
5.0465e-09
1.44976e-07
-1.44239e-07
-1.422e-08
-1.27014e-07
1.43643e-07
1.95161e-08
-3.6145e-08
7.4056e-08
-7.54748e-08
1.56051e-07
3.96885e-09
1.17085e-07
1.57281e-07
-1.28563e-09
-1.58353e-07
7.09524e-08
-1.47823e-07
-4.69184e-09
8.15628e-08
1.47511e-07
-8.10643e-08
7.94803e-09
1.02445e-07
-1.00233e-07
-1.15411e-07
6.00437e-08
-3.17778e-08
-1.54383e-07
1.4713e-07
-1.98985e-08
2.71511e-08
1.59448e-07
4.94146e-08
-5.81217e-08
-1.48884e-07
-7.59325e-08
-3.1487e-08
8.30261e-08
2.43934e-08
-1.34373e-07
7.07441e-08
-5.63197e-08
1.19948e-07
-1.57247e-07
-3.4281e-09
1.63836e-07
-3.16122e-09
-1.12641e-07
2.13791e-08
-6.59847e-08
-1.68488e-07
-6.45414e-09
9.70646e-08
-1.37197e-09
-1.15396e-07
-6.37653e-10
-1.1262e-07
1.44032e-07
-7.6103e-08
6.08382e-09
1.60578e-07
-8.57655e-08
-8.12265e-08
6.41392e-09
-1.38763e-07
1.86209e-07
-4.79852e-08
5.393e-10
8.475e-08
-8.5581e-08
-1.37932e-07
9.72265e-08
7.54903e-09
-2.33009e-09
7.48077e-10
1.07301e-07
-1.06824e-07
-1.22506e-09
1.96279e-07
-4.97522e-08
-1.07291e-07
-1.12425e-07
3.94845e-08
1.17974e-07
-1.13337e-07
-2.52876e-09
-1.90006e-09
1.04349e-07
-1.02809e-07
3.59175e-10
-1.02202e-08
-1.39089e-07
1.36318e-07
1.2991e-08
-1.43022e-07
1.60068e-07
-1.01264e-08
-6.92051e-09
1.24478e-07
-1.08098e-07
-8.22087e-09
4.80103e-10
-8.30305e-09
-1.01003e-07
1.00433e-07
3.40478e-08
-7.06145e-09
-1.39628e-07
-2.06126e-08
1.13438e-07
-8.66506e-08
-6.17463e-09
1.65956e-07
-7.11752e-09
-1.42668e-08
-1.44571e-07
1.62134e-07
2.24526e-10
-2.89032e-09
-1.59468e-07
1.40126e-07
-1.39187e-09
-1.46142e-10
1.32701e-07
-1.33028e-07
3.83859e-10
-5.69347e-11
-1.29521e-07
-8.37253e-08
1.29741e-07
2.18811e-08
-1.7569e-07
-1.1345e-07
1.13151e-07
1.9615e-10
1.02865e-10
-1.37723e-07
-7.22062e-09
1.92169e-09
-1.0471e-07
5.88744e-12
1.04651e-07
5.30953e-11
-1.25343e-07
-3.32208e-10
1.2592e-07
-2.446e-10
-6.30268e-09
1.19458e-07
-1.05915e-07
-7.17722e-09
-1.05866e-07
1.05199e-07
3.23427e-10
7.3001e-09
2.93333e-08
9.27248e-08
-1.27182e-07
7.48123e-08
-7.5155e-08
1.48955e-07
-1.48612e-07
1.05933e-07
-8.3252e-08
-2.48233e-08
2.14182e-09
1.567e-07
-5.93641e-08
-1.14102e-07
1.86942e-08
5.56027e-09
-1.11797e-07
1.26425e-07
-2.0189e-08
-5.67253e-10
1.04731e-07
-1.03609e-07
-5.54701e-10
-1.44964e-07
-8.53878e-09
1.70435e-07
2.12491e-07
-9.03095e-08
1.91721e-07
1.57344e-07
-7.82995e-08
5.70589e-09
-2.0549e-08
2.66023e-08
-1.09064e-07
1.06427e-07
9.08239e-08
9.59599e-08
-7.5786e-09
9.56331e-08
7.42001e-08
-1.63544e-07
-6.28917e-09
8.39408e-08
8.13372e-08
-7.93442e-09
1.24338e-07
-7.73289e-08
8.5692e-08
7.54088e-08
-1.27967e-07
6.10976e-08
-8.53921e-09
6.37232e-10
-1.01127e-07
-1.17207e-09
2.03765e-10
-3.19871e-07
1.91287e-07
2.28624e-07
-1.37689e-07
5.88918e-08
9.80001e-09
4.47789e-08
4.66334e-08
-1.01212e-07
-1.31426e-07
2.07593e-09
1.30496e-07
-1.14644e-09
-1.0034e-07
9.98006e-08
2.80256e-11
5.11361e-10
1.32463e-07
-1.71564e-07
2.02772e-07
-1.6367e-07
1.59277e-08
-1.29615e-09
1.29727e-07
-3.22709e-08
7.61901e-09
-7.55257e-08
1.00178e-07
-7.34958e-08
1.43071e-07
5.23667e-09
-1.49511e-07
7.7913e-08
7.68736e-08
-5.27605e-09
-1.13819e-07
-2.53652e-08
1.18572e-07
5.75037e-10
7.90968e-08
-1.79488e-10
-7.94923e-08
1.49951e-07
-6.78427e-08
7.9094e-08
1.39852e-09
-1.22539e-10
1.15763e-10
-9.93207e-08
1.83078e-07
-4.88156e-08
-3.048e-08
-1.03783e-07
-1.0252e-08
3.07452e-08
-9.59649e-08
8.00602e-08
-3.41202e-08
2.31719e-08
2.34196e-07
-6.3304e-08
1.7029e-07
-1.69694e-07
-6.38262e-08
-6.84722e-08
5.28405e-09
1.34713e-07
6.26375e-09
-7.21814e-08
-7.35291e-08
1.38424e-07
7.28633e-09
1.9215e-08
1.2339e-07
-1.64079e-07
-1.96798e-10
7.14773e-08
-6.88044e-09
-6.83839e-10
-1.37974e-07
1.51417e-10
1.38506e-07
-1.4592e-07
1.78893e-07
-4.67934e-08
1.13149e-08
-9.99121e-09
5.2607e-08
1.14665e-07
-1.32357e-07
7.73163e-08
-2.78611e-08
8.29016e-08
-1.45177e-07
9.78171e-08
-1.3152e-07
1.30058e-07
1.75437e-10
9.52622e-08
2.2328e-08
-1.71294e-07
-2.22328e-08
1.71198e-07
-1.8795e-07
1.03039e-07
-1.41158e-07
-1.76029e-09
1.70295e-07
2.45178e-08
6.78824e-08
-9.71527e-08
4.75256e-09
3.07751e-08
2.70039e-09
1.19832e-09
-1.02253e-07
7.32841e-10
-2.4076e-07
2.40958e-07
-5.95324e-10
-9.7853e-08
-1.02931e-07
-9.53657e-08
1.04143e-07
-1.14643e-07
8.60364e-08
-1.09079e-07
1.75544e-08
5.48825e-09
1.29178e-07
-9.31798e-08
-9.39618e-09
-1.59612e-07
-1.10195e-08
2.14713e-08
1.4916e-07
-3.19442e-07
-2.24704e-10
-1.34566e-07
1.33729e-07
4.94955e-10
-9.58155e-08
3.69061e-11
4.12918e-10
-1.45446e-08
-9.71478e-08
1.55565e-07
-4.38725e-08
1.11749e-07
5.47411e-09
4.49106e-08
-1.38072e-07
1.37341e-07
-3.65294e-09
-5.12928e-08
1.38344e-07
-9.9982e-08
2.27533e-10
-1.31512e-07
-1.41572e-10
9.38854e-08
-9.58396e-08
2.47147e-10
-6.79935e-08
-6.75805e-08
1.27692e-07
7.88156e-09
1.16513e-07
1.80039e-08
-9.97609e-08
-3.47558e-08
9.59428e-08
1.5639e-07
-2.26371e-07
-2.73231e-08
-1.12633e-07
-1.99777e-08
1.30736e-07
5.33307e-11
-1.31194e-07
4.04599e-10
2.48623e-08
8.10096e-09
5.58183e-08
-8.87815e-08
-1.45193e-07
7.83781e-08
-5.36693e-09
-1.23711e-07
1.22116e-07
-6.69902e-09
-4.44772e-10
1.24489e-07
2.94123e-10
-8.20565e-08
-7.39278e-08
1.48933e-07
7.05135e-09
1.32725e-07
-7.14924e-08
-6.82153e-08
6.98274e-09
1.33213e-07
-2.47921e-09
2.30287e-12
-1.03781e-07
-9.44681e-08
1.02434e-07
-1.36573e-07
-4.855e-08
1.96489e-08
1.67362e-07
-1.09201e-07
3.04206e-08
-1.33034e-07
3.51938e-10
-1.08805e-07
7.6251e-10
-6.52908e-10
1.38272e-07
2.64611e-08
-2.83286e-08
-1.36404e-07
4.74017e-08
-1.34177e-07
3.34732e-11
7.24041e-11
4.02377e-08
-2.00671e-07
-8.06642e-08
1.36724e-07
9.22459e-08
2.14428e-08
-1.50356e-07
-1.9044e-08
1.47957e-07
-8.37599e-08
6.11293e-09
1.36898e-07
-1.35278e-07
9.40492e-08
4.26987e-08
-1.4703e-09
-8.02177e-10
2.226e-10
-1.00422e-07
6.89417e-08
-4.48952e-09
-1.79035e-09
-3.19735e-09
-2.41542e-09
9.88253e-08
-9.32125e-08
8.50049e-08
1.07553e-07
-1.06693e-07
-8.58644e-08
1.54067e-07
-1.72056e-07
2.73006e-10
2.18601e-10
1.62455e-07
-1.04212e-08
-1.42784e-07
-4.41406e-08
1.57441e-07
1.11768e-08
1.22149e-07
-1.15198e-07
-6.04124e-09
-9.10215e-10
-1.21268e-09
1.1798e-07
1.68937e-07
-5.87107e-08
-2.33415e-09
9.72084e-08
-8.61408e-08
-5.33278e-10
6.59735e-11
1.45443e-07
-1.70152e-07
9.02057e-09
1.58147e-07
1.7468e-10
-1.21518e-08
1.93595e-07
-2.43138e-07
5.30586e-08
9.79466e-10
9.36125e-08
-8.93556e-10
-9.36984e-08
-1.20403e-07
1.2071e-07
-1.91242e-10
1.17295e-09
-1.18257e-10
-1.14773e-07
1.13632e-07
-7.23961e-11
-1.12604e-07
-2.3145e-10
2.02484e-10
7.35228e-08
-1.06141e-07
-7.87384e-08
1.11357e-07
3.29505e-11
-1.18299e-07
1.18347e-07
-8.12015e-11
-3.07754e-08
3.49792e-08
2.70381e-08
-2.03223e-08
-1.45435e-07
7.56801e-08
-6.17785e-09
2.90448e-08
-1.64831e-08
1.09588e-07
-1.39089e-07
6.72347e-08
6.46341e-08
7.22043e-09
-1.63912e-07
-1.14796e-07
1.14641e-07
-1.2992e-07
-4.45259e-08
5.98044e-08
1.33615e-07
-1.34525e-07
3.46966e-10
5.62962e-10
-1.79814e-09
-1.90298e-07
1.27144e-10
1.91969e-07
-1.09138e-07
3.0412e-11
1.09161e-07
-1.31593e-07
-1.66321e-10
5.65574e-10
7.46049e-08
-1.3142e-07
-7.01136e-09
3.18957e-10
-1.33306e-07
-4.06758e-11
7.82475e-08
7.92636e-08
-5.62268e-09
-7.56459e-08
-7.59339e-08
1.45323e-07
6.25729e-09
-1.19746e-07
8.65489e-10
1.18683e-07
1.97137e-10
1.27723e-07
3.17329e-08
1.13979e-07
-1.62973e-08
1.10883e-07
-5.65259e-09
-1.01365e-07
4.78578e-08
4.6252e-08
7.25506e-09
-1.09231e-08
1.32577e-07
1.2437e-08
-1.29234e-07
7.592e-08
-7.37619e-08
-1.35718e-07
-1.09715e-07
1.20617e-07
1.24816e-07
1.11466e-07
-1.23848e-10
1.18653e-07
-1.20218e-07
1.49962e-09
6.55414e-11
-1.35457e-07
-1.32145e-07
8.48617e-10
5.53429e-11
1.7467e-08
3.07229e-08
-1.52534e-07
1.55732e-08
-4.49986e-08
2.0363e-07
1.39217e-07
-1.48397e-07
1.34026e-08
-3.04239e-09
1.9944e-08
-2.21523e-08
1.37782e-07
-3.41276e-08
-8.1502e-08
1.08944e-07
-6.98437e-10
-1.08003e-07
-2.43135e-10
-4.37739e-08
-1.4897e-07
2.96298e-07
-1.03554e-07
1.06921e-07
-8.17284e-08
-6.74615e-10
-7.88998e-11
1.05307e-07
-4.96799e-10
7.60583e-08
-7.67078e-08
1.4713e-07
-1.94035e-07
-1.34569e-07
8.1873e-08
1.30609e-07
-2.3912e-09
-3.10751e-08
-8.51355e-08
7.32929e-08
8.75148e-08
8.12908e-09
2.1372e-07
-1.30586e-07
7.98516e-09
1.52272e-07
-8.23683e-08
6.97019e-09
1.30375e-07
-1.74002e-07
1.22943e-07
-6.7866e-08
-3.79421e-08
-1.43913e-08
1.79396e-09
1.08023e-07
-1.20037e-07
7.02608e-08
-1.32985e-07
-5.26919e-09
1.52994e-07
-2.12377e-09
-4.93583e-08
1.50336e-07
-1.02633e-07
-1.81329e-09
-2.61744e-08
1.43621e-07
-1.61383e-07
4.39372e-08
1.20416e-07
2.16986e-08
-5.72247e-08
-3.04468e-09
-1.57484e-07
1.58023e-07
-9.60143e-10
-3.10563e-08
2.34096e-08
-1.00382e-07
1.08029e-07
7.74756e-08
-1.45863e-07
-5.14178e-09
-1.401e-07
1.40548e-07
-1.28956e-10
-7.83124e-08
1.61812e-07
-1.27274e-07
-7.43098e-08
-8.13784e-08
1.54987e-08
-1.02798e-07
-1.08819e-10
2.05088e-07
7.47798e-08
-1.72784e-07
-1.09594e-07
-7.59654e-08
1.35281e-07
2.37216e-07
2.71775e-11
-9.24344e-08
-2.05668e-10
9.26129e-08
3.33997e-08
1.06806e-07
-7.69976e-10
1.53789e-07
6.33178e-09
9.94229e-08
5.79729e-08
2.67268e-09
7.56793e-08
-1.45657e-07
-5.66852e-09
-7.48438e-08
-8.43603e-08
1.50594e-07
8.61009e-09
-9.26712e-08
-4.55804e-09
-4.13561e-09
-1.16653e-07
-1.14577e-07
1.18292e-07
-7.40187e-11
-1.28342e-07
-3.42068e-09
1.25527e-07
-9.29192e-08
-1.41007e-07
1.01152e-07
1.32774e-07
-1.15059e-07
3.99487e-08
7.83904e-08
-3.27982e-09
7.2629e-08
7.21724e-08
-1.37884e-07
-6.91749e-09
-7.33899e-08
-7.07784e-08
1.37786e-07
6.38236e-09
5.32852e-08
4.92701e-08
-1.12583e-07
1.00277e-08
-6.95159e-08
1.16157e-07
-3.77669e-08
-8.87411e-09
1.08237e-07
-1.08752e-07
-1.68642e-10
-9.75175e-08
7.53623e-10
8.49814e-08
1.09841e-07
-2.93411e-08
-1.65482e-07
-3.22405e-08
9.22028e-08
3.96002e-08
-9.95625e-08
-1.00571e-07
-7.92155e-11
1.02463e-07
-1.81261e-09
-7.64548e-08
-4.40963e-08
9.83988e-08
1.27597e-07
-3.30218e-09
7.25996e-08
-1.35455e-07
6.79113e-08
-5.05624e-09
-6.40304e-08
4.83657e-08
-1.33004e-07
1.16916e-08
1.27692e-07
-1.065e-07
-3.07591e-08
3.53167e-08
8.6041e-08
-7.73765e-08
1.00232e-09
-1.26153e-07
-1.92917e-10
-1.91895e-08
2.37841e-08
1.06784e-07
-1.20739e-07
5.84518e-08
5.52155e-08
7.07122e-09
7.62086e-08
-4.91604e-09
4.08065e-08
6.52793e-08
7.35207e-09
9.05889e-09
1.3253e-07
-1.09806e-08
-6.83874e-09
-8.51652e-08
8.33476e-08
1.39599e-07
-7.70685e-08
-1.63044e-07
1.63682e-07
1.71762e-07
5.97529e-08
-5.74389e-08
-1.74076e-07
1.46707e-08
-1.33684e-07
1.43875e-07
-8.13393e-08
-7.35522e-08
1.48099e-07
6.79212e-09
-5.16398e-08
-1.23547e-07
2.13357e-09
7.02382e-08
-6.87058e-09
1.34464e-07
-7.49611e-10
-9.91849e-11
2.32073e-08
-8.93775e-08
9.5215e-08
2.77264e-10
2.39037e-10
-1.40616e-07
-4.18249e-09
7.8013e-08
-7.4775e-08
1.18169e-08
-8.70556e-08
1.48883e-07
-7.36447e-08
-2.89437e-08
-1.40397e-07
1.09306e-09
1.68248e-07
9.7193e-08
-1.86675e-07
7.28511e-08
1.66308e-08
-1.26708e-07
9.36285e-08
-1.01486e-07
1.03865e-07
-6.94317e-10
-1.02966e-07
-2.04056e-10
-4.70855e-08
-1.32496e-07
4.77932e-08
1.31788e-07
-7.48835e-08
-1.27554e-07
1.53632e-07
4.88052e-08
-2.94559e-09
-1.47251e-07
1.47771e-07
2.42553e-09
-1.29314e-07
1.29181e-07
-1.66476e-09
-1.49502e-07
1.32125e-07
-6.63167e-08
1.43006e-07
7.3092e-08
-6.28349e-09
7.93062e-08
-1.41171e-07
-6.61021e-08
-1.30311e-07
9.12956e-08
-1.06177e-07
-1.39123e-08
1.47866e-07
-9.09243e-08
-3.58293e-08
1.24082e-07
-1.22249e-07
-3.30562e-09
1.47287e-09
-1.01242e-07
-2.44451e-09
4.36539e-09
5.12285e-11
-1.54774e-07
1.51777e-07
-9.32503e-08
-1.58016e-10
7.37182e-10
-9.63442e-08
8.09729e-08
1.60445e-08
-6.73224e-10
-5.7835e-08
-1.3801e-07
1.86003e-07
9.84207e-09
1.19454e-07
-4.49861e-10
5.80254e-08
4.97135e-08
-1.1636e-07
8.6208e-09
-1.11995e-07
-5.04796e-10
1.12258e-07
2.41725e-10
-1.09582e-07
1.5902e-08
-2.65376e-08
6.5426e-08
-1.24487e-07
5.26819e-08
6.37909e-09
-4.90426e-09
-9.72647e-08
4.3159e-09
1.67287e-09
-1.38823e-07
1.4322e-09
5.53877e-08
7.74515e-08
-6.32069e-08
1.75946e-08
3.35023e-08
2.14153e-08
1.30884e-07
-1.31422e-07
7.1087e-10
-1.72883e-10
-2.13226e-07
2.01029e-07
8.82221e-08
-7.60251e-08
5.92349e-08
-1.52515e-07
1.17271e-07
-2.39914e-08
7.69332e-08
-6.78569e-09
-6.99777e-10
-1.76269e-10
5.9567e-08
-6.34221e-08
-1.19701e-07
1.7116e-07
-1.42383e-07
1.17535e-07
-1.53669e-08
6.58775e-10
-1.58079e-07
1.57342e-07
1.35357e-07
-1.64917e-07
-1.4964e-09
-9.01981e-08
-8.57025e-08
1.68952e-07
6.94896e-09
9.69817e-08
3.09009e-10
-9.73235e-08
3.27215e-11
-1.5254e-07
8.1591e-08
7.57003e-08
-4.75115e-09
-2.07534e-07
1.289e-07
-1.43985e-07
2.22618e-07
-2.00071e-07
2.60996e-08
-4.71104e-08
-1.16963e-07
-1.69999e-07
1.0477e-07
3.90544e-08
-1.51618e-08
-1.32738e-07
1.44574e-07
3.32625e-09
-3.4715e-09
-1.16051e-07
-9.99839e-09
1.08512e-07
-1.16336e-07
1.27491e-07
-4.14664e-08
1.67551e-07
1.76529e-07
8.90231e-08
-1.30957e-07
-1.27699e-07
4.58598e-10
1.23027e-07
-1.23478e-07
-7.01419e-12
1.06757e-07
-1.15692e-07
4.03046e-09
-8.25147e-08
-6.11268e-10
7.31486e-08
1.08636e-07
-4.73209e-08
6.55758e-08
-1.2715e-07
-4.74273e-09
-4.37529e-10
1.19775e-07
-1.19406e-07
6.86125e-11
-1.23609e-07
-4.38418e-10
1.24713e-07
-6.66081e-10
-1.26376e-07
4.65429e-08
-3.5365e-08
-1.23067e-08
1.04679e-07
8.36674e-08
-1.30725e-09
-1.87039e-07
3.33162e-09
-3.759e-11
-1.76698e-08
8.63394e-08
-1.55311e-07
8.66416e-08
-1.34242e-07
1.36239e-07
6.91971e-08
-6.40034e-09
2.91496e-08
-1.38904e-07
-3.92485e-08
1.49002e-07
4.32627e-08
1.17091e-08
3.48588e-08
-8.98305e-08
7.2731e-08
7.99051e-08
-1.46117e-07
-6.51903e-09
-1.08536e-07
1.06838e-07
1.74467e-09
-4.6702e-11
-7.19629e-08
7.22756e-09
5.8974e-08
-5.67535e-08
1.33335e-07
-1.35556e-07
-1.11106e-07
2.35914e-07
-4.95692e-08
-7.52385e-08
9.12252e-08
-7.59752e-08
-7.99955e-08
6.47454e-08
7.24479e-08
-5.96756e-08
-1.43829e-07
5.71637e-08
8.35297e-09
6.16207e-08
8.56924e-08
7.94835e-08
8.23983e-08
-1.55665e-07
-6.21648e-09
1.42858e-07
8.43736e-09
-6.56363e-09
-1.44731e-07
1.08625e-07
6.94779e-10
-3.75119e-10
1.02188e-07
-1.04275e-07
2.44042e-09
-3.52747e-10
-6.97225e-08
-8.20191e-08
1.44855e-07
6.88683e-09
-1.28231e-07
1.43529e-09
4.20572e-10
-1.12343e-07
-2.90263e-12
3.5108e-10
1.20799e-08
1.31974e-07
1.1843e-07
2.03686e-09
-1.01235e-09
1.0942e-10
-1.09921e-07
1.09307e-07
1.03238e-07
1.80487e-08
2.79502e-09
-1.29011e-08
3.86962e-08
-1.2832e-07
1.02525e-07
1.32739e-07
-1.32439e-07
-1.24223e-10
-1.76179e-10
-3.16141e-08
-1.26829e-07
1.84542e-07
-1.26418e-07
-2.04875e-08
1.5245e-07
-5.54414e-09
1.64616e-07
-1.39509e-07
-2.40909e-08
-2.20839e-08
1.374e-07
1.34477e-07
-1.35958e-07
8.03498e-10
6.77691e-10
1.60036e-07
-4.95056e-08
-1.57704e-07
4.71739e-08
1.33441e-07
-1.33511e-07
1.57754e-07
-1.57684e-07
9.65245e-09
-1.35397e-08
-1.05227e-07
1.09114e-07
2.86117e-08
-1.09918e-07
-4.6596e-08
1.27903e-07
9.28163e-08
8.39947e-08
-1.69546e-07
-7.26541e-09
2.18652e-07
-2.31374e-07
-1.59858e-07
-8.14334e-08
1.09273e-07
-1.40271e-08
1.3379e-08
-2.00015e-07
1.73553e-07
-9.22026e-08
1.44387e-07
-2.45012e-07
1.92828e-07
8.44942e-08
-1.70638e-07
-6.05917e-09
2.18559e-08
9.60133e-08
-1.6485e-08
-1.01384e-07
-1.66827e-09
1.15596e-07
-1.57135e-08
-9.37935e-08
-6.33669e-08
1.64928e-07
-1.14731e-07
1.31696e-08
-2.92001e-08
8.40908e-08
-4.74775e-08
-7.41322e-09
3.14893e-10
-1.05984e-07
1.06159e-07
-4.90104e-10
3.00877e-09
1.33289e-07
-1.35089e-07
-1.2087e-09
1.68746e-09
-1.36131e-07
1.44077e-07
-2.92855e-09
-8.69262e-08
1.93715e-07
1.47889e-08
-5.13952e-08
-4.7512e-08
1.35079e-07
-2.31592e-07
-6.62339e-08
-1.62134e-07
1.2794e-07
-7.69122e-08
1.32192e-07
-1.28651e-07
-5.32565e-10
-1.05752e-07
1.48639e-09
-2.17506e-09
1.06441e-07
6.63001e-08
-2.04534e-07
-1.55614e-07
-1.47174e-11
1.34463e-07
-1.34192e-07
-2.55669e-10
-1.39355e-07
-4.89195e-08
1.78395e-07
6.26009e-09
-9.85148e-09
1.18848e-07
-1.06544e-07
-1.24093e-08
1.55502e-07
-1.24111e-07
6.71755e-10
-1.6964e-10
6.89218e-08
-1.62591e-07
8.85288e-08
5.13994e-09
-1.49233e-09
-1.35928e-07
-1.58241e-09
1.35842e-07
6.08587e-09
-1.1165e-07
5.69393e-08
5.28432e-08
1.86756e-09
-1.14165e-07
3.09608e-08
1.55652e-07
-3.12664e-11
1.45258e-07
-8.8416e-10
-1.44342e-07
8.04963e-09
1.28288e-07
-2.73452e-08
-1.08993e-07
1.54575e-07
-1.76124e-07
9.09811e-08
-6.94319e-08
4.84868e-08
1.22373e-07
-6.02055e-08
-6.77953e-09
9.13713e-08
1.12729e-07
-1.94548e-07
-1.34637e-08
-6.98211e-09
1.17229e-07
-1.41734e-07
1.23666e-07
4.21498e-10
-1.24128e-07
4.04992e-11
8.00153e-09
1.07812e-07
-4.06421e-09
8.54133e-08
-2.12198e-07
3.38658e-08
-1.41273e-07
1.93884e-09
-7.94094e-08
-6.78771e-08
1.40364e-07
6.9229e-09
-1.12556e-07
-5.10136e-08
3.4784e-08
1.28786e-07
-1.27017e-07
-5.88054e-10
-6.26408e-10
-7.46059e-08
1.57602e-07
-8.90809e-08
6.08444e-09
7.94782e-08
-1.58089e-07
8.25428e-08
-3.93217e-09
-1.19334e-07
-2.60811e-10
1.08828e-07
-1.12036e-07
5.03276e-09
-1.8249e-09
1.61415e-07
-9.05401e-08
8.60367e-09
-1.22072e-07
2.07539e-08
-2.09312e-08
6.35126e-08
-1.04998e-07
-2.377e-08
1.33619e-07
-1.32741e-07
-2.18893e-10
7.26535e-08
6.52351e-08
-6.49429e-08
-7.29457e-08
8.55453e-08
1.59442e-07
-1.72359e-07
8.41621e-08
7.15075e-08
-1.50305e-07
-5.36484e-09
-1.22878e-07
6.49538e-08
5.05966e-08
7.32735e-09
1.69362e-10
1.33859e-07
4.48476e-10
8.48683e-08
7.89014e-08
-1.5833e-07
-5.43997e-09
1.13565e-07
1.2392e-07
-1.02042e-08
-1.1012e-07
-3.59557e-09
1.0141e-07
6.80296e-11
1.57472e-07
-1.59005e-07
-8.7392e-08
8.89243e-08
5.31161e-08
6.35101e-08
7.29383e-09
-6.25187e-09
-2.7916e-07
2.00417e-08
1.86942e-07
-3.57904e-09
6.27299e-09
1.63374e-07
1.40048e-07
-2.37995e-07
-1.31236e-07
1.05522e-09
-1.81126e-09
1.31992e-07
7.32524e-10
1.05443e-07
-1.06149e-07
-2.65458e-11
-8.48036e-08
1.93522e-07
-1.90057e-07
5.52999e-08
1.31542e-07
-6.90415e-08
-1.178e-07
4.89994e-08
6.18502e-08
-1.18434e-07
7.58477e-09
1.59089e-07
-1.23152e-08
2.21775e-08
-1.419e-07
-5.57973e-09
5.84204e-08
-1.6565e-07
-1.94751e-08
-1.01816e-07
-1.18482e-07
1.11504e-07
2.1267e-08
-5.16491e-09
-2.20825e-08
1.02405e-07
3.1182e-08
7.01451e-09
-8.63825e-08
-1.16998e-09
1.33094e-07
4.08845e-09
1.56333e-10
3.97381e-10
-2.13042e-07
-1.56869e-08
-5.27392e-10
7.39082e-08
1.52098e-08
-8.08207e-08
-1.59411e-08
2.91782e-07
-1.28264e-07
-1.47577e-07
-1.80711e-07
1.47939e-07
1.22634e-07
-1.55529e-07
-7.31027e-08
7.87104e-08
-8.07125e-08
7.51048e-08
1.2685e-07
-1.31554e-07
-3.90405e-09
8.60782e-09
-4.32738e-09
-6.80528e-08
8.52566e-08
-1.97915e-07
-8.61241e-08
6.93874e-08
-8.53533e-08
-1.2852e-07
2.91555e-07
-4.40668e-08
-1.04676e-07
-1.38481e-08
-8.17097e-08
1.64925e-07
2.33044e-09
-3.56024e-08
-7.62796e-08
9.54817e-08
1.64003e-08
4.2801e-08
-1.91661e-07
8.6787e-08
6.20731e-08
-1.12833e-07
1.12708e-07
-2.867e-10
4.11792e-10
9.71772e-08
-1.68303e-10
1.49451e-08
1.3371e-07
1.19572e-07
-7.90105e-09
-8.8261e-08
-1.50326e-07
1.89595e-08
6.49581e-10
1.3334e-07
-1.16656e-07
1.70948e-07
-5.24749e-08
-5.98091e-09
3.06457e-09
1.33098e-07
-3.06866e-09
1.12013e-07
4.17773e-08
-1.62703e-07
-3.16148e-08
-1.33763e-07
-1.15949e-07
-9.05052e-08
4.68424e-08
-1.16579e-08
1.14613e-07
-8.90578e-09
-1.00453e-07
-1.15732e-07
-3.60826e-09
1.00961e-07
-1.30025e-07
1.04509e-07
-6.12995e-10
-1.03201e-07
-6.94393e-10
-2.73972e-08
-1.56679e-07
-1.88222e-07
1.87924e-07
1.18111e-07
-5.0079e-08
1.16535e-08
-7.96858e-08
1.1972e-07
-5.57739e-10
-1.18974e-07
-1.88894e-10
8.98135e-10
1.07745e-07
-1.0899e-07
3.47287e-10
3.06295e-08
1.26638e-07
-3.88374e-08
-8.21187e-08
-8.68069e-08
1.08367e-08
8.28094e-09
1.15682e-07
-1.20023e-07
-3.94024e-09
-1.32185e-07
1.42764e-07
-2.2979e-09
-1.40708e-07
-3.8587e-09
-1.5795e-07
1.60131e-07
-5.87857e-08
-9.05146e-08
1.55342e-07
-6.04205e-09
1.13656e-07
-1.49695e-08
7.22238e-10
-1.89394e-10
4.9728e-08
1.25268e-08
-1.05648e-09
-2.88542e-10
7.9265e-08
8.69609e-08
-6.19023e-09
-3.55602e-08
1.0555e-07
8.31017e-08
-3.04147e-07
-2.0309e-07
3.29551e-07
1.75632e-07
1.53228e-07
-6.39674e-08
-9.86772e-08
6.2027e-09
-7.75696e-10
-1.3028e-07
-3.66027e-10
5.70654e-08
6.56275e-08
-1.21675e-07
-1.01748e-09
-1.20287e-07
1.20164e-07
1.95918e-10
-7.31559e-11
1.10433e-07
3.40994e-08
-1.44736e-08
1.4371e-09
2.04271e-07
-4.6793e-09
-5.56601e-08
-8.45387e-08
-3.63017e-09
-7.3767e-08
-2.45972e-08
6.32423e-10
1.13644e-07
-1.13581e-07
8.19603e-08
-2.0207e-07
1.12051e-07
-9.94803e-10
-6.23905e-10
7.30679e-08
6.82567e-08
-1.37517e-07
-3.80785e-09
-1.69305e-07
8.4575e-08
-2.40471e-08
-2.83929e-08
-3.92599e-08
1.34345e-07
-6.66926e-08
-3.09688e-08
7.42971e-08
3.2372e-08
-1.47437e-07
-9.3261e-08
9.87059e-08
1.41992e-07
8.00354e-08
-5.74965e-09
6.80163e-08
1.34952e-07
-5.52459e-08
-1.47722e-07
-3.84371e-09
1.23048e-07
1.53962e-08
-1.34601e-07
1.17301e-07
-9.94956e-08
-2.19311e-08
4.12619e-09
1.48347e-07
-2.00813e-07
1.85755e-07
1.47696e-07
-7.16904e-08
-6.91712e-08
-6.83447e-09
4.46186e-08
-1.77646e-07
-1.27261e-07
-1.26166e-07
-8.34609e-11
-1.96629e-07
1.65544e-07
-1.71837e-07
2.02921e-07
8.45839e-08
-1.77568e-07
-2.66972e-08
1.2432e-07
-1.23231e-07
-4.44214e-10
-6.44142e-10
6.27651e-08
-1.25559e-07
-5.25895e-09
-7.33237e-09
7.42501e-08
-1.72901e-07
8.27486e-08
-1.42319e-07
1.0419e-10
1.68338e-10
1.42046e-07
-9.01893e-08
1.43086e-07
-1.9207e-07
-9.56472e-08
-2.70563e-08
-7.3676e-09
6.18904e-08
7.21408e-08
-6.09092e-09
-5.47179e-08
-6.22872e-08
-5.87266e-09
-3.91903e-09
-1.08994e-07
-1.04891e-07
-1.0843e-09
-5.67435e-09
7.20487e-08
-7.18054e-08
7.84775e-10
-1.02808e-09
1.11183e-07
-1.0903e-07
-1.28779e-09
-8.6519e-10
-1.41104e-09
1.32495e-07
-1.31333e-07
2.49638e-10
-1.37034e-07
1.47859e-08
1.16705e-07
5.54329e-09
1.32685e-07
-1.25888e-07
-4.73911e-09
-2.05845e-09
-1.11896e-07
-1.21835e-09
1.13778e-07
-6.62929e-10
-1.08446e-07
-6.62857e-08
1.01267e-07
3.55075e-08
-1.00447e-08
-1.2673e-07
7.84304e-08
-8.3429e-08
4.11964e-09
8.78995e-10
4.71393e-08
3.90435e-08
-1.33268e-07
1.13448e-07
-1.10478e-07
-7.37201e-09
4.40176e-09
-5.29352e-08
5.34429e-08
1.58986e-07
5.75449e-09
1.34551e-07
-1.0048e-07
1.24719e-08
-2.86918e-08
-1.22025e-08
-1.06543e-07
-2.97441e-08
2.01789e-07
6.04815e-09
-1.76992e-07
1.35938e-07
-3.49816e-08
-2.02687e-08
2.19488e-08
-8.38954e-08
6.32563e-09
-1.30685e-07
1.30557e-07
6.05247e-08
-7.3156e-08
-3.1465e-08
7.99868e-08
2.14953e-09
6.20143e-08
5.71268e-08
-7.58784e-08
-8.66454e-08
1.19469e-07
-1.3307e-08
-7.33582e-08
6.02207e-09
9.84653e-08
1.18203e-08
2.34979e-08
2.60049e-08
-1.10848e-08
5.35094e-08
6.19464e-08
6.91693e-09
-5.14935e-08
1.68506e-07
-1.74848e-07
-1.82725e-07
9.05039e-08
2.30727e-07
-1.55612e-07
1.10608e-07
-3.40409e-08
6.36378e-08
-1.40205e-07
-1.28039e-07
-4.42829e-08
-1.50703e-07
-5.61279e-09
-1.06084e-07
8.30627e-08
-9.16552e-08
1.14676e-07
9.12662e-09
-1.25299e-07
-1.47102e-07
-7.78627e-09
-4.11645e-09
-1.32763e-07
1.20287e-07
1.29776e-07
2.04226e-08
1.06501e-07
2.12943e-09
-1.38211e-07
1.27786e-07
-8.94283e-08
9.98529e-08
-1.05047e-07
1.39647e-08
-2.12607e-08
-3.56452e-08
5.25895e-08
3.90488e-08
-4.48398e-08
-1.16089e-07
-4.55574e-08
1.26764e-08
-7.37506e-08
-8.84135e-08
7.78125e-09
-7.30625e-08
8.38111e-08
8.37578e-08
2.44974e-08
4.41437e-08
-1.52399e-07
1.91966e-08
6.83531e-08
-8.58501e-08
4.67143e-09
-8.31375e-08
-9.36708e-08
7.50274e-09
6.48002e-08
-7.55819e-08
-4.99081e-08
6.06898e-08
-5.05427e-08
-9.14411e-09
1.53523e-07
-1.93596e-07
4.06482e-08
-5.74904e-10
-8.72121e-09
2.8509e-08
8.26596e-08
-1.02447e-07
5.53658e-10
-9.80075e-08
-1.02766e-09
9.84815e-08
-1.04499e-07
1.03723e-07
4.21773e-10
3.53234e-10
1.3579e-07
-7.42482e-08
-1.37475e-07
-6.30134e-08
-3.96426e-08
1.04288e-07
-1.63217e-09
1.60065e-07
1.20366e-08
-1.21632e-07
6.17306e-09
-1.45774e-07
1.716e-08
-5.04277e-10
-9.84913e-08
-1.17747e-07
1.18159e-07
-3.07469e-10
1.5521e-07
5.68241e-09
-1.51102e-07
-8.49678e-09
-1.47954e-08
2.22838e-07
-7.45509e-10
-3.3896e-08
-7.27724e-10
1.00917e-07
-1.0016e-07
2.23082e-10
9.28005e-10
8.59996e-09
2.73987e-08
1.27396e-07
-3.18249e-08
1.24506e-07
-9.1275e-09
-3.41107e-09
1.32696e-07
-1.27894e-07
-1.39064e-09
-1.08133e-07
1.11026e-07
-5.35677e-09
1.26732e-07
5.63176e-09
-3.3017e-08
-9.93467e-08
1.23555e-07
1.84768e-09
-1.23401e-07
-2.00164e-09
-7.36436e-08
-5.58842e-08
7.38677e-08
9.23765e-08
1.52807e-09
1.62593e-07
2.01936e-08
-3.74639e-08
-1.51725e-08
3.70053e-09
-8.09625e-08
1.26885e-07