/*--------------------------------*- C++ -*----------------------------------*\
| =========                 |                                                 |
| \\      /  F ield         | OpenFOAM: The Open Source CFD Toolbox           |
|  \\    /   O peration     | Version:  2212                                  |
|   \\  /    A nd           | Website:  www.openfoam.com                      |
|    \\/     M anipulation  |                                                 |
\*---------------------------------------------------------------------------*/
FoamFile
{
    version     2.0;
    format      ascii;
    arch        "LSB;label=32;scalar=64";
    class       volVectorField;
    location    "0.062";
    object      U;
}
// * * * * * * * * * * * * * * * * * * * * * * * * * * * * * * * * * * * * * //

dimensions      [0 1 -1 0 0 0 0];

internalField   nonuniform List<vector> 
31639
(
(0.125774 0.000579609 -0.000642004)
(0.122025 -0.000506498 2.1208e-05)
(0.12427 -0.000282521 0.0008685)
(0.128284 4.47895e-05 -0.000275894)
(0.124463 -0.000816641 -0.000297926)
(0.122769 -0.00017425 -5.74672e-05)
(0.122527 -4.89958e-05 -0.000205981)
(0.125432 -0.000127292 5.43947e-05)
(0.125183 0.000288237 -0.000255418)
(0.126061 -0.000526148 -0.000450593)
(0.126977 0.000477612 -2.13154e-05)
(0.125917 -0.000568266 -0.00081928)
(0.12286 -0.000548006 6.2213e-05)
(0.12596 -3.12018e-05 0.000227227)
(0.121258 -0.000389039 0.000170463)
(0.123023 -0.000446995 0.000847241)
(0.12484 0.000550107 6.68482e-05)
(0.121694 8.16676e-05 0.00038414)
(0.12312 -0.000107513 -0.000377739)
(0.123838 -8.85762e-05 -0.000231131)
(0.116549 -0.000292031 -0.000410158)
(0.127234 -0.000333159 -0.000616184)
(0.126549 0.000708315 -0.000181663)
(0.122639 0.000216165 -0.000367335)
(0.121054 -0.000241349 -0.000173809)
(0.124621 -0.000330592 0.000132599)
(0.123437 -2.41906e-05 -0.000235434)
(0.124998 0.00183692 -0.000149133)
(0.122169 0.000370876 0.000742622)
(0.1267 -0.000260084 0.000694286)
(0.126898 -0.000180872 -6.34055e-05)
(0.121747 -1.64029e-05 -0.000268375)
(0.126859 0.000374345 -0.00046623)
(0.122506 -0.000181617 -3.79522e-05)
(0.118519 0.000235471 0.000557821)
(0.127075 0.000401408 0.000250901)
(0.11525 -0.000484794 -0.000131285)
(0.127934 -0.000617252 0.000289034)
(0.126419 -0.000382678 0.000266766)
(0.115147 3.21221e-05 -0.000174637)
(0.119459 -9.9925e-05 -0.000328068)
(0.118059 -0.000555448 -4.88855e-06)
(0.125583 1.63183e-05 1.50095e-05)
(0.127631 -0.000830454 -0.000895813)
(0.12621 -0.000760764 0.000751673)
(0.127354 -0.000906983 -0.000367556)
(0.1199 0.000382228 -0.000273865)
(0.124075 0.000567407 -0.000307164)
(0.124117 -3.06394e-05 0.000259625)
(0.127852 -0.000470092 -0.000177753)
(0.126939 -0.000308476 -0.00057912)
(0.117097 7.5996e-05 -0.000261705)
(0.126163 0.000745507 0.000142226)
(0.116359 -0.000356888 0.000542685)
(0.124445 -0.00048634 -0.000194987)
(0.124329 0.000207576 -5.96841e-05)
(0.117624 -0.000111103 -0.00058578)
(0.123711 6.0294e-05 0.000368408)
(0.122976 0.000166965 0.000429094)
(0.118279 0.000336048 -0.00022786)
(0.12575 -0.00026571 -0.00052616)
(0.126421 0.000358303 -0.00028431)
(0.12168 -0.000367264 -0.000298773)
(0.123004 -0.000103976 -0.000265722)
(0.125265 0.000475158 0.000522164)
(0.127803 -0.000351105 -0.000540077)
(0.12522 -5.81537e-05 -0.00105221)
(0.123395 -0.000304058 0.000146305)
(0.119792 4.5237e-05 -0.000449234)
(0.127797 0.000348922 -0.000188583)
(0.125437 0.000126619 0.000139802)
(0.120016 0.000541808 -0.00127841)
(0.125801 -0.00040072 -0.000840595)
(0.123949 -0.000290312 -0.000192472)
(0.12537 0.000762742 5.0408e-05)
(0.116595 0.00049072 -0.000601334)
(0.126942 -0.000638663 0.00034467)
(0.123325 0.000188899 -0.000670461)
(0.122143 -0.000316039 0.00045173)
(0.12569 0.000199283 7.76547e-05)
(0.121785 -6.05189e-05 5.14797e-05)
(0.113605 -0.000430798 2.13059e-05)
(0.12723 -0.000495944 0.000161443)
(0.123882 -0.000212421 -0.000329918)
(0.124448 -0.00016478 -8.48955e-05)
(0.126988 -0.000601272 -0.000357661)
(0.127959 -0.00018617 0.000138013)
(0.12706 -0.000220682 -0.000503223)
(0.117695 0.000874367 -0.00151428)
(0.12622 -0.00015601 -0.00052183)
(0.124249 -0.000425467 0.000248002)
(0.123031 -0.000547347 -0.000230006)
(0.118568 -0.000519789 -0.000538334)
(0.120876 0.000773209 -0.000841452)
(0.121862 -0.000888997 -0.000470786)
(0.122622 0.000826443 0.000551055)
(0.124472 0.000163074 -0.000565469)
(0.123647 -0.000264742 0.000144945)
(0.123021 0.000148859 0.000419227)
(0.117512 -0.00136547 -0.000234422)
(0.125054 0.000305678 -0.000273938)
(0.124635 -0.000124435 -0.000985087)
(0.121631 -0.000414284 -0.000108758)
(0.116802 9.66346e-05 -0.000208051)
(0.118051 -5.47887e-05 -0.000401354)
(0.127374 -0.000695197 -0.000343716)
(0.116295 0.000342229 -0.000513475)
(0.117361 -0.0010399 -0.000927727)
(0.120334 0.000345353 -8.2669e-05)
(0.115488 -0.000653336 0.000715247)
(0.125089 -0.00161529 0.00047648)
(0.118698 -0.000132394 -0.000267438)
(0.122959 0.000223672 -0.000113151)
(0.122942 -0.000794113 -0.000666743)
(0.123196 5.11874e-05 -0.00103282)
(0.116321 -0.000497135 0.000298666)
(0.122932 0.000730002 0.000186537)
(0.122398 -0.000890003 -0.000228921)
(0.124544 0.000161739 0.000292015)
(0.122821 -0.000415985 1.70476e-05)
(0.125194 -0.000241506 -0.000286473)
(0.125506 -0.000454269 0.000291537)
(0.126562 -5.33666e-05 -0.000618055)
(0.125751 0.000410887 -0.000728387)
(0.125606 -0.000379076 -0.000896508)
(0.126457 -0.000496568 0.000195254)
(0.122815 -5.96472e-05 0.000514574)
(0.121712 0.000171901 -0.000276672)
(0.121481 -0.000723824 -0.000437684)
(0.126189 -0.000281538 0.000303559)
(0.125793 0.000277594 -1.04735e-05)
(0.126364 2.36217e-05 -0.000577449)
(0.1252 -0.000750489 -1.02701e-05)
(0.124185 -0.000151069 0.000127111)
(0.126854 -0.000111413 -0.000106409)
(0.12363 -0.000116677 9.99594e-05)
(0.118489 -0.000161392 -0.00028139)
(0.117394 -0.000812417 -0.000550975)
(0.126671 0.000390072 0.000640245)
(0.123013 -0.000522851 -0.000522788)
(0.122695 -0.000295531 -0.000408437)
(0.127451 0.000268794 0.00123128)
(0.126255 0.000378578 0.000314009)
(0.11679 -0.000369052 -0.000500596)
(0.117258 -0.000154866 -0.00073134)
(0.126034 -0.000321275 5.16818e-05)
(0.125787 4.90188e-05 -0.000230965)
(0.118014 -0.00027945 -0.000426459)
(0.118608 -9.36065e-05 0.000223601)
(0.126636 -0.000520984 0.000218717)
(0.120846 -8.6984e-05 -0.00127995)
(0.122916 -0.000223454 2.44663e-05)
(0.123739 -0.000633661 -0.000906053)
(0.126379 -5.9314e-05 0.000105021)
(0.11914 0.000625014 -0.00131725)
(0.128312 9.80346e-06 -1.80501e-05)
(0.125499 -0.000471013 -0.000290141)
(0.119384 -0.0012951 -0.000227153)
(0.11777 -0.000754639 0.00110466)
(0.12254 -0.000405938 -8.29121e-05)
(0.127456 -0.000194469 -0.000478881)
(0.116411 0.000349407 1.00386e-05)
(0.118374 0.000396424 -0.00103011)
(0.117797 -0.000475198 0.000198593)
(0.11665 -0.00105847 8.67074e-05)
(0.121899 0.000614436 -0.000356656)
(0.117946 0.000323997 0.000250638)
(0.127089 -0.000617138 0.000137899)
(0.126854 -0.000517229 0.000234517)
(0.117997 0.000272788 -0.000902578)
(0.119234 -0.00102927 0.000273134)
(0.12229 0.000747142 -0.000506374)
(0.118277 -9.22193e-06 -6.84645e-05)
(0.123852 -0.000116446 0.000544055)
(0.127629 -0.000328833 -0.000192725)
(0.125392 -0.000773142 -0.00050669)
(0.123398 0.000615742 0.0002531)
(0.126162 0.000463127 0.000349973)
(0.124013 -0.000558416 -4.69802e-05)
(0.122004 -0.00057547 -1.23093e-05)
(0.122166 0.000142646 -4.15954e-05)
(0.122812 -0.000584609 0.000771615)
(0.121338 -5.1695e-05 0.000245275)
(0.115553 0.000995346 -0.000676702)
(0.124889 -0.000300665 8.11138e-05)
(0.127483 -8.70239e-05 -0.00019338)
(0.122984 0.000321531 0.000869934)
(0.126709 0.000168659 -0.000172003)
(0.118764 -0.000297078 0.00010763)
(0.11603 -0.000132205 0.000464825)
(0.127846 -0.000184687 -6.37849e-05)
(0.126431 -0.000212805 -0.000310072)
(0.123785 -0.000307834 0.000427327)
(0.122524 -0.000127825 0.000291932)
(0.12314 -0.000277402 -0.00045903)
(0.124134 -0.000304357 -0.000772844)
(0.12381 0.000761738 0.000418252)
(0.125933 0.000554245 -0.000472141)
(0.118381 -0.00020636 -0.000353845)
(0.122393 0.000104097 -0.000223847)
(0.127406 -0.000126703 0.000338977)
(0.125814 -0.000198512 0.000313096)
(0.125523 -8.60334e-05 0.000341663)
(0.122912 -0.00167452 -0.000996075)
(0.124124 -0.000610963 -0.000455918)
(0.121291 0.000124056 -0.000379411)
(0.123032 -0.00035673 -0.000478018)
(0.121251 0.000613986 -0.000718908)
(0.126611 0.0001303 -0.000752362)
(0.116393 -0.000103397 1.29332e-05)
(0.123171 -0.000103676 -0.000209665)
(0.122916 0.000341831 4.48335e-05)
(0.124523 0.000126292 -0.000257726)
(0.127036 -0.000223436 -0.000542718)
(0.126313 -0.000620943 -0.000417378)
(0.127309 -0.000257298 -0.000298304)
(0.11831 -0.0011304 -0.00035189)
(0.121547 -0.000886089 0.000479287)
(0.126117 -0.000413637 -0.000302969)
(0.126852 -0.000241472 0.000368671)
(0.125575 2.1997e-05 0.000390703)
(0.123939 -0.000509804 -0.000612661)
(0.114422 -0.000441987 0.000598314)
(0.122809 -0.000336923 0.000363931)
(0.118126 -0.000865304 -0.00031045)
(0.12111 0.000330451 0.000125893)
(0.126288 -0.000475499 0.000475419)
(0.121812 2.06597e-05 0.000624265)
(0.11695 0.000455775 -0.000261409)
(0.124026 0.00029338 0.000212365)
(0.125871 0.000652424 -0.000280967)
(0.127564 -0.000677102 1.22191e-05)
(0.117553 -0.000401192 3.30384e-06)
(0.116696 -0.000834349 0.000428252)
(0.12479 -0.000233205 0.000458314)
(0.126736 -0.000122087 -0.000613484)
(0.1177 -8.31052e-05 0.000485902)
(0.12677 -0.000569472 0.000318701)
(0.121264 -9.61209e-05 -0.000527322)
(0.118581 -0.000531385 0.000200274)
(0.122277 0.000311375 -0.00043028)
(0.125086 -0.000377246 0.000120055)
(0.121497 -0.000962698 -0.000244731)
(0.120599 0.000215873 0.00102138)
(0.122045 0.000442969 0.000477243)
(0.124116 -4.9713e-05 -0.000243453)
(0.121741 0.000386826 -0.000589374)
(0.121019 0.000976049 -0.00114061)
(0.116512 -0.000432736 0.000604021)
(0.12178 0.000167102 -0.000806572)
(0.122269 5.4837e-05 -0.000708081)
(0.119915 -4.63811e-05 1.20187e-05)
(0.122015 -0.00114823 0.000560222)
(0.126769 0.00028406 -0.000151552)
(0.126923 0.000541766 0.000238058)
(0.124143 0.000325042 -4.99482e-05)
(0.118665 0.000188945 7.47812e-05)
(0.126209 0.000347271 -0.000195488)
(0.126129 0.00029753 -0.000521829)
(0.124054 -0.000402451 -0.000263065)
(0.127851 0.00011073 0.000879568)
(0.127302 0.000144444 -0.000440105)
(0.125168 0.000154971 -0.000442627)
(0.127057 -0.0001719 4.41961e-05)
(0.121488 0.000442638 0.00032092)
(0.123812 -0.000356816 -0.000675971)
(0.116919 0.00021469 -0.00172601)
(0.12205 0.000145141 -1.19365e-05)
(0.126287 -0.00121732 0.000468042)
(0.121443 -2.87933e-05 0.000450641)
(0.126611 0.00044491 -0.000195159)
(0.122907 0.000466946 -0.00068359)
(0.124596 -0.000258607 0.000205726)
(0.125409 0.000426439 0.000437437)
(0.127481 -6.61474e-05 -0.000731987)
(0.12382 0.000623313 4.80776e-05)
(0.117828 0.000336942 2.95453e-05)
(0.122926 0.000340238 0.000197655)
(0.119387 0.00178484 -0.00030826)
(0.126715 -0.000437688 -0.0010002)
(0.123069 -0.000617655 -0.000623053)
(0.126717 0.000327878 -0.000533951)
(0.1245 0.000363158 4.92601e-05)
(0.122295 -0.000240738 -0.000448366)
(0.116488 -0.000116001 -1.46505e-05)
(0.119494 -3.62851e-05 -0.000603972)
(0.118233 0.00044085 0.00032224)
(0.116399 -0.000373635 0.00010218)
(0.127029 -0.000338169 -0.000474506)
(0.116846 -0.000521332 -0.000679201)
(0.123975 -0.000427921 0.000350542)
(0.123633 0.000499432 -0.000282009)
(0.123116 7.34595e-05 -0.000208569)
(0.118722 -0.00024931 -0.000354084)
(0.126943 -0.000835991 -1.11399e-05)
(0.123261 0.000136812 -0.000835313)
(0.120951 0.000203614 0.000750204)
(0.126705 8.25108e-05 -0.000421772)
(0.12508 -0.000169097 -6.88419e-05)
(0.119349 0.000553143 0.000511385)
(0.121424 0.000196924 -2.30189e-05)
(0.118509 0.000190831 -3.04588e-05)
(0.123421 0.00027318 -0.000406971)
(0.121782 0.000396398 -0.000189754)
(0.11828 0.000403669 0.000974089)
(0.123626 -2.70086e-05 -0.000258214)
(0.121756 0.00111092 0.000834681)
(0.115749 3.39769e-05 -0.00135326)
(0.115695 0.00030147 0.000238533)
(0.125308 -0.000476279 0.000161372)
(0.12666 0.000115464 -9.00386e-05)
(0.127562 0.000375959 -0.000141914)
(0.117094 0.000454298 0.000464914)
(0.118919 -0.000148306 0.000651664)
(0.125818 0.000147387 0.000430865)
(0.120293 -0.000260566 -0.00029089)
(0.120716 0.000594839 -0.000908611)
(0.125615 0.000599286 0.000220077)
(0.126556 -0.000722664 -0.00010903)
(0.123459 -0.00090281 0.000222908)
(0.126661 -0.00118208 -0.000219576)
(0.127692 0.000172085 -0.000234758)
(0.118182 -0.000177543 -0.000287353)
(0.127182 -0.00141774 -0.000111668)
(0.115428 0.000155751 -0.000270391)
(0.116896 -3.13521e-05 -3.97308e-05)
(0.127028 -0.000459927 -0.000312246)
(0.126292 -0.000387147 -0.000219055)
(0.127101 1.20181e-05 -0.000849668)
(0.12757 0.000380045 -0.00115433)
(0.126447 -0.000270647 -0.000894603)
(0.119363 0.00141686 -0.00060107)
(0.121334 -0.00120544 0.000788229)
(0.122043 -0.000216549 -0.000336167)
(0.125067 -0.00105422 0.000180533)
(0.127232 0.00100538 0.000926724)
(0.127911 -0.000946024 0.000382554)
(0.122836 0.000210208 -0.000259978)
(0.120362 -0.00117834 0.000430034)
(0.122755 4.38018e-05 -0.000188401)
(0.126329 -0.000183732 -0.000152483)
(0.126106 -0.000235226 -0.00105336)
(0.122153 9.64212e-05 -0.000218173)
(0.124791 -0.000216505 1.60024e-05)
(0.122218 0.000653417 -0.00071699)
(0.122713 -0.000482047 -0.000434573)
(0.125051 -0.000481702 0.000538481)
(0.120731 -0.00130616 0.00117601)
(0.118164 -0.00011401 -5.69051e-05)
(0.123986 0.000775269 -0.000229099)
(0.125082 0.00010989 0.000682639)
(0.122308 0.000425638 -0.000201068)
(0.125346 0.000400557 0.000448237)
(0.126557 -0.000344213 0.000369677)
(0.123188 0.00012386 -0.000482974)
(0.118759 1.41888e-05 -0.000571612)
(0.122453 0.000515929 -0.000410293)
(0.121583 0.000513098 0.00059508)
(0.116996 0.000203731 -0.000470547)
(0.126333 -0.000712378 0.000332604)
(0.116592 0.000693109 0.000452204)
(0.125531 -0.000182556 -0.000465673)
(0.127303 -0.00072012 -0.000396663)
(0.11767 -0.000409945 0.000213103)
(0.123331 0.000405068 8.41312e-05)
(0.121763 0.000474976 0.000442396)
(0.117535 -0.00037322 -1.23324e-05)
(0.124974 -0.000205488 -0.000327869)
(0.119019 7.26029e-05 -1.92111e-05)
(0.123324 4.76456e-05 0.000819001)
(0.126906 0.000241969 0.000102583)
(0.125258 0.000189217 0.000121161)
(0.116746 0.000365383 0.000125467)
(0.125615 0.000416772 7.07205e-05)
(0.118853 0.000166675 -0.00042312)
(0.125585 -1.68859e-05 1.51231e-05)
(0.125496 0.000180363 0.000256041)
(0.126078 -6.23757e-05 -0.000659419)
(0.126872 -0.000124224 -0.000587044)
(0.117715 8.20485e-05 -0.000800899)
(0.125209 -0.000598405 3.90361e-05)
(0.116991 9.36054e-05 -0.000569141)
(0.121964 8.05849e-05 -0.000479379)
(0.117957 3.11647e-05 -0.000497755)
(0.127973 -6.23277e-05 -0.000653523)
(0.126442 4.86046e-06 -0.000611668)
(0.127555 2.65543e-05 -3.82266e-06)
(0.126953 -0.000416864 -0.000603841)
(0.124575 -5.5619e-05 -0.000869956)
(0.126119 0.000223986 0.000305634)
(0.122091 0.000251686 -0.00014602)
(0.124341 0.000410015 -0.000359574)
(0.123004 0.000116675 -0.000406401)
(0.119082 0.000224252 0.000101843)
(0.126 5.40745e-05 -0.000511891)
(0.123887 -0.000387718 -5.01917e-05)
(0.124091 -7.27409e-05 -0.000337857)
(0.12623 0.000231585 0.000215095)
(0.125972 -0.000118642 -0.000412025)
(0.126649 -1.88811e-05 0.00029614)
(0.123059 -0.000731727 0.000188903)
(0.117218 -0.000178628 0.000738348)
(0.12264 0.000149123 0.000109812)
(0.125381 0.000126215 0.000516252)
(0.12442 -0.000188139 0.000108243)
(0.117852 -0.000666354 -0.000450744)
(0.126506 0.000147457 -0.00036497)
(0.126309 -0.000202736 -0.000911085)
(0.120706 0.000383414 -0.0003566)
(0.124879 -0.000187835 -0.000476901)
(0.125572 -0.000454613 -0.00121336)
(0.125603 -0.000419997 -0.000655679)
(0.125411 -0.000413178 -0.000139633)
(0.117397 -5.22172e-05 -5.55321e-05)
(0.124821 -0.000509313 0.000128349)
(0.125115 -0.00061275 0.000224426)
(0.115549 0.000121679 0.000159214)
(0.124591 -0.00107211 -2.026e-05)
(0.124719 -0.000362646 -0.0001186)
(0.120671 5.93964e-05 0.000408685)
(0.116387 5.31395e-05 0.000255308)
(0.116053 -0.000506444 0.000648336)
(0.122388 -0.00105247 0.00027545)
(0.115854 0.000761392 -0.000683007)
(0.122602 7.35665e-05 0.000187123)
(0.123759 8.52938e-06 -7.65819e-05)
(0.121474 0.000564208 0.000286139)
(0.125414 0.000392382 0.000230543)
(0.117057 -0.00039477 0.000147449)
(0.124716 0.000359516 9.56666e-05)
(0.127845 0.000259755 6.11079e-05)
(0.122318 -0.000123579 8.89139e-05)
(0.125411 -0.000163632 0.00068793)
(0.122835 0.000178774 5.90038e-05)
(0.12684 0.00106829 1.46468e-05)
(0.124065 0.00043718 0.00010327)
(0.124824 -0.000313402 -0.000737897)
(0.127893 0.000106417 -0.000427521)
(0.123166 7.91523e-05 -0.000460701)
(0.117695 0.000253487 0.000157267)
(0.122549 2.11642e-05 -0.000145713)
(0.127356 0.000169166 -0.00127034)
(0.126271 0.000232661 -0.000846641)
(0.125532 -0.000288472 0.000758346)
(0.126769 1.57383e-05 7.83917e-05)
(0.12271 -0.000744358 0.000674172)
(0.126093 -0.00022672 0.00026045)
(0.124941 0.000416936 0.000401856)
(0.125848 0.000394045 -0.000102652)
(0.126144 -0.000279868 -0.000503233)
(0.116311 -0.00044573 -0.000357361)
(0.122329 -0.00030408 0.000240306)
(0.114901 -0.000206328 0.000259467)
(0.122919 0.000685709 0.000790707)
(0.121274 -0.00011841 -0.000723668)
(0.11749 -0.000314117 0.000759955)
(0.116847 -0.000516222 -0.000271782)
(0.123844 0.000387124 -0.000246527)
(0.124782 -0.000444933 -0.000304864)
(0.126651 -1.2781e-05 -0.000584678)
(0.11827 -0.000256817 0.000757646)
(0.125621 5.71174e-05 -1.75668e-05)
(0.123475 -4.06051e-05 0.000343373)
(0.122809 -0.000203774 -0.000458323)
(0.124807 -1.04134e-05 -0.000678391)
(0.11575 -0.00104098 0.00155903)
(0.12279 -0.000113463 -0.000487287)
(0.117051 0.000123776 0.000341533)
(0.120959 -0.000521048 -0.000447434)
(0.125663 -0.000127981 2.11046e-05)
(0.128188 0.00135795 0.000325838)
(0.12583 0.000204958 -0.00112637)
(0.124372 0.000520901 -0.000694371)
(0.115826 0.000291097 0.00153887)
(0.125368 -7.25261e-05 0.000100818)
(0.124313 -0.000238103 -0.000553229)
(0.125841 -0.000219815 -0.000343777)
(0.116617 -8.006e-05 1.10642e-05)
(0.119145 -0.000194714 0.000702679)
(0.121678 0.000478764 0.000664145)
(0.119218 0.000414584 -0.000206896)
(0.115493 -0.000762633 -0.000241618)
(0.125859 -0.000100866 -0.000410035)
(0.118787 -0.000159727 0.000163683)
(0.121771 0.000886373 8.65337e-05)
(0.117272 -0.000306402 -0.00103363)
(0.125335 0.000378044 6.21422e-05)
(0.11795 0.000166671 -0.000379505)
(0.126844 -0.00025391 0.000670986)
(0.125208 7.5826e-05 -0.000474294)
(0.126947 -6.41815e-05 0.000568663)
(0.126988 -0.000160807 -0.000508517)
(0.118381 -1.34661e-05 5.08531e-05)
(0.126097 3e-05 0.000227643)
(0.12737 -0.000322422 -2.84638e-05)
(0.124447 -0.000515486 0.000523282)
(0.125272 0.000566537 -0.000247452)
(0.124363 -0.000457925 -0.000252686)
(0.126705 0.000433568 -0.00013754)
(0.125423 -6.82814e-05 0.000124344)
(0.121375 4.15228e-05 -0.000399485)
(0.128248 -0.000255932 -1.91595e-05)
(0.127617 -0.000411344 -0.000438798)
(0.123422 -0.000326675 -0.000371258)
(0.122968 -0.000248139 -0.000765334)
(0.126723 -0.000396807 -0.000219033)
(0.123847 0.000455754 8.61074e-05)
(0.1157 0.000742748 -0.000180012)
(0.116101 0.00045982 -4.31811e-05)
(0.122974 4.36721e-05 1.10937e-05)
(0.126176 -0.000141033 0.000360629)
(0.127514 -0.000191964 -0.000243294)
(0.12129 -0.000146407 -0.000101033)
(0.126416 0.000677826 0.000269786)
(0.124898 -0.000170391 -9.14865e-05)
(0.126578 0.000897312 0.000760438)
(0.123525 3.81671e-05 -0.000201728)
(0.124015 0.000581666 -0.000562136)
(0.124893 -0.001629 0.000380736)
(0.117265 1.36648e-05 -0.000282897)
(0.122852 0.000212779 -2.63989e-05)
(0.125102 -2.91325e-05 -0.000422574)
(0.12697 -2.14831e-05 7.46857e-05)
(0.11896 -4.51114e-05 8.41478e-05)
(0.119893 0.000699094 -0.000902675)
(0.120832 -7.86311e-05 -0.000342238)
(0.120832 -0.000276311 -6.11789e-05)
(0.12257 -0.00020603 -0.000553884)
(0.116982 -0.000130552 -0.000330401)
(0.126115 8.14758e-05 -0.000925931)
(0.121911 -9.83317e-05 -0.000218482)
(0.125488 0.000137168 0.00116026)
(0.122892 -0.000292098 -7.56399e-05)
(0.127415 -0.000267845 -0.000239393)
(0.123887 -0.000375335 -0.000977903)
(0.117541 0.000178582 0.000599087)
(0.124837 0.000710196 1.72951e-05)
(0.127757 -0.000404509 -0.00105581)
(0.118208 0.000448071 0.00123997)
(0.126616 -0.000223166 -0.000755364)
(0.128709 -0.000813831 -0.000752979)
(0.123642 -0.000155861 -9.82049e-05)
(0.121931 0.000215784 0.000230626)
(0.124996 0.000735865 -0.00135471)
(0.121059 -6.33661e-05 9.04071e-05)
(0.123108 -0.000487067 0.000119934)
(0.122831 0.000122132 0.000322481)
(0.118001 -0.000176108 -2.48971e-05)
(0.118375 -0.000194971 -0.00115931)
(0.12207 0.000175564 0.000538976)
(0.121203 0.000658511 0.000161646)
(0.126145 -0.000177512 -0.000284222)
(0.120968 -0.000445236 0.000249985)
(0.122823 0.000464484 0.000415757)
(0.127106 0.000266974 0.000440641)
(0.121818 0.000189299 1.38121e-06)
(0.116424 0.000194943 0.00042963)
(0.121223 0.000364961 0.000241074)
(0.123177 0.00044755 -0.000381481)
(0.127539 -0.000175782 0.000300466)
(0.117182 0.00077166 0.000365588)
(0.116812 -0.000129985 0.0003254)
(0.127208 0.000310933 0.000952)
(0.11731 0.000295088 -6.66902e-05)
(0.124257 -1.9182e-05 -8.29033e-05)
(0.126026 0.000200091 -0.000296239)
(0.118895 -0.000136108 -0.000909798)
(0.123101 -2.13289e-05 -0.000517133)
(0.126851 0.000571798 -0.000929334)
(0.123238 -0.000166973 0.00062068)
(0.115621 8.78667e-05 0.000261616)
(0.126371 0.000289908 -0.000244129)
(0.12346 -9.35404e-05 -0.000197119)
(0.115981 0.000567215 0.000115549)
(0.126812 0.000310418 -0.000271662)
(0.12131 -0.000201773 -0.000372942)
(0.122499 0.0006681 -0.000352742)
(0.12508 2.54452e-06 -0.000195669)
(0.116157 0.000856931 -0.000456092)
(0.122147 -0.000137837 -0.001067)
(0.121735 -0.000975599 -0.000151477)
(0.123562 -0.000104495 -0.000513192)
(0.119122 -0.000210704 0.000449505)
(0.120817 -0.000170681 -0.000122741)
(0.12509 0.000505783 0.000608416)
(0.127604 -0.00102004 -0.000698401)
(0.129185 -0.000372471 -0.000188388)
(0.127591 0.000578594 -0.000485058)
(0.126646 -0.000656695 -0.000201414)
(0.125821 3.3677e-05 -0.00126512)
(0.120583 -0.000271436 0.000539602)
(0.128205 0.000121808 -0.00120747)
(0.125906 -4.50407e-05 6.83028e-05)
(0.124694 0.000467668 0.000116405)
(0.119105 0.000779139 -0.000439291)
(0.123746 -0.000142708 -0.000214916)
(0.125267 0.000548274 0.00062763)
(0.128961 0.000918999 4.05201e-06)
(0.117047 -0.000172634 0.000365952)
(0.115664 -0.000348524 0.00044494)
(0.126727 0.0003066 -0.000655376)
(0.121182 4.10073e-05 -0.000301545)
(0.127036 0.00013431 -0.00013008)
(0.122167 0.000295984 -0.000557)
(0.118925 -0.000440829 -0.000867584)
(0.124914 -0.000186583 -0.000926158)
(0.126484 0.00040567 3.21623e-05)
(0.124565 0.000265589 0.000161119)
(0.126106 0.00106669 -0.000342386)
(0.117805 -8.25238e-05 -0.00185515)
(0.126139 0.000906038 0.000205108)
(0.125946 -0.000446187 -0.000485759)
(0.11651 0.000389993 -0.000128469)
(0.1254 -0.000226065 -0.00053947)
(0.125217 -0.000238081 4.82365e-05)
(0.122655 -0.000642674 0.00136184)
(0.118158 -0.000581849 -0.0010104)
(0.11639 0.000283181 -0.000905686)
(0.122925 0.000278047 -0.000255558)
(0.122583 -1.67831e-05 0.00100957)
(0.123423 -0.000162359 0.00019314)
(0.122522 0.000604714 9.93173e-05)
(0.121927 0.000519513 0.00081309)
(0.126286 9.01507e-05 0.000169992)
(0.123604 -1.50089e-05 0.000322315)
(0.123782 0.00050725 0.000329697)
(0.119164 -0.000269117 0.000725408)
(0.127432 -6.04145e-05 -0.00105576)
(0.117341 -0.000228044 7.56846e-05)
(0.123056 0.000632047 -4.01464e-05)
(0.122527 0.000234821 -0.000157265)
(0.123193 -0.000719272 -0.000820135)
(0.125203 0.000473903 -0.000194812)
(0.121357 6.04669e-05 -0.000503038)
(0.117576 -0.000976285 -0.000538903)
(0.116467 -0.00024902 -0.000648107)
(0.118055 -0.000338087 -0.000337513)
(0.122862 -0.000547689 -0.000361662)
(0.125274 0.000729516 0.000230546)
(0.117341 0.000547457 0.00201784)
(0.126136 -0.000144806 1.04734e-05)
(0.123605 -5.08503e-05 -0.00088541)
(0.126927 -0.000445431 -0.000379874)
(0.116931 0.000131088 -0.000770774)
(0.120927 0.000351675 0.000607387)
(0.125489 0.000296093 -0.00105553)
(0.127332 -0.00103909 -6.93522e-05)
(0.125357 0.000438302 -0.000405862)
(0.126526 -0.000219087 -0.000293338)
(0.123694 0.000196095 0.000152458)
(0.122877 0.000355962 0.000188969)
(0.127717 6.36417e-05 0.000172274)
(0.127403 0.000491248 -5.79965e-05)
(0.126942 0.000271262 1.94818e-05)
(0.119506 0.00105113 -0.000534566)
(0.12714 -0.000969265 -0.000744593)
(0.116472 -0.000229775 0.000496657)
(0.127198 0.000757463 0.000134014)
(0.124239 -3.56896e-05 -0.000170751)
(0.123109 0.000352567 -0.000649157)
(0.117986 0.00105991 -4.22074e-05)
(0.122933 0.00115369 -0.000892662)
(0.115154 -0.000633689 -0.00107551)
(0.12634 0.000521438 -0.000716759)
(0.123585 0.000252547 -0.000273582)
(0.126248 -0.000187321 -0.000294914)
(0.122542 0.000480859 -0.000163669)
(0.121528 0.0011932 -0.00038229)
(0.117334 -0.000344025 0.000833276)
(0.128033 0.000329083 -0.000118587)
(0.118846 -0.000606364 0.000397073)
(0.115546 -0.000293312 -0.000315701)
(0.118652 -0.000146119 -6.70451e-05)
(0.118909 0.000578077 0.000285249)
(0.117521 0.000666547 -9.87789e-05)
(0.123018 -0.00035545 8.50062e-05)
(0.117724 0.00012059 -0.000152491)
(0.125187 -0.00126792 0.000668706)
(0.125721 4.25366e-05 -0.000422671)
(0.115438 -0.000134262 -8.92792e-05)
(0.125108 0.000175768 -0.000211323)
(0.117579 0.000210454 -0.000761329)
(0.122669 0.00056222 -0.0002694)
(0.12333 0.000271684 -0.000261076)
(0.123168 -0.000411586 -0.000985185)
(0.125947 0.000169168 -2.17751e-05)
(0.127934 0.000366008 -0.000912316)
(0.126112 -7.21571e-05 0.000258072)
(0.125056 2.33601e-05 -2.07563e-05)
(0.124781 -0.000278233 -0.00118868)
(0.125425 0.000278267 0.00011962)
(0.122317 0.000442705 -7.66925e-05)
(0.122931 0.00050678 0.000264571)
(0.116161 0.000509611 -0.000917084)
(0.110999 -0.000135413 0.00333713)
(0.126476 9.14301e-05 -7.65636e-07)
(0.122919 9.24863e-05 -0.000222099)
(0.125951 -0.000316261 -0.000104676)
(0.125506 -0.000111982 0.000299134)
(0.116863 -0.000624923 -4.66722e-05)
(0.126545 -0.000137915 -0.000206837)
(0.126784 0.000616171 0.000152476)
(0.126539 3.79153e-05 0.000186564)
(0.126407 0.000452559 0.000586416)
(0.124614 0.000345349 0.000467422)
(0.124075 -0.000563899 -0.000129067)
(0.12625 -0.000106638 0.00022154)
(0.127467 -0.000166372 0.000691761)
(0.124199 0.000271515 0.000331395)
(0.127038 0.000389353 -0.000297913)
(0.12656 -0.000425103 -0.000435084)
(0.119433 -0.000331727 -0.000488734)
(0.126448 -9.73304e-05 0.000284134)
(0.12024 -0.000288028 0.000523662)
(0.123632 0.000456697 -0.000288586)
(0.123207 -0.000958922 0.000148163)
(0.122708 -0.000527325 0.000363886)
(0.122474 0.000775868 0.00015948)
(0.125479 0.00041161 2.73247e-05)
(0.123072 -5.21112e-05 -0.000147695)
(0.123905 0.000535543 -0.000699171)
(0.122717 0.00127483 -0.00067626)
(0.116658 0.00150722 -0.00106921)
(0.127812 0.000566133 -0.000304853)
(0.125584 0.000700487 -0.00013601)
(0.122417 6.90241e-05 0.000823606)
(0.117269 -0.000333186 1.28883e-05)
(0.125678 -0.000367363 -3.32846e-05)
(0.116986 -0.000594364 -0.000518177)
(0.126699 -0.00030826 0.000200624)
(0.126515 -7.65198e-05 0.000253847)
(0.121371 0.00131006 -0.000628865)
(0.125062 -0.000378523 0.000155012)
(0.127226 0.000110496 -0.000411824)
(0.124141 -0.000523625 -0.000284798)
(0.116257 -3.96733e-06 0.000291936)
(0.123021 0.000202556 0.00047339)
(0.120129 0.000558171 -0.000333404)
(0.123021 0.000332204 -0.000356223)
(0.116851 -0.000524035 -0.000958392)
(0.125589 -4.34921e-05 -0.000430103)
(0.125913 -0.000433027 0.000718844)
(0.121091 0.000937199 -0.000761856)
(0.122776 0.000183491 3.80312e-05)
(0.120041 0.000298039 -0.000616731)
(0.126125 1.92167e-05 -0.000432808)
(0.122582 -0.000764684 4.57586e-05)
(0.123368 0.000615586 0.000542389)
(0.117299 -0.000167468 0.000127331)
(0.126182 1.08974e-05 5.61908e-05)
(0.124546 -0.000374769 -0.000119978)
(0.126384 -6.76089e-05 -0.000201967)
(0.120193 0.000414003 -0.000293014)
(0.122668 -4.92257e-05 -0.000306091)
(0.123872 9.63901e-05 -0.00026593)
(0.121591 -0.000267845 0.000308052)
(0.1243 -7.58159e-05 0.000446961)
(0.123964 -0.000414631 0.000550557)
(0.125759 -0.000387924 0.00013972)
(0.12298 -9.00076e-05 -0.000133165)
(0.11792 -5.99107e-05 -0.000179881)
(0.115729 -0.000166808 -0.000761806)
(0.12447 -0.000775927 0.000229286)
(0.116685 0.000513265 -0.00144456)
(0.121326 -0.000729979 -0.00156983)
(0.123011 0.000259897 -0.000336054)
(0.123155 0.000291174 0.000176374)
(0.127303 0.000335752 -0.000427367)
(0.116548 0.000106704 7.11949e-05)
(0.121954 -0.000121891 -0.000711123)
(0.127822 0.000127478 -0.000465881)
(0.118465 0.000773455 -0.00294985)
(0.118624 0.00134442 8.14958e-05)
(0.122425 0.000337403 -0.000877559)
(0.118328 0.000242904 2.74751e-05)
(0.125127 0.000978117 -0.00111692)
(0.118714 -0.000350438 2.70182e-05)
(0.127266 -0.000860084 -0.000443848)
(0.120754 0.00033272 0.000408394)
(0.122097 0.000692559 0.000502749)
(0.128394 0.000518249 0.000953787)
(0.115796 -6.73069e-05 0.000603275)
(0.120712 6.09413e-05 0.00040473)
(0.120864 4.42502e-05 0.000629047)
(0.12632 -4.23928e-05 -0.000786272)
(0.126447 -1.24676e-06 0.000454255)
(0.12683 3.03067e-05 -7.44927e-05)
(0.117581 0.000834607 0.000335354)
(0.125331 0.000177831 -0.000133581)
(0.126077 5.86252e-05 0.00105575)
(0.12108 0.000645323 -0.000126872)
(0.126323 0.000375929 -0.00012262)
(0.125897 0.000501375 0.000220366)
(0.125679 0.000397979 3.68312e-05)
(0.1269 0.000163109 -0.000648885)
(0.122814 0.000102087 -0.00011504)
(0.127775 -2.73587e-05 0.000511095)
(0.127441 0.00073745 0.000938127)
(0.126533 0.00010126 -0.00089079)
(0.124113 0.000445738 0.000298677)
(0.122227 -0.000245188 -0.000201023)
(0.122953 0.000474206 0.000164938)
(0.122655 0.000208048 -0.000265891)
(0.11588 -0.000959181 -0.00030096)
(0.121851 -6.99836e-05 0.000221935)
(0.124381 -0.000359335 0.00035236)
(0.126245 -0.000387045 -0.000267214)
(0.127284 -0.00027344 -0.000910806)
(0.122043 -0.000512618 -8.39215e-05)
(0.127751 0.00120414 -0.000291622)
(0.125322 -9.7542e-05 -9.55023e-05)
(0.12109 -0.000673801 0.000438008)
(0.126388 -0.00021003 -0.000442229)
(0.126667 -1.54334e-05 -0.000211421)
(0.125468 0.00014245 -0.000670922)
(0.125458 0.000298291 1.808e-05)