/*--------------------------------*- C++ -*----------------------------------*\
| =========                 |                                                 |
| \\      /  F ield         | OpenFOAM: The Open Source CFD Toolbox           |
|  \\    /   O peration     | Version:  2212                                  |
|   \\  /    A nd           | Website:  www.openfoam.com                      |
|    \\/     M anipulation  |                                                 |
\*---------------------------------------------------------------------------*/
FoamFile
{
    version     2.0;
    format      ascii;
    arch        "LSB;label=32;scalar=64";
    class       surfaceVectorField;
    location    "0.062";
    object      Uf;
}
// * * * * * * * * * * * * * * * * * * * * * * * * * * * * * * * * * * * * * //

dimensions      [0 1 -1 0 0 0 0];

internalField   nonuniform List<vector> 
68568
(
(0.124858 0.000164607 -0.000127808)
(0.124024 0.000539489 -0.000244934)
(0.123675 0.000329315 -3.87524e-05)
(0.126564 0.000782668 -0.000411768)
(0.123888 -0.000500569 -0.000209348)
(0.123904 -0.000523816 -0.000491011)
(0.122461 -0.000520796 6.43795e-05)
(0.115358 -0.000283934 -0.000255867)
(0.125515 0.000218889 0.000338305)
(0.125258 -0.000500036 0.000731161)
(0.123536 -0.000252264 -8.63747e-07)
(0.11895 -0.00070676 0.000782036)
(0.128058 -0.000193151 -0.000180238)
(0.126792 -8.66355e-05 -0.00048071)
(0.127761 -0.000149383 -0.000351718)
(0.128207 -0.000250342 -0.000375033)
(0.122132 -0.000208204 -0.00026433)
(0.125444 -0.000514219 -0.000304321)
(0.121405 -0.000238594 -0.000296463)
(0.125046 -0.000520276 -0.000360904)
(0.124607 -0.000260744 -3.62098e-05)
(0.122856 -0.000150922 0.000135548)
(0.124878 -0.000161059 0.000159007)
(0.116797 -0.000167251 -0.000315726)
(0.123903 -8.2119e-05 -0.000114627)
(0.118672 -0.00024889 0.000255836)
(0.120814 3.30322e-05 -0.000451119)
(0.124015 -0.000139287 -0.000199386)
(0.123707 0.000223581 0.000556152)
(0.126245 9.08071e-05 0.000152998)
(0.124841 -8.07341e-05 8.04056e-05)
(0.125338 -0.000158791 -0.000379651)
(0.123904 0.000153693 -0.000251058)
(0.124007 0.00037915 -0.000643676)
(0.126146 -0.000254348 -6.06933e-05)
(0.124495 -0.000638567 -0.000320145)
(0.126613 -0.000174544 -0.000544478)
(0.126809 -0.000598826 -0.00038692)
(0.127006 0.000460689 0.000144937)
(0.125449 0.000291617 -5.45379e-06)
(0.126853 0.000270445 -5.3723e-05)
(0.12257 -0.000107608 -0.000533826)
(0.127224 -0.000433486 -0.000771442)
(0.126742 -0.000603477 -0.000686536)
(0.123992 -0.00034828 0.000106309)
(0.122743 -0.00058167 -2.1443e-06)
(0.115841 -4.75569e-05 -0.000340046)
(0.126603 -0.000208519 -9.20135e-05)
(0.12641 -0.000174213 0.000329722)
(0.125411 -0.0002387 0.000256176)
(0.12334 -8.17054e-05 0.000226883)
(0.121466 -0.000381955 7.08246e-05)
(0.123439 -0.000313135 -5.95959e-05)
(0.122558 -0.000280083 3.60134e-05)
(0.115531 -0.00032479 1.67167e-05)
(0.124183 -0.000469764 0.000869397)
(0.118856 -0.000437122 0.000625407)
(0.120839 -0.000434408 0.000818032)
(0.124608 -0.000353254 0.000271367)
(0.123342 0.00025762 0.000168512)
(0.124505 0.000457581 0.000175107)
(0.123887 0.000421653 0.000136027)
(0.125793 0.000225988 7.06556e-05)
(0.118852 0.000495605 0.000429125)
(0.119011 -0.000312962 0.000659118)
(0.123505 -3.72969e-05 0.000224583)
(0.123857 -0.00011506 -0.000610122)
(0.12075 -0.000555602 -3.22656e-05)
(0.119477 -9.54671e-06 -0.000727707)
(0.124357 -0.000324664 -0.000345809)
(0.123664 1.47232e-05 -0.000216585)
(0.125492 -0.000315285 -8.42853e-05)
(0.12497 -0.000512839 -1.6609e-06)
(0.118377 -0.000110873 -0.000157115)
(0.118074 -0.000248791 -0.000370107)
(0.120054 5.71614e-05 -0.000317025)
(0.118519 0.000242775 -0.000339125)
(0.106268 -0.000200909 -0.000457757)
(0.125709 -0.00046817 -0.000558643)
(0.127353 -0.000221306 -0.00065942)
(0.126345 -0.000354747 -0.00065376)
(0.126861 -0.000385835 -0.000765627)
(0.12604 0.000341625 -0.000208683)
(0.126169 0.000472838 -9.80933e-05)
(0.123581 0.000465751 3.32623e-05)
(0.127017 0.000517803 -0.000224337)
(0.120076 0.000356384 -0.000329595)
(0.120537 -9.50289e-05 -0.000333282)
(0.123654 0.000177948 -0.000493704)
(0.124119 9.06391e-05 -0.000121516)
(0.117726 -8.00509e-05 4.21306e-05)
(0.122674 -0.000210115 -0.000141203)
(0.119869 0.000168981 -0.000567784)
(0.122685 -0.00022466 0.000252374)
(0.123317 -8.08848e-05 -6.59833e-05)
(0.123315 -0.000556808 0.000197779)
(0.125658 -0.000384873 0.000849218)
(0.123276 -0.000148966 -0.000373678)
(0.124942 -0.000224298 -0.000242892)
(0.117853 -0.000173368 0.000241904)
(0.125606 0.00153731 0.000376896)
(0.122996 0.00179165 -0.000444627)
(0.125165 0.00178721 0.000214857)
(0.123178 0.00138828 -0.000726767)
(0.124858 7.09941e-05 0.000536605)
(0.117862 0.000365062 -0.000258958)
(0.120004 0.000490079 0.000214646)
(0.126803 -4.85426e-05 0.000445178)
(0.125843 -0.000275434 0.000353216)
(0.126925 -0.000206327 0.000424253)
(0.127361 -0.000315103 -0.000163631)
(0.125178 -6.60677e-05 5.40278e-05)
(0.127552 -0.000255332 -0.000150465)
(0.124591 -0.000146754 -0.000157802)
(0.123354 -0.000121001 -0.000277573)
(0.123477 -0.000113577 -0.000440207)
(0.119192 0.000405572 -0.000136672)
(0.118644 -0.000277372 0.000315424)
(0.126232 0.000360708 -0.000456225)
(0.125418 1.7848e-05 -0.000245357)
(0.126564 1.93055e-05 -0.000428972)
(0.126934 -1.20931e-05 -0.00021401)
(0.120209 -0.000121758 -0.000228186)
(0.118875 -0.000229061 0.000148699)
(0.124047 -0.000187299 6.50356e-05)
(0.124294 2.50417e-05 0.000162848)
(0.120525 0.000472504 0.000533152)
(0.117925 0.000399988 0.000534909)
(0.117935 0.000303027 0.000105471)
(0.107343 0.000200574 0.000498779)
(0.126705 0.000445707 2.3699e-05)
(0.117596 -0.000115012 -0.000130778)
(0.117924 -0.000601014 -0.000290282)
(0.115071 -0.000325007 7.02755e-05)
(0.106471 -0.000373646 -7.32602e-05)
(0.127265 -0.000524084 0.00027167)
(0.127304 -0.000673793 0.000152165)
(0.127526 -0.000260475 0.000435001)
(0.126754 -0.000695616 0.000253879)
(0.124717 -0.00028325 0.000337595)
(0.124835 -0.000373372 0.000585946)
(0.126608 -0.000427554 0.000633073)
(0.116353 0.000623547 -0.000578736)
(0.117773 -0.000364379 -0.000129834)
(0.107662 4.03192e-05 -0.000154656)
(0.121754 -0.000128415 -7.24604e-05)
(0.118722 -0.000113712 -0.000374385)
(0.107647 0.000126118 -0.000514078)
(0.119975 -0.000296839 3.80156e-05)
(0.119993 -0.000587865 -0.000198389)
(0.121149 -0.000529108 -0.000187132)
(0.106972 -0.000380426 6.02775e-05)
(0.126369 -0.000303529 0.000214645)
(0.123899 -0.0002901 0.00011223)
(0.125862 -0.000407596 -0.000535007)
(0.127014 -0.000940066 -0.000420725)
(0.125444 -0.000813007 -0.000793875)
(0.127275 -0.000626243 -0.000910033)
(0.126266 -0.000613637 0.000600257)
(0.126753 -0.000804494 0.000208052)
(0.126071 -0.00041071 0.000340155)
(0.127472 -0.000702673 -0.00020233)
(0.125771 -0.000783675 -5.89324e-06)
(0.125058 -0.000456058 -0.000315916)
(0.127351 -0.000318229 -0.000519288)
(0.12266 7.4878e-05 -0.000344111)
(0.120457 0.000691516 -0.000503286)
(0.114221 -5.95111e-06 -0.000385428)
(0.124658 0.000425823 -0.000437439)
(0.125032 1.98576e-05 -0.000331881)
(0.121943 0.000282091 -0.000735751)
(0.120356 0.000155839 -0.000204869)
(0.122917 -0.000205691 0.000285942)
(0.122649 3.61895e-05 6.5637e-05)
(0.125145 3.97985e-05 -0.000269403)
(0.123856 -0.000193134 0.000148)
(0.126677 -0.000130897 -0.000311906)
(0.124934 -0.000361738 -0.000597107)
(0.125216 -1.30145e-05 -0.000502374)
(0.127284 6.12335e-05 -0.000928491)
(0.127776 -0.000169896 -0.000447118)
(0.120571 -0.000405932 -0.000608612)
(0.117829 -1.36869e-05 -0.000296454)
(0.118773 -2.84194e-05 -0.000188594)
(0.105802 -4.00078e-05 -0.000395016)
(0.125595 0.000808055 0.000147629)
(0.124679 0.000696566 0.00025745)
(0.126456 0.000827978 0.000162324)
(0.125931 0.000609571 2.40984e-05)
(0.117184 -0.000574196 0.000188563)
(0.107256 -0.000199954 0.000496368)
(0.121473 -0.000233876 -0.000289233)
(0.12136 -0.00051994 -1.31049e-05)
(0.125136 -0.000305033 -0.000340721)
(0.125194 -0.000411609 -7.98649e-05)
(0.122422 0.000311259 7.5778e-05)
(0.123197 0.000133102 6.7794e-05)
(0.125395 -5.75166e-05 -0.000231508)
(0.120003 -0.000115049 -0.000698771)
(0.11843 -9.75377e-05 -0.000283752)
(0.120244 0.000141105 -4.59451e-05)
(0.106992 0.000374197 -0.000166724)
(0.125501 0.000123185 0.000507503)
(0.124937 -0.000261203 0.000139812)
(0.123611 -2.45252e-05 0.000462281)
(0.118395 -8.57937e-06 0.000385626)
(0.125009 -0.000245862 0.000212718)
(0.123458 9.40246e-05 0.000515532)
(0.124997 -7.14582e-05 -6.90198e-06)
(0.117118 0.000104628 0.000296165)
(0.117481 6.79879e-05 -0.000182774)
(0.117715 0.000558514 -0.000180692)
(0.107926 0.000240074 -0.000141264)
(0.12398 -0.000572451 -0.000561515)
(0.123625 -5.31139e-05 -0.000395622)
(0.123883 -0.000185098 -0.000214207)
(0.126179 0.000369887 3.50176e-05)
(0.124586 0.000453612 6.54967e-05)
(0.126972 0.000147901 -0.000225822)
(0.125323 0.000221238 -0.000298523)
(0.123721 -0.000264021 -0.000381255)
(0.120511 -0.000353096 -0.000511074)
(0.120522 -0.000336068 -0.000269755)
(0.107975 -0.000386212 -0.000167817)
(0.124856 -0.000183896 -0.000187849)
(0.124942 -6.34179e-05 6.83803e-05)
(0.116248 -8.17552e-05 -0.000306912)
(0.123582 0.000253885 0.000209978)
(0.123874 0.000483439 0.00040734)
(0.125547 0.000538465 0.000470516)
(0.124025 0.000553674 0.000536868)
(0.127255 -0.000202865 -0.000618519)
(0.127617 -0.00024762 -0.000509119)
(0.127464 -0.000390898 -0.00045003)
(0.126911 -0.000301643 -0.000373494)
(0.123045 0.00017405 -0.00111992)
(0.125614 3.22801e-05 -0.000944679)
(0.126344 -0.000439909 -0.000748635)
(0.123183 -0.000504221 2.3736e-05)
(0.124803 -0.00027147 4.28227e-05)
(0.123108 -0.000120101 0.000286049)
(0.117448 -2.282e-05 -0.00024479)
(0.120327 -0.00101279 -0.000580878)
(0.121109 0.000329418 -0.000491979)
(0.107098 -9.05634e-05 -0.000459153)
(0.127126 0.00029976 7.9399e-05)
(0.127567 0.000252946 -0.000316898)
(0.12719 3.42854e-05 -8.3311e-05)
(0.127825 7.01882e-05 -0.000493276)
(0.126101 0.0002651 0.000179495)
(0.123644 0.000294365 0.000297536)
(0.125093 0.000106047 0.000333517)
(0.125165 0.000169038 -2.24959e-05)
(0.12077 0.000335357 -0.00126689)
(0.120069 0.000374945 -0.000610641)
(0.121963 0.000268513 -0.000880764)
(0.110732 -0.000552777 -0.000900893)
(0.123989 -0.000267401 -0.000665464)
(0.124088 -0.000279993 -0.000878397)
(0.126511 -0.000308469 -0.000450654)
(0.126065 -0.000254391 -0.000615642)
(0.125548 -0.00031545 -0.000188973)
(0.123573 -0.000477929 -0.000368671)
(0.123616 -4.58299e-05 -5.58026e-05)
(0.117823 2.28702e-05 -0.000640247)
(0.125773 0.000802017 0.000313487)
(0.125304 0.000857222 8.1493e-05)
(0.124321 0.000659211 -6.53368e-05)
(0.118114 9.42346e-05 -0.000658614)
(0.117481 0.000291242 -0.000377177)
(0.119522 0.000413595 -0.000608425)
(0.106303 0.000494956 -7.73892e-05)
(0.126153 -0.000626362 -9.78779e-05)
(0.125736 -0.000608026 0.000193068)
(0.127552 -0.000490993 8.59695e-05)
(0.121073 0.00110426 -0.000588071)
(0.124999 -2.36751e-05 -0.000428319)
(0.12431 0.000137627 -0.000430314)
(0.123084 -0.000362742 0.000560624)
(0.123606 -6.61859e-05 0.000302159)
(0.124068 -5.2754e-05 0.00041922)
(0.116338 -0.000191666 0.000384531)
(0.120297 -0.000277333 -0.000146379)
(0.126034 -8.84738e-05 0.000139744)
(0.123497 0.000161161 0.000138604)
(0.125974 0.000405975 -4.70529e-05)
(0.11845 0.000294244 -0.000384361)
(0.123025 -0.000179127 -0.000166984)
(0.123311 -0.000104202 -5.30641e-05)
(0.114867 -0.000226015 -0.000362279)
(0.116132 -0.00020936 0.000258815)
(0.115783 -0.000480057 0.000117303)
(0.107199 -0.00034053 0.000145343)
(0.127533 -0.000120901 0.000197645)
(0.125278 -0.000206444 -0.00012656)
(0.127414 -0.000437889 0.000185077)
(0.126428 -0.000620764 0.000239203)
(0.125989 -0.000512604 -0.000350625)
(0.12546 -3.56334e-05 -0.000201189)
(0.125236 -6.31596e-05 -0.000331074)
(0.116814 -0.000142525 2.34548e-06)
(0.122878 -0.000388471 -5.72502e-05)
(0.12522 -0.000408196 -8.90157e-05)
(0.125864 -0.000221737 -0.000153492)
(0.122824 -4.17487e-05 0.00017626)
(0.12731 -0.000332037 -0.000175763)
(0.124981 -0.000261912 -0.000328503)
(0.125166 -4.16776e-05 -3.73455e-06)
(0.127257 -0.000397488 -7.98187e-05)
(0.127309 -7.44926e-05 0.000205309)
(0.126832 -0.000332221 2.70035e-05)
(0.127694 -0.000286359 -0.000159649)
(0.125174 -0.000182744 -0.000267461)
(0.124846 -0.000303998 -0.00050915)
(0.127111 -0.000133377 -0.0006293)
(0.117798 0.00145053 -0.000987706)
(0.121644 6.33292e-05 -0.00142819)
(0.120264 0.000544816 -0.000902267)
(0.104501 -1.25155e-05 -0.000295572)
(0.125783 -0.000103151 -0.000276972)
(0.125707 -0.000220158 -0.000345729)
(0.127282 -0.000124766 -0.000579538)
(0.123956 -0.000332679 0.000208224)
(0.125924 -0.000258471 2.66118e-05)
(0.116779 -0.000115706 -0.000121923)
(0.120774 -0.000334586 -3.59315e-05)
(0.120158 2.4518e-06 -1.26385e-05)
(0.124175 -0.000360925 0.000254573)
(0.123964 -0.000416069 -0.000202185)
(0.119513 -0.000404351 -0.00113123)
(0.120163 -0.000589855 -0.000231009)
(0.105965 -0.00037448 -0.000235575)
(0.120867 0.000630508 -0.000870843)
(0.123021 0.000428011 -0.00101843)
(0.115262 -0.000238398 -0.000491362)
(0.119552 -0.000652353 -9.92473e-05)
(0.123414 -0.000745348 -0.000190914)
(0.119114 -0.000489195 -0.000509642)
(0.123174 -0.000481164 -0.000270128)
(0.124709 0.0003006 0.000249653)
(0.124475 0.000725221 7.65778e-05)
(0.122181 0.00102622 0.000749462)
(0.118199 0.000477615 0.000514993)
(0.122439 0.000233463 -0.000323027)
(0.123477 -9.50356e-05 -0.00028982)
(0.12583 0.000196432 -0.000170065)
(0.126041 -0.000330045 -8.20036e-05)
(0.125522 -0.00029575 -1.80415e-05)
(0.116581 -0.000259762 2.93602e-06)
(0.122915 5.12771e-05 0.000462048)
(0.122318 0.000369125 0.000392304)
(0.124071 3.85731e-05 0.000368174)
(0.116135 2.13334e-05 -9.58938e-05)
(0.119123 -0.0011856 9.13254e-05)
(0.119575 -0.000547838 -9.73234e-05)
(0.118383 -0.00134036 -0.000502982)
(0.106412 -0.000944172 0.00012261)
(0.124811 -0.000148312 -0.000300879)
(0.125298 7.41478e-05 0.000101865)
(0.122655 0.000718884 -0.000815944)
(0.125307 6.59441e-05 -0.000433839)
(0.124561 0.000145647 0.000312624)
(0.123364 -0.00019385 -0.000571201)
(0.12284 0.000326953 -0.000524607)
(0.121185 -0.000541049 -0.00041174)
(0.11583 -7.6064e-05 -0.000121901)
(0.117708 -2.83355e-05 -0.000215484)
(0.119876 -0.000404772 -0.000373747)
(0.118826 0.000174153 -0.000400234)
(0.106883 -4.65698e-05 8.49449e-05)
(0.120372 -3.46827e-05 -0.000317682)
(0.106219 -3.14852e-06 -0.000333943)
(0.125323 -0.000476207 -4.85143e-05)
(0.127546 -0.000258008 0.000262154)
(0.127637 -0.000328065 -0.000144161)
(0.108393 -3.21556e-05 0.000267906)
(0.118615 -0.000762186 -0.000745652)
(0.120027 -0.000584044 -0.000278996)
(0.119453 -0.00106411 -0.000732437)
(0.105598 -0.000413853 -0.00106327)
(0.118468 0.000637462 -0.00026143)
(0.122531 0.000351736 -0.000121653)
(0.117731 -0.000678981 0.000757942)
(0.116313 -0.000296574 0.00034799)
(0.11854 -6.65307e-05 0.000754644)
(0.106567 -0.000585092 0.000319361)
(0.125825 -0.00137386 0.000457682)
(0.122967 -0.00141842 0.000766504)
(0.123456 -0.0013469 0.000595635)
(0.125692 -0.0013388 0.000280667)
(0.121957 -0.000468427 -0.000699011)
(0.120593 -0.000378667 -0.000237248)
(0.11952 -0.000183687 -0.000271206)
(0.106067 0.000149884 -0.000328625)
(0.124699 0.000496734 8.80705e-07)
(0.123471 0.000340074 -6.31712e-05)
(0.124204 -0.000333335 8.20239e-06)
(0.118241 0.000261008 -0.000284498)
(0.120578 -0.000541113 -0.00046444)
(0.120529 -0.000547127 -0.000633928)
(0.123899 -0.000609144 -0.000592187)
(0.124771 -8.59542e-06 -0.000797703)
(0.124549 7.84139e-05 -0.000827743)
(0.12319 -2.74069e-05 -0.000850488)
(0.11587 0.000356439 -0.000916634)
(0.11948 -7.3718e-05 7.18135e-05)
(0.117477 -0.000429795 7.35512e-05)
(0.118566 -0.000622945 0.000467866)
(0.106338 -0.000447271 -7.58008e-05)
(0.124635 0.000772729 0.00144403)
(0.120387 0.000412421 -0.000278775)
(0.120134 -0.000334647 -3.02192e-05)
(0.124448 -0.000866982 -0.000126555)
(0.120234 -0.000569348 -5.2344e-05)
(0.124225 -0.000812889 0.00021059)
(0.124717 0.000183824 0.000340952)
(0.12428 0.000164713 0.000259428)
(0.124599 0.000150552 0.000211471)
(0.124592 5.0196e-05 0.000185499)
(0.12481 -0.00034089 -0.000104989)
(0.117273 -0.000338427 4.63203e-05)
(0.123917 -0.000300412 -0.000453276)
(0.124483 8.46228e-05 -0.000639863)
(0.126036 0.000186182 -0.00038017)
(0.123303 -0.000189245 -0.000162399)
(0.123949 -0.000296088 0.000282283)
(0.126032 -0.000129729 9.43448e-05)
(0.126877 -0.00031074 5.42378e-05)
(0.1247 -9.5537e-05 -0.0006076)
(0.124582 -0.000101909 -0.000485033)
(0.127294 -6.22957e-05 -0.000611569)
(0.123618 0.000279147 -0.000510113)
(0.125733 0.000234171 -0.000370584)
(0.126189 -0.000322841 -0.000742476)
(0.121726 -0.00088164 -0.000230078)
(0.127044 -3.76405e-05 -0.00066242)
(0.12446 -0.000613391 0.000306263)
(0.126318 5.59981e-05 0.000515364)
(0.12615 -0.000162768 0.000226109)
(0.126333 -0.000411938 0.000248431)
(0.124055 6.37892e-05 0.000273688)
(0.124928 -0.000203586 0.000390848)
(0.116041 -5.49433e-05 0.000186923)
(0.118549 -0.000106509 -0.000620343)
(0.118605 -0.000383764 -0.000247921)
(0.119361 -0.000824335 -0.000423409)
(0.123116 -0.000750857 -0.000481277)
(0.123826 -0.000577188 -0.00049272)
(0.124283 -0.000420053 0.00033713)
(0.12401 -0.000341379 9.56496e-05)
(0.1268 -0.000276404 -0.00020862)
(0.126732 -0.000239848 0.000141545)
(0.12584 0.000142728 -0.000128383)
(0.124271 -0.000132001 -0.000279612)
(0.123744 0.000291268 0.000107472)
(0.125819 0.000461568 0.000216128)
(0.125263 0.000223123 -0.000448107)
(0.127003 -0.000171831 -0.000795212)
(0.125932 -3.50033e-05 -0.000320277)
(0.126861 -0.000314734 -0.000661133)
(0.125311 -0.000579402 -7.70949e-05)
(0.12404 -0.000461313 -3.34006e-05)
(0.122637 -0.00115599 0.000205621)
(0.125822 -0.000869198 9.81062e-05)
(0.125412 -0.000131338 9.5907e-05)
(0.121283 -0.000151281 -0.000348376)
(0.126288 -0.000204695 5.33964e-05)
(0.121176 0.000118515 -0.000737902)
(0.126522 1.0895e-05 1.67747e-05)
(0.127348 -0.000194824 -0.000419131)
(0.126071 -2.61079e-05 -0.00021636)
(0.12534 -6.8258e-05 0.000388839)
(0.116229 -1.60904e-05 -5.876e-05)
(0.117859 -0.000249133 -0.000423915)
(0.107827 -0.000110286 -0.000246611)
(0.118553 -0.000725163 -0.00105131)
(0.106205 -0.00029889 -0.000297705)
(0.127233 0.000210261 0.000771187)
(0.124811 0.0002238 0.000242137)
(0.123215 -0.000625141 -0.000483267)
(0.11618 -0.000386985 -0.000369003)
(0.124899 -0.000281275 -0.000809658)
(0.124561 -0.000257251 -0.000634251)
(0.12306 -0.000417484 -0.000287238)
(0.11568 -0.000407462 -0.000427508)
(0.126828 0.000277352 0.000774229)
(0.126867 0.000103632 0.000838237)
(0.127037 0.00018241 0.00069322)
(0.125907 0.000365749 0.000773366)
(0.124726 0.000595746 0.000362651)
(0.124937 0.000263097 0.000243843)
(0.126441 0.000318289 0.000298248)
(0.117539 -0.000258372 -0.000427582)
(0.119652 -8.24724e-05 -0.000209758)
(0.105768 -0.000362412 -0.000410171)
(0.120745 0.00019117 -0.000343244)
(0.119201 -0.000166994 -0.000237714)
(0.118523 0.00030248 -0.000315225)
(0.106916 -8.55038e-05 -0.000729546)
(0.126536 -0.000179066 0.000142138)
(0.124855 -0.000334048 -0.000395565)
(0.126521 -0.000496491 -8.38761e-05)
(0.123638 0.000149833 -0.00015002)
(0.12536 3.60368e-06 -0.000341167)
(0.118983 -0.000375453 -0.000481569)
(0.119828 -0.000192653 -0.000612941)
(0.106646 -0.000421273 -0.000369151)
(0.120714 -0.000377774 -0.000125836)
(0.1181 -0.000106513 3.83904e-05)
(0.117604 4.41663e-05 0.000314314)
(0.107858 -0.00010051 0.000188255)
(0.127362 -0.000761215 0.000295407)
(0.125057 -0.000432573 0.000601989)
(0.124908 -0.000514371 0.000211559)
(0.127141 -0.000511556 9.03193e-06)
(0.120163 -7.80885e-05 -0.00137932)
(0.119843 -1.8854e-05 -0.000918733)
(0.123348 -0.000272385 -0.000888218)
(0.106864 -0.000337346 -0.00122016)
(0.123199 4.66681e-05 3.56113e-05)
(0.123639 -0.000366114 9.15906e-05)
(0.124354 -0.000187884 3.20147e-05)
(0.116761 -0.000565687 9.91568e-05)
(0.120653 -0.000877691 -0.000465784)
(0.12459 -0.000506324 -0.000662326)
(0.12438 -0.000248089 -0.000886028)
(0.125007 -4.95282e-05 -8.44609e-05)
(0.126953 -0.000113427 0.000142699)
(0.125893 0.000165151 0.000433041)
(0.12164 0.000123555 -0.00125376)
(0.118783 0.000396327 -0.000920467)
(0.120952 0.000831154 -0.000904366)
(0.105115 -0.000471133 -0.000918943)
(0.128401 -7.57351e-05 6.80217e-05)
(0.127984 -0.000306076 -3.75198e-05)
(0.126371 5.75075e-05 -8.32347e-05)
(0.128093 3.05192e-05 -3.89597e-05)
(0.126186 -0.000275151 -0.000468114)
(0.122965 -0.000229903 -0.000325659)
(0.122262 -0.000163147 -0.000788832)
(0.125791 -0.000369041 -0.00022264)
(0.121539 -0.001042 -0.000387533)
(0.121925 -0.000982155 -7.13883e-05)
(0.106683 -0.000287652 -0.000591151)
(0.120281 -0.000668155 0.000987117)
(0.118996 -0.000291642 0.0010626)
(0.121031 -0.000532614 0.000777224)
(0.105216 0.000155541 0.000210513)
(0.124124 -0.000343463 8.24842e-05)
(0.118303 -0.000293676 0.000105806)
(0.120982 -0.00028512 -0.000693946)
(0.128054 -0.000220619 -0.000207799)
(0.126158 -0.000194189 -0.00035534)
(0.118636 0.000345967 0.000164542)
(0.117567 0.000218702 0.00025224)
(0.119787 -5.22687e-05 -0.000270722)
(0.105487 -0.000138218 0.000146008)
(0.1213 -0.000106088 -0.000753154)
(0.121085 0.000508163 -0.000480018)
(0.106812 -0.000391 -0.00085666)
(0.118214 -0.000203624 0.00036062)
(0.121053 -0.000137561 0.000315225)
(0.118593 -0.000616169 0.000164193)
(0.10758 -0.000362226 0.000113372)
(0.118179 -0.00101411 -0.000473934)
(0.121728 -0.000599331 0.000258923)
(0.119398 -0.000913088 -0.000249898)
(0.104984 -0.000433197 -0.00039835)
(0.121488 0.000793393 -0.000631407)
(0.123254 0.000529833 -1.73853e-05)
(0.123547 0.000338265 -0.00044923)
(0.115713 0.000607362 -0.000382234)
(0.119488 0.000266402 0.000287738)
(0.118539 0.000258716 0.00042952)
(0.107565 -5.35279e-05 0.000351284)
(0.126779 -0.000439572 -6.20683e-05)
(0.126266 -0.000273704 0.000100376)
(0.127219 -0.000445112 -5.59824e-05)
(0.126861 -0.000368736 0.000114893)
(0.124737 -0.000372741 0.000231401)
(0.125002 -0.000285113 -8.00109e-06)
(0.127277 -0.000343616 0.00032144)
(0.127546 -0.000361844 0.000244962)
(0.116983 0.000158101 -0.00121893)
(0.117072 0.000133388 -0.0005221)
(0.119468 0.000249951 -0.000941141)
(0.108514 -0.000262103 -0.000616952)
(0.120465 -0.000526074 0.000566521)
(0.120191 -0.00155532 -0.000301775)
(0.120785 -0.000864081 0.000180506)
(0.111929 -0.000733641 -0.000138034)
(0.122014 0.000989943 2.27871e-05)
(0.124231 0.000654987 -0.000283332)
(0.124259 0.000614789 -0.000546613)
(0.117338 0.000240797 -0.000548431)
(0.120522 0.000148168 0.0001223)
(0.117605 -8.67163e-06 -4.58579e-05)
(0.116918 -0.000168671 -0.000258918)
(0.107348 0.000250304 -0.00011055)
(0.12518 -7.55101e-05 0.000502412)
(0.117572 3.93896e-05 -4.87522e-05)
(0.125544 -0.000571023 -0.000393276)
(0.126827 -0.000191111 -0.000335131)
(0.125644 -0.000212947 -0.000231585)
(0.125648 -0.000228909 -0.000329664)
(0.123386 0.000419139 0.000113688)
(0.122051 0.000284454 0.00023251)
(0.117201 0.000400865 0.000315116)
(0.126357 0.000317956 -0.000129939)
(0.125165 0.000408622 0.000356236)
(0.125859 0.000361774 0.000165461)
(0.125975 0.000472727 0.000303914)
(0.125534 -0.000183084 -6.90844e-05)
(0.125554 -0.000527417 -0.000168778)
(0.116651 -0.000288808 -0.00013797)
(0.123543 -0.000375394 -0.000103533)
(0.122061 -0.000498886 0.000153892)
(0.123483 -0.000518333 0.000261216)
(0.114546 -0.000267501 -0.000197506)
(0.123502 -4.24058e-05 2.56933e-05)
(0.123917 0.000214766 0.000141909)
(0.116156 0.000169992 0.000316371)
(0.119592 -0.000454485 0.000684132)
(0.123874 -0.000518276 0.000373545)
(0.124201 -0.000735636 0.0006685)
(0.121356 -7.18323e-05 0.000296301)
(0.123013 -0.000309704 -7.07231e-05)
(0.123302 -0.000373036 0.000129396)
(0.116149 -0.00022221 0.000210347)
(0.119913 0.000282618 -0.000207359)
(0.11699 0.000136381 -0.000573303)
(0.106142 0.000822131 -0.000555839)
(0.12564 -0.000381749 -3.23224e-05)
(0.127236 -0.000446131 -6.10014e-05)
(0.127898 0.000174704 -0.000169445)
(0.124083 0.000189468 0.000517407)
(0.12495 8.8046e-05 0.000690041)
(0.116866 -0.000242283 0.000902825)
(0.12592 0.000218381 4.81593e-05)
(0.126596 -0.000157171 6.47836e-05)
(0.126423 0.000174234 -0.000113961)
(0.126695 0.000189968 -8.72717e-05)
(0.120287 -0.000116715 -5.27947e-05)
(0.121127 -0.000158378 0.000244763)
(0.120388 -0.000391048 5.57732e-05)
(0.106069 9.70719e-05 0.000175024)
(0.117676 5.90184e-05 0.000440021)
(0.117456 -0.000168699 0.00047612)
(0.119034 -4.57221e-05 0.000685893)
(0.106266 -0.00022828 0.000415767)
(0.125491 -0.000259512 -0.000218273)
(0.126318 -6.01752e-05 0.000267937)
(0.127232 -0.000432365 1.32218e-05)
(0.126854 -5.80093e-05 0.000215765)
(0.125301 -0.000363876 -0.000354696)
(0.126576 0.00012891 -0.000495484)
(0.124836 0.000256422 -0.00033366)
(0.122178 -0.000270905 0.000692168)
(0.124517 -0.000320048 0.000117844)
(0.124163 -0.000161977 0.000185937)
(0.122778 -0.000214898 0.000817373)
(0.122441 -8.53702e-05 0.00018568)
(0.124488 -0.000422334 0.000107495)
(0.116608 -0.000130048 0.000329397)
(0.124975 -0.000447912 -0.000717284)
(0.125142 -0.000148826 -0.000662844)
(0.122625 -0.000238715 -0.000356011)
(0.116128 9.98595e-05 -0.000661684)
(0.124977 -0.000261657 -0.00086176)
(0.120808 -0.00032916 -0.000800442)
(0.124836 -2.88811e-05 -0.00073607)
(0.120517 0.000441397 0.000298659)
(0.124642 0.000603507 0.000453187)
(0.121682 0.000310457 0.000668726)
(0.125131 0.00041314 0.000228364)
(0.126501 0.000359841 -0.000556033)
(0.123262 0.000472165 -0.000536829)
(0.123981 4.97276e-05 -0.000791461)
(0.120733 -4.77767e-05 -5.50346e-05)
(0.106869 -0.000207555 -0.000366235)
(0.119775 -4.52323e-05 -7.75844e-05)
(0.123495 -0.000305446 -8.22434e-05)
(0.127151 0.000125704 0.000233601)
(0.1269 -0.000231764 0.000139928)
(0.126588 -5.97051e-06 0.000459998)
(0.126964 -0.000169246 0.000529877)
(0.125553 -0.000479553 0.000272931)
(0.125734 -0.000575229 0.000187772)
(0.125401 -0.000372923 0.000194155)
(0.125643 -0.00045685 6.2505e-05)
(0.126217 -0.000217079 0.00030869)
(0.125705 -0.000536432 0.000242965)
(0.124085 -0.000303534 0.000652689)
(0.12148 -0.0013921 -0.000241781)
(0.12443 -0.00151854 -0.000561645)
(0.12333 -0.00100901 -0.000720766)
(0.121462 -6.98061e-05 -0.000277442)
(0.121084 0.000390269 -0.000473388)
(0.116103 0.000135984 0.000351125)
(0.125324 -9.09418e-06 -0.000426431)
(0.117429 -0.0002798 -0.000317996)
(0.121536 0.000545378 -0.000574501)
(0.121777 0.000658195 -0.000825718)
(0.123175 0.000196543 -0.000634701)
(0.115551 -0.000144252 -0.000570822)
(0.126936 0.000257408 -0.000482641)
(0.125315 0.000375186 -0.000534516)
(0.125861 0.000197968 -0.000761024)
(0.106906 0.000130173 -0.000197491)
(0.123104 0.000132827 -0.000321393)
(0.116998 -0.000137649 -0.000203009)
(0.120777 0.00014597 1.97776e-06)
(0.124001 4.54243e-05 0.000335228)
(0.12033 0.000106425 -0.000162109)
(0.124286 0.000439062 9.0031e-05)
(0.124824 8.93147e-05 -0.000116058)
(0.124229 0.000100912 -0.000328114)
(0.122645 0.000119434 5.72679e-05)
(0.118313 0.000371097 -4.67244e-05)
(0.12718 -0.000197291 -0.000423404)
(0.125288 -0.000274723 -0.000595602)
(0.126668 -0.00036578 -0.000564279)
(0.125106 -0.000488917 -0.000368239)
(0.124729 -0.00069549 -0.000470111)
(0.126974 -0.000571871 -0.000262706)
(0.125992 -0.000578028 -0.000107303)
(0.126628 7.65916e-05 -0.000408837)
(0.1269 -0.000169834 -0.000258821)
(0.119148 -0.000743788 -0.000427349)
(0.12033 -0.000921671 -0.000434465)
(0.105836 2.37541e-05 -0.000408563)
(0.123074 -0.000987494 0.000286883)
(0.123261 -0.00025449 0.000151021)
(0.126953 -0.00040563 -0.000182401)
(0.124095 -0.000200301 -0.000275371)
(0.127229 -0.000390826 -0.000319318)
(0.126255 -0.000111273 0.000320694)
(0.12604 1.75747e-05 -5.1357e-05)
(0.125302 0.000280249 0.000307395)
(0.121454 -0.00036036 -0.000536525)
(0.125833 -0.00042495 -0.000646659)
(0.114981 3.05861e-05 6.96835e-05)
(0.117432 -0.000425534 0.000687126)
(0.116929 -0.000648614 0.000196745)
(0.103891 -0.000673739 0.000292567)
(0.125215 -0.000204885 -0.000223827)
(0.12351 -0.000406995 0.000363875)
(0.117522 -0.000345652 0.00121061)
(0.117894 -0.00125418 -0.000330974)
(0.107876 -0.000765474 -0.000176962)
(0.123129 0.000306187 -0.000108078)
(0.123478 0.000433015 0.000312171)
(0.103103 0.000121767 -0.000248658)
(0.124299 -0.000181871 0.000316614)
(0.127229 -0.000334078 0.000195098)
(0.118791 -0.000496016 0.000484927)
(0.121892 0.000348072 0.000454861)
(0.122814 -0.000500916 0.000216466)
(0.119442 0.00055595 -0.000200519)
(0.119628 0.000232331 -0.000206419)
(0.120152 0.000502069 -0.000604505)
(0.105818 6.58975e-06 -6.50509e-05)
(0.124258 4.14483e-05 9.65103e-05)
(0.123495 0.00014347 9.48056e-05)
(0.122978 8.59752e-05 0.000189419)
(0.12564 0.000892354 -0.000340636)
(0.126623 0.000969976 -0.000299755)
(0.123447 0.000210105 -0.000239235)
(0.12438 0.000184379 -0.00042423)
(0.126716 -0.00087146 -0.000118057)
(0.12601 -8.3916e-05 0.000303927)
(0.120538 -0.000589437 -4.04272e-06)
(0.12032 -0.000345345 -9.46971e-05)
(0.105052 -0.000391176 0.000188219)
(0.118958 -0.000990807 0.000408757)
(0.117394 -0.000656966 0.000847545)
(0.107313 -0.000626585 0.000320044)
(0.125861 -0.00053749 0.000441087)
(0.123925 -2.56614e-05 0.000684739)
(0.125088 -0.000386585 0.000754532)
(0.12352 -0.000175419 0.00012041)
(0.126469 2.15365e-05 -0.00062961)
(0.127241 -0.00010632 -0.000581581)
(0.124824 4.20548e-05 -0.000372711)
(0.119471 0.000518301 0.00014761)
(0.120489 2.27287e-05 8.1695e-05)
(0.104673 0.00026561 -0.0005825)
(0.12657 -0.000498456 0.000138021)
(0.126504 -0.000505369 0.000441753)
(0.126487 -0.000257475 0.000307131)
(0.122832 -0.000176959 -0.000174905)
(0.120296 -4.14878e-05 -0.000519742)
(0.10765 -0.000170225 -0.000348307)
(0.117784 -0.000287536 0.00027445)
(0.117807 -0.000580964 7.57193e-05)
(0.107829 -0.000355623 -3.83732e-05)
(0.122629 0.000286022 -0.000501017)
(0.122182 0.000275927 -0.000346961)
(0.123987 0.000353785 -0.000207479)
(0.116598 -0.000238183 -0.000389913)
(0.123614 -0.000428553 -0.000319876)
(0.125579 -0.000634952 0.000131295)
(0.123276 -0.000294325 0.000543509)
(0.125087 -0.000465707 0.000130068)
(0.121253 -0.00125406 8.85854e-05)
(0.123065 -0.00088613 -9.91565e-05)
(0.123423 -0.000643202 -0.00018161)
(0.115137 -0.0008384 -0.000343373)
(0.117965 -0.000395585 0.000632569)
(0.122435 5.72082e-06 0.000605873)