/*--------------------------------*- C++ -*----------------------------------*\
| =========                 |                                                 |
| \\      /  F ield         | OpenFOAM: The Open Source CFD Toolbox           |
|  \\    /   O peration     | Version:  2212                                  |
|   \\  /    A nd           | Website:  www.openfoam.com                      |
|    \\/     M anipulation  |                                                 |
\*---------------------------------------------------------------------------*/
FoamFile
{
    version     2.0;
    format      ascii;
    arch        "LSB;label=32;scalar=64";
    class       volScalarField;
    location    "0.012";
    object      epsilon;
}
// * * * * * * * * * * * * * * * * * * * * * * * * * * * * * * * * * * * * * //

dimensions      [0 2 -3 0 0 0 0];

internalField   nonuniform List<scalar> 
31639
(
5.42618
5.49315
5.56988
5.59628
5.35302
5.43767
5.34654
5.48557
5.40793
5.59804
5.60302
5.57683
5.52888
5.56804
5.45339
5.27577
5.43345
5.30389
5.18076
5.49563
5.13412
5.50122
5.5839
5.22542
5.23828
5.39827
5.50898
4.88322
5.33285
5.5747
5.58824
5.28824
5.58873
5.21717
5.1703
5.59447
5.01752
5.61328
5.6015
5.01521
5.17918
5.10713
5.58861
5.51821
5.56513
5.5927
5.44641
5.28271
5.41542
5.588
5.57643
4.95932
5.60798
5.10622
5.24848
5.42505
5.08459
5.51251
5.50128
5.07998
5.35626
5.46817
5.25739
5.46836
5.41669
5.57939
5.34182
5.51769
5.21531
5.58282
5.60807
5.31116
5.55517
5.50168
5.61437
5.17001
5.59882
5.31521
5.47494
5.51659
5.21032
5.02779
5.61947
5.54683
5.51795
5.59894
5.59696
5.60889
5.07831
5.63905
5.53382
5.31702
5.07627
5.47532
5.12671
5.43733
5.33102
5.5081
5.52214
5.11926
5.60013
5.61194
5.46234
5.05238
5.06705
5.59658
5.07345
5.00866
5.1897
5.12651
5.49035
5.13905
5.4811
5.26116
5.50818
5.07159
5.35766
5.3423
5.59889
5.48677
5.45247
5.57342
5.53522
5.38534
5.39302
5.57318
5.48877
5.18584
5.18
5.5698
5.57401
5.51585
5.53024
5.29383
5.454
5.52109
5.07264
5.07464
5.56369
5.50873
5.48646
5.56484
5.60206
5.00932
5.04444
5.58128
5.5242
5.1175
5.12502
5.60335
5.19953
5.52582
5.18614
5.44562
5.10416
5.57951
5.32688
5.22148
5.0759
5.22233
5.59704
5.14377
5.21062
5.08962
5.14589
5.41324
5.16029
5.58598
5.56602
5.00551
5.277
5.42724
5.15499
5.53047
5.60165
5.53952
5.53731
5.58819
5.535
5.50344
5.47859
5.24783
5.40031
5.02794
5.4211
5.60772
5.33773
5.58685
5.13917
5.0567
5.57899
5.48394
5.39141
5.48138
5.48231
5.24368
5.28005
5.56258
5.02957
5.28302
5.54464
5.62651
5.43031
5.44961
5.39174
5.50221
5.44157
5.46721
5.57295
5.01711
5.48375
5.31037
5.53747
5.50453
5.4279
5.57058
5.16344
5.29029
5.61651
5.54587
5.55308
5.36596
5.05412
5.5769
5.08569
5.41059
5.60536
5.24101
5.12669
5.44224
5.44707
5.59856
5.10946
5.09581
5.36909
5.4021
5.0319
5.50995
5.25648
5.02834
5.47221
5.37073
5.41262
5.23587
5.30638
5.42396
5.44646
5.39019
5.04952
5.49408
5.37396
5.18395
5.24948
5.58224
5.55636
5.29676
5.16398
5.55393
5.52046
5.33728
5.59992
5.58454
5.47893
5.59899
5.45711
5.37136
5.04706
5.21096
5.49247
5.4183
5.43641
5.22921
5.37609
5.52997
5.60019
5.51386
5.07572
5.2976
5.19353
5.5664
5.32106
5.60374
5.57894
5.27252
5.11399
5.26591
5.11052
5.07406
5.55282
5.15242
5.59378
5.42381
5.23826
5.19666
5.59254
5.28269
5.30318
5.48729
5.41365
5.31556
5.48839
5.09436
5.49221
5.46026
5.14296
5.29021
5.44672
4.92722
5.06857
5.57268
5.62258
5.57032
5.09899
5.20131
5.56217
5.19313
5.14486
5.58742
5.59599
5.43665
5.57247
5.60186
5.13648
5.63027
5.05508
5.11715
5.57518
5.53148
5.56066
5.5741
5.42249
5.15414
5.39158
5.45362
5.60878
5.62091
5.62521
5.46893
5.34561
5.53882
5.57209
5.37763
5.37052
5.2936
5.46364
5.26935
5.50882
5.37008
5.14866
5.48636
5.65412
5.27272
5.58281
5.50384
5.46887
5.10984
5.46597
5.46765
5.10261
5.60033
5.1284
5.38159
5.61552
5.04019
5.50787
5.47449
5.11297
5.36042
5.17326
5.26156
5.57982
5.44205
5.04302
5.42846
5.15404
5.42321
5.57326
5.57889
5.6556
5.15719
5.49525
5.09527
5.44595
5.04024
5.55823
5.56264
5.6087
5.59086
5.20329
5.52773
5.51276
5.55397
5.47354
5.19921
5.3309
5.37493
5.47194
5.43226
5.37064
5.45239
5.28451
5.15268
5.39196
5.52321
5.5436
5.03399
5.60702
5.56356
5.47902
5.48128
5.52701
5.34776
5.53737
5.14885
5.4163
5.55833
5.07308
5.39448
5.5512
5.18074
5.01839
5.11346
5.3356
5.14309
5.52304
5.49525
5.30055
5.59897
5.14632
5.55479
5.58884
5.48521
5.40645
5.30979
5.60528
5.50928
5.42637
5.56797
5.51107
5.08714
5.48788
5.59013
5.60266
5.45516
5.60657
5.3977
5.40219
5.52064
5.56735
5.59429
5.11427
5.50191
4.98161
5.33618
5.44836
5.12726
5.12349
5.28901
5.38569
5.48963
5.09416
5.4368
5.26077
5.46721
5.45418
4.71809
5.45644
5.07288
5.42718
5.57846
5.62955
5.53027
5.30779
5.05691
5.42538
5.47466
5.57357
5.09645
5.12354
5.46042
5.12466
5.17059
5.3834
5.08875
5.27739
5.14403
5.42456
5.09303
5.593
5.57019
5.59071
5.53977
5.33338
5.61217
5.60628
5.3847
5.48519
5.52521
5.58849
5.61119
5.27611
5.53319
5.59226
5.46446
5.14003
5.57711
5.50348
4.97517
5.09596
5.51695
5.64464
5.57474
5.40053
5.57859
5.60243
5.57412
5.5358
5.32114
5.34353
5.14159
5.46121
5.43212
5.59122
5.27006
5.22271
5.16111
5.36154
5.4561
4.95817
5.42848
5.23994
5.37074
5.28627
5.49732
5.33921
5.14975
5.53591
5.5275
5.16772
5.43376
5.63538
5.51798
5.4551
4.94913
5.20397
5.4842
5.50908
5.15389
5.07814
5.5194
5.23005
5.43895
5.26407
5.32397
5.59779
5.47645
5.07199
5.33695
5.51204
5.5739
5.09965
4.95348
5.57128
5.07375
5.54364
5.56826
5.11345
5.50285
5.56421
5.39059
5.14662
5.62624
5.4049
5.12869
5.60943
5.54626
5.41225
5.53418
4.97975
5.1663
5.47475
5.26817
5.34195
5.4356
5.58269
5.57055
5.49004
5.5512
5.56232
5.37068
5.23465
5.53326
5.56212
5.69096
5.23759
5.51581
5.37287
5.67392
5.1765
5.01876
5.58535
5.12177
5.59108
5.41784
5.04985
5.26971
5.57827
5.40105
5.43931
5.03815
5.46024
5.33189
5.06724
5.57485
5.56716
4.86603
5.15857
5.2285
5.32577
5.50801
5.50968
5.48522
5.49168
5.55856
5.50523
5.48048
5.178
5.56904
5.13279
5.50602
5.34643
5.33841
5.6578
5.48529
5.20739
5.02458
5.19183
5.33379
5.56439
5.12459
5.5768
5.38613
5.56566
5.12538
5.42395
5.55499
5.58426
5.57954
5.52398
5.5426
5.39832
5.62624
5.60627
5.61089
5.29306
5.4847
5.08915
5.61387
5.53254
5.46129
5.15253
5.43152
4.99006
5.54415
5.39351
5.59838
5.48277
5.41037
5.09216
5.57129
5.03905
5.03958
5.23942
5.27465
5.07411
5.49784
5.09562
5.45061
5.38607
4.98156
5.58333
5.15297
5.15645
5.41984
5.20522
5.45485
5.5494
5.57674
5.56492
5.21551
5.46128
5.27254
5.30319
4.98058
4.46199
5.58322
5.47859
5.4291
5.58885
5.08917
5.59975
5.59301
5.55552
5.54388
5.55449
5.53823
5.60126
5.58575
5.5057
5.59078
5.49026
5.15435
5.58447
5.28089
5.55305
5.3959
5.48215
5.19283
5.61109
5.47248
5.49461
5.38397
5.20244
5.56902
5.36023
5.23546
5.11629
5.54773
4.98309
5.52157
5.49031
5.41316
5.57567
5.58815
5.57066
5.10569
5.47703
5.40773
5.56469
5.14506
5.51609
5.42178
5.3902
5.4963
5.3285
5.39712
5.30555
5.2768
5.01936
5.55755
5.41301
5.54898
5.26452
5.48211
5.5196
5.45935
5.23811
5.50349
5.56334
5.48027
4.99656
5.0528
5.43724
5.00012
5.04938
5.55469
5.55246
5.53842
4.98063
5.44265
5.561
5.08626
4.98642
5.43241
5.15854
5.49456
5.2263
5.58408
5.2532
5.23045
5.56875
5.00872
5.44149
5.44847
5.56443
5.59939
5.57497
5.17964
5.54484
5.57794
5.29593
5.59224
5.55584
5.44018
5.59538
5.49386
5.64232
5.60198
5.61701
5.5231
5.32523
5.50489
5.47962
5.14081
5.3862
5.5533
5.56551
5.60088
5.46669
5.63471
5.5739
5.37688
5.48744
5.59178
5.48071
5.46023
5.11436
5.24199
5.63754
5.01337
5.37446
5.45969
5.2885
5.42203
5.54353
5.3936
5.56484
5.34668
5.441
5.32791
5.57334
5.50307
5.2946
5.14436
5.57571
5.1801
5.42476
5.29524
5.42384
5.34653
5.63218
5.16278
5.6214
5.17988
5.52143
5.33964
5.47278
5.46469
5.56231
5.13338
5.56283
5.58965
5.54362
5.54699
5.42632
5.02621
5.59988
5.59285
5.48979
5.55892
5.58755
5.48592
5.43409
5.52903
5.06996
5.31849
5.58941
5.08127
5.26643
5.67452
5.60582
5.20212
5.23765
5.59262
5.2037
5.43764
5.11761
5.5441
5.55395
4.99392
5.36438
5.56852
5.46725
5.55349
5.42453
5.57239
5.16921
5.16507
5.63128
5.60827
5.43985
5.10742
5.40632
5.62706
5.23065
5.60895
5.47112
5.51568
5.39785
5.50819
5.53833
5.49632
5.43121
5.19809
5.02378
5.36388
5.52415
5.09332
5.56378
5.04014
5.42889
5.25484
5.13124
5.46553
5.21154
5.45601
5.37088
5.49779
5.13349
5.15107
5.29833
5.09378
5.41103
5.57351
5.45528
5.61369
5.37009
5.49171
5.63642
5.30132
5.38961
5.47053
5.47547
5.40315
5.2282
5.51751
5.56325
5.57256
5.64313
5.17654
5.01272
5.46467
5.57529
5.16653
5.42592
5.46601
5.49018
5.64803
5.25641
5.43438
5.45895
5.08651
5.59008
5.54933
5.11668
5.19978
5.47509
5.27343
5.59859
5.61537
5.416
5.17719
5.60721
5.04887
5.494
5.55792
5.30005
5.61719
5.07655
5.47922
5.43984
5.46935
5.11675
5.03898
5.52052
5.60984
5.25306
5.54795
5.56116
5.46251
5.14817
5.23688
5.57475
5.3226
5.4933
5.59698
5.57969
5.62889
5.55803
5.37242
5.38896
5.545
5.18389
5.52681
5.53965
5.52425
5.55936
5.6417
5.34255
5.54999
5.47719
5.04094
5.60095
5.2809
5.60636
5.2654
5.57005
5.17624
5.51292
5.65848
5.4716
5.52163
5.13865
5.56788
5.60198
5.50095
5.05244
5.72636
5.31766
5.49853
5.53866
5.58315
5.55389
5.46928
5.34435
5.62197
5.17453
5.23756
5.17646
5.21615
5.54732
5.08683
5.59691
5.58777
5.58019
5.4536
5.28955
5.51291
5.61155
5.51643
5.43645
5.60941
5.57626
5.38186
5.5679
5.48101
5.47255
5.44896
5.27898
5.5781
5.64031
5.56581
5.57431
5.53499
5.24257
5.66675
5.41278
5.42736
5.46444
5.54425
5.63624
5.5142
5.54814
5.20963
5.48161
5.40993
5.19686
5.1724
5.47978
5.35908
5.60912
5.2789
5.00302
5.38682
5.58478
5.28925
5.27125
5.50017
5.60267
5.57843
5.41351
5.29305
5.49593
5.49575
5.29859
5.4007
5.49462
5.12308
5.33896
5.29494
5.44454
5.60899
5.49988
5.58951
5.46288
5.50948
5.46457
5.03183
5.09498
5.13606
5.5826
5.52409
5.63255
5.7268
5.49236
5.07807
5.55535
5.32374
5.42985
5.42607
5.54007
5.05346
5.60637
5.12661
5.49187
5.37425
5.38599
5.64094
5.52009
5.57435
5.09199
5.50007
5.42113
5.51046
5.15494
5.28318
5.51898
5.52501
5.38761
5.51266
5.62047
5.1038
5.33927
5.28878
5.25024
5.49111
5.60376
5.61772
5.55819
5.59212
5.17599
5.18602
5.12973
5.66962
5.19695
5.52023
5.33946
5.15116
5.291
5.58933
5.62358
5.22309
5.31303
5.44514
5.50482
5.60271
5.38888
5.09402
5.50679
5.59681
5.56531
5.61365
5.58432
5.69787
5.58804
5.47662
5.23725
5.1248
5.51585
5.16029
5.60591
5.21369
5.54829
5.28405
5.54643
5.22164
5.46274
5.58265
5.57953
5.31041
5.17844
5.61485
5.32598
5.58496
5.36861
5.69683
5.60591
5.52479
5.15365
5.15247
5.45559
5.40053
5.29711
5.65639
5.19896
5.54898
5.46056
5.30746
5.52764
5.60802
5.59526
5.59358
5.65605
5.55036
5.36366
5.09139
5.19861
5.56028
5.21083
5.41783
5.47212
5.19399
5.47913
5.45527
5.46488
5.54109
5.5996
5.21704
5.47288
5.51804
5.156
5.23085
5.441
5.33534
5.46446
5.16638
5.12643
5.48796
5.27575
5.5938
5.61486
5.53562
5.43615
5.44303
5.47497
5.40407
5.59806
5.18236
5.48861
5.29464
5.58205
5.4928
5.3644
5.44043
5.59414
5.18925
5.51268
5.59361
5.46802
4.89205
5.27837
5.22842
5.39732
5.09428
5.64107
5.63134
5.57556
5.5522
5.21368
5.09246
5.58858
5.65861
5.58343
5.51565
5.42361
5.56091
5.6584
5.53821
5.10813
5.40293
5.5133
5.54035
5.32199
5.50112
5.02762
5.5744
5.57578
5.37448
5.52588
5.43997
5.50501
5.59239
5.58224
5.20738
5.48179
5.58074
5.46793
5.36374
5.45172
5.112
5.07045
5.59628
5.59566
5.5764
5.57771
5.48317
5.51262
5.35943
5.51821
5.5186
5.59354
5.28256
5.34151
5.39695
5.51326
5.60484
5.06249
5.36581
5.00981
5.59196
5.04077
5.14653
5.47429
4.93676
5.4011
5.54496
5.58036
5.56632
5.21187
5.39056
5.64095
5.32875
5.26168
5.39944
5.19427
5.5772
5.55819
5.37249
5.19182
5.5569
5.66345
5.55228
5.14402
5.21167
5.48148
5.58582
5.60969
5.12518
5.14454
5.49983
5.42285
5.61365
5.46802
5.04459
5.42923
5.58054
5.12252
5.04419
5.59131
5.18327
5.17048
5.60622
5.5568
5.53142
5.66345
5.44792
5.35762
5.61817
5.24901
5.52799
5.2298
5.44883
5.4968
5.44459
5.11171
5.54346
5.54363
5.27168
5.47636
5.29297
5.20778
5.18533
5.37645
5.48986
5.61077
5.25238
5.56012
5.09855
5.54657
5.59549
5.15652
5.56788
5.52096
4.91283
5.10008
5.52783
5.48431
5.57211
5.25234
5.16104
5.54646
5.59739
5.57886
5.3993
5.56538
5.07173
5.61508
5.50156
5.13567
5.11142
4.93663
5.05241
5.5759
5.30554
5.55135
5.51778
5.11696
5.14367
5.01283
5.0066
5.66926
5.63836
5.22273
5.60729
5.4864
5.21122
5.44111
5.37505
5.23079
5.29057
5.54983
5.28101
5.10945
5.55492
5.67188
5.22533
5.57976
5.42187
5.23099
5.14157
5.38139
5.13905
5.15401
5.53171
5.52088
5.32154
5.55769
5.55127
5.47171
5.6213
4.58047
5.38282
5.09415
5.50354
5.5819
5.46373
5.24651
5.47486
5.11141
5.54879
5.47171
5.21887
5.1956
4.9894
5.00097
5.24983
5.08191
5.34127
5.09713
5.3177
5.50654
5.45092
5.33874
5.54401
5.44471
5.49759
5.54222
5.07306
5.30931
5.58204
5.58202
5.45087
5.6399
5.17613
5.54777
5.47391
5.10261
5.48363
5.60596
5.42425
5.55976
5.57999
5.42706
4.97252
4.96398
5.45656
5.60842
5.40371
5.54065
5.28774
5.31209
5.13272
5.07555
5.04519
5.09571
5.44683
5.53689
5.61264
5.3863
5.30573
5.61014
5.11913
5.51714
5.56949
5.58939
5.38583
5.42943
5.59314
5.6648
5.56777
4.96655
5.38283
5.59102
5.44792
5.52452
5.66813
5.52539
5.62118
5.53258
5.20907
5.49403
5.60431
5.48936
5.52168
5.10362
5.56185
5.59057
5.63119
5.57481
5.05732
5.00864
5.46102
5.4721
5.40981
5.51277
5.54868
5.54307
5.53408
5.24139
5.43374
5.50061
5.58344
5.20042
5.20417
5.38535
5.56484
5.15501
5.60769
5.129
5.27094
5.50978
5.5767
5.29445
5.56955
5.55319
5.54174
5.4176
5.50367
5.52255
5.2918
4.9916
5.58968
5.03702
5.14848
5.00052
5.03261
5.07688
5.27116
5.52676
5.08441
5.2589
4.91844
5.20485
5.45367
5.60464
5.02518
5.16893
5.55787
5.04308
5.2664
5.5256
5.42364
5.49987
5.19345
5.12392
5.24578
5.57507
5.28923
5.15479
5.37569
5.27292
5.53946
5.46666
5.21028
5.59584
5.08858
5.17679
5.37778
5.57885
5.26677
5.34767
5.39078
5.51277
5.01707
5.23364
5.46044
5.59206
5.52884
5.13134
5.02284
5.31757
5.58686
5.46739
5.489
5.28765
5.3866
5.47595
5.08393
5.60074
5.2326
5.087
5.04276
5.57162
5.46
5.5829
5.35413
5.5844
5.0711
5.36605
5.01456
5.05728
5.55716
5.19307
5.34787
5.51542
5.45812
5.12035
5.59047
5.56223
5.58222
5.42679
4.99655
5.52946
4.94986
5.60762
5.14659
5.59201
4.96688
5.54392
5.49543
5.29276
5.3073
4.96473
5.22466
5.48105
5.53178
5.43613
5.59971
5.59608
5.11227
5.59745
5.12387
5.5442
5.55217
5.5903
5.50179
5.48318
5.57669
5.30442
5.16605
5.1475
5.53885
5.6285
5.10239
5.24682
5.53386
5.42666
5.49906
5.69086
5.56383
5.41175
5.5235
5.50724
5.58272
5.39061
5.40067
5.59825
5.51162
5.06486
5.44163
5.22935
5.61604
5.52763
5.56556
5.16009
5.12773
5.50339
5.56966
5.55322
5.58182
5.6227
5.35772
5.41091
5.15031
5.40665
5.52912
5.55938
5.60371
5.60563
5.34675
5.58156
5.23023
5.55102
5.22458
5.46202
5.24144
5.51757
5.39414
5.57967
5.12456
5.60586
5.59206
5.33701
5.12538
5.69922
5.41836
5.55226
5.49994
5.51861
5.47483
5.07991
5.58458
5.35801
5.54067
5.13196
5.17256
5.25249
5.06042
5.19857
5.59473
5.50089
5.01552
5.49525
5.10637
5.36753
5.52981
4.96787
5.06531
5.22085
5.33085
5.49299
5.23481
5.51814
5.31787
5.03469
5.22427
5.56618
5.56852
5.6157
5.54614
5.54172
5.13509
5.04934
5.56763
5.29276
5.40141
5.57234
5.6667
5.5163
5.49358
5.03061
5.55162
5.62408
5.26478
5.5459
5.54567
5.53001
5.40846
5.47796
5.28771
5.03968
5.50705
5.1643
5.09609
5.36665
5.51635
5.55264
5.55924
5.53684
5.54124
5.02871
5.25041
5.64316
5.61986
5.1179
5.39842
5.1377
5.37428
5.57452
5.29204
5.41413
5.59879
5.39459
5.05533
5.55551
5.08052
5.54106
5.51657
5.52114
5.58355
5.54289
5.56723
5.09857
5.56958
5.58588
5.19636
5.56743
5.47057
5.33126
5.59924
5.34388
5.558
5.62216
5.57685
5.52964
5.60047
5.50466
5.42691
5.25473
5.36818
5.13088
4.99024
5.35024
5.56019
5.48857
5.60892
5.44108
5.57406
5.01688
5.603
5.6165
5.56872
5.53867
5.20244
5.06038
5.49031
5.08628
5.53802
5.52313
5.01555
5.27317
5.59122
5.54159
4.9687
5.18267
5.0146
5.62345
5.08639
5.57311
5.33153
5.15998
5.53955
5.55417
5.62433
5.54929
5.07226
5.4043
5.62757
5.17259
5.59117
5.49432
5.5657
5.05296
5.50441
5.30163
5.46284
5.32855
5.44402
5.25606
5.30511
5.35334
5.27101
5.52383
5.46326
5.59426
5.25569
5.47859
5.53562
5.58408
5.56079
5.21321
5.52704
5.1063
5.40732
5.59962
5.61779
5.40336
5.33334
5.51071
5.23554
5.42988
5.35425
5.12752
5.08065
5.54436
5.61284
5.33261
5.28567
5.61998
5.08983
5.54817
5.14221
5.40822
5.60331
5.5309
5.08221
5.60933
5.10774
5.56748
5.51599
5.07154
5.59102
5.17679
5.2488
5.33294
5.002
5.19674
5.38589
4.9818
5.53426
5.62369
5.0361
5.20685
5.56616
5.46334
5.53227
5.65543
5.55607
5.46286
5.15049
5.09779
4.97037
4.90258
5.58634
5.5375
5.3909
5.49748
5.0801
5.08381
5.44376
5.52954
4.93333
5.48786
5.48058
5.37217
5.52118
5.38658
5.59224
5.23587
5.30373
5.64357
4.95452
5.44567
5.57528
5.60363
5.39231
5.58636
5.54082
5.08122
5.63528
5.65099
5.46524
5.52418
5.38131
5.46974
5.55745
5.49978
5.52344
5.50015
5.40585
5.0553
5.29593
5.62093
5.51389
5.61639
5.54718
5.42678
5.61817
5.182
5.59765
5.09152
5.60667
5.43348
5.25495
5.62802
5.24617
5.32087
5.62355
5.28524
5.62823
5.55695
5.50223
5.1622
5.51668
5.47031
5.26655
5.58445
5.42145
5.45929
5.6329
5.11985
5.55451
5.52583
5.56115
5.25896
5.51821
5.12465
5.22539
5.70028
5.12446
5.52225
5.59935
5.13857
5.34524
5.61151
5.19471
5.19292
5.16368
5.30725
5.23992
5.62541
5.27774
5.5832
5.48194
5.61772
5.08533
5.22321
5.57215
5.48226
5.13211
5.1845
5.30243
4.79738
5.04501
5.47147
5.454
5.57935
5.41122
5.59362
5.56773
5.55562
5.55903
5.505
5.18824
5.37873
5.53638
5.44951
5.38018
5.57505
5.47711
5.04191
5.06274
5.30572
4.96222
5.44411
5.58609
5.36023
5.48264
5.58516
5.56371
5.62952
5.31831
5.1819
5.40302
5.32342
5.60027
5.35018
5.50309
5.58432
5.28094
5.2816
5.54976
5.62168
5.58345
5.71492
5.54743
5.3858
5.42947
5.23846
5.33003
5.60629
5.23733
5.57316
5.40084
5.57063
5.10992
5.57608
5.49362
5.59696
5.46388
5.3981
5.49029
5.55647
5.05261
5.23226
5.45663
5.27918
5.32807
5.53577
5.50602
5.60379
5.431
5.10332
5.21824
5.11579
5.36097
5.51604
5.17734
5.67416
5.49141
5.31067
5.47062
5.13542
5.16899
5.59426
5.14792
4.99507
5.02591
5.06516
5.08617
5.1697
5.60416
5.56718
5.27832
5.55976
5.58645
5.47617
5.47822
5.02562
5.60076
4.35991
5.58078
5.09704
5.04661
5.52695
5.05691
5.3389
5.43572
5.59498
5.24902
5.46739
5.26636
5.47314
5.37069
5.40613
5.3291
5.51281
5.47277
5.13113
5.53756
5.42908
5.36367
5.09313
5.17178
5.30887
5.08648
5.06387
5.49729
5.3116
5.15513
5.27895
5.55819
5.56473
5.55635
4.48668
5.121
5.61323
5.13325
5.51821
5.03372
5.59894
5.51756
5.63388
5.10029
5.38455
5.60954
5.5973
5.42579
5.61209
5.46975
5.40975
5.45473
5.06034
5.40146
5.24962
5.49296
5.49442
5.21951
5.4457
5.55554
5.18017
5.11809
5.11168
5.5047
5.51591
5.08345
5.50391
5.48759
5.462
5.16123
5.5351
5.30868
5.61146
4.82494
5.34382
5.47885
5.06981
5.58349
5.22716
5.19375
5.40792
5.61021
4.98399
5.52599
5.55269
5.23613
5.04517
5.59974
5.57843
5.05464
5.49084
5.00498
5.24986
5.59838
5.32824
5.49203
5.56854
5.61025
5.38502
5.23234
5.44858
5.37623
5.33453
5.23468
5.51243
5.07901
5.39313
5.33772
5.34527
5.53107
5.43021
5.55089
5.48852
5.49107
5.56979
5.43735
5.31356
5.20415
5.50328
5.38962
5.36474
5.50081
5.57415
5.43742
5.55338
5.35172
5.53794
5.19417
5.13684
5.46267
5.52535
5.16193
5.42916
5.42335
4.95664
5.00376
5.57265
4.95795
5.4479
5.55197
5.41326
5.13627
5.44753
5.63956
5.09435
5.14863
5.20868
5.56194
5.4959
5.49416
5.63568
5.07227
5.56576
5.47422
5.59707
5.61813
4.37188
5.47575
5.49733
5.54557
5.39779
5.41259
4.93254
5.5656
5.57306
5.1665
5.06174
5.29092
5.54371
5.48857
5.07719
5.35454
5.53989
5.58136
5.44629
5.36433
5.03285
5.09552
5.10619
5.51367
5.44319
5.35198
5.57816
5.57259
4.90617
5.57166
5.57291
5.5576
5.24157
5.57297
5.33476
5.10291
5.18481
5.39327
5.37442
5.24924
5.39893
5.33335
5.53888
5.14547
5.0505
5.4193
5.56918
5.51435
5.30129
5.3064
5.5533
5.61263
5.43559
5.21802
5.52877
5.55599
5.46014
5.59567
5.56139
5.4733
5.03618
5.26353
5.08292
5.46963
5.55948
5.26332
5.1036
5.61212
5.15233
5.30772
5.19465
5.3276
5.05954
5.50456
5.48872
5.46684
5.34185
5.20086
5.6016
5.14353
5.44981
5.33534
5.47109
5.0892
5.53044
5.5173
5.02808
5.22197
5.36493
5.33431
5.43252
4.74489
5.55341
5.25995
5.46684
5.20353
5.26439
5.26008
4.79988
5.55116
5.26196
4.07561
5.07223
5.40986
5.56556
5.51103
5.18962
4.89366
5.49286
5.07517
5.55156
5.59306
5.37065
5.19368
5.53806
5.03452
5.09912
5.02859
5.52112
5.47204
5.26254
5.55857
5.42866
5.52346
5.19921
4.93394
5.59239
5.48545
5.61008
5.56734
5.11213
5.48223
5.4069
5.31499
5.48698
5.23273
5.31269
5.73416
5.52183
5.28343
5.11807
5.42408
5.45696
5.46254
5.29804
5.03683
5.14656
5.39726
5.46225
5.34772
5.57295
5.20778
5.50602
5.28623
5.40937
4.86107
5.57885
5.44372
5.36061
5.61572
5.46707
5.20188
5.22356
4.86246
5.54491
5.26824
5.47083
5.43328
5.52332
5.47284
5.60344
5.3177
4.11419
5.14523
5.59193
4.30199
5.34598
5.58465
5.48906
5.57445
5.28275
5.18835
5.21901
5.62236
4.76492
5.60348
5.1567
4.95082
5.56181
5.17088
5.57875
4.11946
5.04454
5.43268
5.5853
5.59593
5.37434
5.54129
5.48345
5.47884
5.50856
5.4591
5.43572
5.44253
4.87532
5.53058
5.44141
5.40183
5.59238
5.57557
5.54735
5.10848
5.59373
5.54175
5.20896
5.17698
5.04073
5.54417
5.53736
5.56352
5.60249
5.53555
5.50723
4.99904
5.47982
5.33135
5.33719
5.4201
5.09442
4.94657
5.40613
5.67577
5.50345
5.44713
5.13157
5.38031
5.243
5.11707
5.5698
5.45707
4.36703
4.75737
5.05313
5.11662
5.55483
5.48159
5.49083
5.24597
5.05176
5.51812
5.59239
4.98565
5.60579
5.11413
5.59337
5.40113
5.56063
5.54656
5.4969
5.55695
5.46053
5.24768
5.08441
5.26604
5.53356
5.34325
5.16979
5.36046
5.52341
5.07213
5.33652
5.18362
5.56625
5.41885
5.47343
4.50753
5.59888
5.5888
5.29088
5.5075
5.38033
5.44774
5.59481
5.3766
5.50887
5.60275
5.49142
5.12344
5.10738
5.65004
5.27218
5.10477
5.09268
5.53001
5.6081
5.52981
5.58723
5.64275
5.57586
5.52559
5.43928
5.30946
5.50183
4.91498
5.33083
5.53838
5.28468
5.17988
5.18927
5.50819
5.62806
5.03462
5.43245
5.52042
5.03399
5.59177
4.9179
5.07252
5.12878
5.63395
5.17584
5.06475
5.1965
5.22028
5.50878
4.83876
4.9243
5.33268
5.31695
4.9712
5.4718
5.1498
5.20008
5.49737
5.21572
5.05428
5.53406
5.33898
5.22847
5.11916
5.46576
5.22908
4.94506
5.58235
5.49061
5.52848
5.32025
5.15323
5.06122
5.46396
5.3286
5.57989
5.36321
5.54923
5.14267
5.46852
5.50136
5.55488
4.67749
4.89941
5.12364
5.57298
5.12087
5.46698
4.48016
5.2445
5.52568
5.276
5.4867
5.18669
5.44832
5.45023
5.50414
5.1728
5.4578
5.68059
5.0902
5.46082
5.24967
5.5164
5.19672
5.10562
5.50707
5.08046
4.78601
4.96214
5.09444
5.1885
4.91566
5.5591
5.27153
5.03959
5.37925
5.57548
5.44677
4.94465
5.60456
5.52407
5.12588
5.29744
5.44891
5.15419
5.45787
5.47637
5.44204
5.04335
5.01594
5.46226
5.14107
4.83055
4.96389
5.09843
5.43137
5.12877
5.54708
5.44217
5.46938
5.22101
5.56406
5.2834
5.35329
5.20558
4.09563
5.62925
4.92416
5.35512
5.51072
5.5702
4.82586
5.53471
5.61921
5.1037
5.34073
5.30919
5.17856
4.80872
5.38626
5.22042
5.42633
5.60155
5.37744
5.59077
5.3391
5.33364
5.05247
4.72635
4.90022
5.53575
4.9775
5.4647
5.22806
4.95701
5.19937
5.55622
4.93916
4.23901
5.20852
5.5347
5.55012
5.51286
4.20843
5.23591
5.58326
5.53313
5.60196
5.44261
4.94733
5.56674
4.99539
5.5131
5.19971
5.26591
5.37811
5.54244
5.0996
5.27242
4.88372
5.32572
5.54963
5.51369
5.43773
5.03525
5.046
5.36407
5.11873
5.39505
4.98311
5.08764
5.51407
5.56417
5.02228
5.55453
5.15509
5.64366
4.90797
5.57163
5.40959
5.51725
5.36063
5.15114
5.12687
5.69703
5.29368
5.45944
5.42142
5.06584
5.43682
5.57704
5.04852
5.16434
5.1974
5.04867
5.25054
5.51614
4.69973
5.59547
4.80784
5.37608
5.4711
4.98611
5.40283
5.43345
5.07638
5.33687
5.2889
5.32772
4.96857
5.52318
4.96668
5.40608
4.30542
5.48351
4.83429
5.00606
5.361
5.06303
5.17551
5.59765
5.4831
5.37743
5.56022
4.91339
5.48911
5.13375
5.45954
5.318
5.35721
5.48777
5.50047
4.99384
5.01884
5.56737
5.43614
5.474
4.87296
5.59742
5.67463
5.56482
5.48353
5.25327
5.12411
5.40183
4.98321
5.16733
5.52957
5.36659
5.20676
5.41986
5.42716
5.45443
4.97008
5.14773
5.11334
4.82136
5.6254
5.43795
5.18267
5.56673
5.45629
5.18853
5.5726
4.89103
5.14396
4.88644
5.01344
5.59954
5.51186
4.61802
5.58869
4.93423
5.46505
5.46565
5.44897
5.56561
5.3807
5.49084
5.23559
5.39368
5.37545
5.54618
4.94452
4.99264
5.30937
4.819
5.19649
4.91285
5.09452
5.54257
5.27475
4.61382
4.67101
5.0148
5.0753
5.21513
5.23593
5.36247
5.51485
4.79613
5.3537
5.18397
5.25221
4.92948
5.31009
4.91266
4.5229
5.05868
5.07043
5.03457
5.17757
5.20264
5.29989
5.01243
5.56379
5.02363
5.43206
5.18066
5.36541
5.21399
5.04914
5.3819
5.43692
4.81554
5.24831
5.32697
5.61286
5.49011
5.35876
5.55968
5.51743
5.47027
5.51055
5.10499
5.55287
5.64677
5.43338
5.5302
5.51485
5.47204
4.49132
5.12665
5.47593
5.33337
5.17256
5.57809
4.81948
4.84799
4.62225
5.51406
5.12602
5.35247
5.56877
4.71192
5.56592
4.90841
5.58951
5.55784
5.63859
5.63564
4.62083
5.4735
5.61701
5.31199
4.67893
5.23584
4.93796
4.81609
5.41266
4.87714
5.37148
5.51211
5.11864
5.30462
5.04216
5.03539
5.57693
5.47737
5.19969
5.29176
5.25816
5.44666
5.53028
5.60154
5.06212
4.21529
5.12413
4.95284
5.10536
5.05971
5.60229
5.55121
5.04785
5.4793
4.77221
4.59913
5.35243
4.78295
5.50439
5.43725
4.97365
4.92401
5.36813
5.59737
5.41204
5.53221
5.30465
4.52585
4.58272
5.154
5.00291
5.53849
4.86881
5.39711
5.34732
5.01295
5.09006
4.98938
5.56254
4.65259
5.25116
5.20686
5.26722
5.42479
5.62382
5.11814
5.05255
5.29464
5.15567
5.0562
4.85979
4.89009
5.03064
4.85208
4.80854
5.23154
5.1717
4.61476
5.41498
4.72679
5.30077
4.81503
4.80983
4.89078
5.2456
5.34673
5.19255
5.3981
4.87402
4.84226
5.18907
5.56368
4.97948
5.54927
5.4727
5.35952
5.04616
5.19181
5.47882
4.95093
5.21527
5.24914
5.44934
5.21149
5.14046
4.78717
5.56578
4.47386
4.4408
4.3781
5.42616
5.51742
5.14695
5.05976
5.46331
4.66209
5.5395
5.25205
5.06386
5.11062
5.3122
5.62553
4.69389
5.42769
5.52287
4.55531
4.66702
5.09778
5.12179
4.66854
5.24664
5.02768
5.30779
5.11881
5.50027
5.1268
5.00455
5.27754
5.39086
5.25731
5.35246
5.10887
5.2728
4.70989
5.22493
5.11641
5.29879
4.40949
5.04975
4.36683
4.63283
5.49148
5.32991
4.79067
4.89429
5.33939
4.84039
4.97627
5.51048
5.03777
4.79242
5.09875
4.97192
4.92332
5.01412
5.37935
4.77829
4.42601
5.28504
4.79835
4.95
5.57842
4.52381
5.41911
5.50635
5.48739
4.60818
5.02686
4.66588
5.30882
5.60157
5.29766
5.18459
4.2241
5.05365
5.14567
5.04211
5.35451
5.19931
4.9936
4.8702
4.6218
4.91398
4.74197
4.76841
4.89681
5.11335
5.27869
4.49255
5.21066
4.89436
4.91183
5.40211
5.15854
4.66704
5.34166
5.36517
5.53729
4.18178
5.53318
5.26028
5.382
4.86332
4.27406
5.37473
5.1932
4.57374
5.31073
4.82122
5.26325
5.12152
4.81169
4.74737
5.36567
4.96933
4.93914
5.40258
5.09891
5.01934
5.12492
4.62248
4.84533
4.92739
5.32678
5.28751
5.53031
4.99581
5.56429
4.43643
4.81142
5.32602
4.98418
4.11715
5.24443
5.15547
4.55218
4.35304
4.91961
5.32475
5.42612
5.24692
4.52555
5.50363
5.06769
5.52286
4.67077
4.97396
4.84314
5.0312
4.96911
5.02277
4.72973
5.58411
5.36379
5.01377
5.19057
4.52441
4.94558
5.19797
5.46527
4.73583
4.93288
5.00189
4.72948
5.423
5.25408
4.54532
5.49404
5.5888
4.93695
5.42632
5.1534
4.37889
5.511
4.72378
5.50649
5.51777
5.29088
5.52654
5.25718
5.11592
5.45165
5.15484
4.87896
4.86044
5.51697
5.47825
5.05111
5.3445
4.39331
5.06373
5.51418
5.20513
4.63281
4.69893
5.57339
5.10596
4.52901
5.35209
4.43108
4.37218
5.30003
5.07951
5.29745
5.06197
4.81997
5.4413
5.05528
4.84603
5.12372
4.15465
5.02665
5.09526
4.83241
4.64539
5.33934
4.97185
5.33275
4.726
4.23073
4.76753
4.99315
4.79233
5.44726
5.37186
5.29303
4.46529
5.00038
4.79856
4.56816
4.92576
4.91683
4.94998
4.87008
4.75223
4.40931
4.68497
5.3745
5.60932
5.03934
5.37732
4.67572
4.92228
4.71039
4.88533
4.91243
5.27168
5.13662
5.42824
5.46884
5.27292
5.31776
4.76532
5.4294
4.65538
4.85954
5.50634
4.06074
4.9303
5.53804
4.68421
4.95967
5.22892
5.20273
5.00925
4.8448
5.25401
5.3774
4.9679
5.40543
5.23277
4.98614
4.61556
5.45738
4.91483
4.99629
4.98256
4.82068
4.92178
5.03965
5.07604
4.97509
5.0805
4.38673
5.1937
5.34381
4.35297
4.9696
5.52011
4.86271
5.00918
5.2242
5.1616
5.50998
4.28012
5.52621
5.49177
4.79146
4.71176
4.40491
5.06023
4.64693
4.36157
5.52669
4.92103
4.97179
4.42595
4.87474
4.68709
4.95375
5.33011
5.02146
4.90519
5.05821
5.01894
4.85529
4.71967
4.84326
5.02837
4.63634
4.87818
4.54685
5.08611
4.64881
5.05583
4.70414
5.27993
4.85186
5.21995
4.70964
4.87532
4.64965
4.63657
5.38824
5.47275
4.66978
5.45133
4.55523
5.35878
5.00035
5.60149
4.94688
5.19501
4.98786
5.1414
4.889
4.65425
4.77127
4.93629
5.00489
5.03534
4.84913
4.69208
4.74908
4.90873
4.93224
5.14268
4.34488
5.5493
4.95379
4.91383
4.62457
4.7238
4.76381
4.09766
5.1271
5.5448
5.13255
5.60499
5.5509
4.92795
5.38026
4.91874
4.17169
5.42685
5.44525
5.37616
4.86542
4.6383
4.36292
4.8623
5.37988
5.02118
4.66871
5.07515
5.10789
4.82867
4.91453
4.77541
5.32987
5.44277
4.74847
4.52524
5.00541
4.53277
5.48822
5.37835
5.5349
4.82227
4.58844
5.37394
4.96395
4.76015
4.99892
4.53125
4.69697
5.16099
4.79845
4.72904
5.4829
5.33719
4.46601
4.93834
5.11332
4.98708
4.88054
5.41244
4.90641
5.28582
4.80945
5.28846
4.58339
4.44305
4.4624
5.14578
5.08166
5.0732
4.81529
4.93261
4.92213
5.14806
4.90377
5.44251
4.63493
5.50349
4.97223
5.06112
4.46644
4.80396
5.53441
5.01221
4.54853
4.75776
5.02352
5.36737
5.22108
5.04746
5.32425
5.28166
4.89309
4.43945
4.06383
4.96794
4.72056
4.90924
4.71847
5.44792
4.5737
4.78185
4.88126
5.50618
5.32097
4.82976
4.763
5.22026
5.12978
5.08756
5.06126
4.83672
4.33546
5.01965
4.88451
5.04804
4.53669
5.09377
4.45938
4.76423
5.215
5.22307
4.68298
4.96398
5.26287
4.92394
5.19472
4.88441
4.66772
4.70104
5.62696
5.55426
4.87431
4.95653
5.52834
4.34821
5.29411
4.66578
4.50837
5.33256
5.2312
5.70659
5.24133
4.72745
5.31045
5.10835
4.69007
5.48898
4.82966
4.6055
4.84469
4.94108
4.59923
4.71049
4.59456
5.0174
4.47052
4.81495
5.23787
5.19116
5.29948
4.93893
4.60371
5.25554
5.09208
4.95366
4.80593
4.96014
5.23092
5.05474
4.95277
4.74002
5.34401
5.07984
5.09083
4.89868
4.19337
4.72676
5.0055
4.64784
5.57209
4.62188
4.65064
5.03018
4.65553
4.55981
4.79351
4.3394
4.94891
4.8525
5.31991
4.90005
4.56747
5.57324
5.14475
4.6676
4.39975
4.77263
4.92807
4.31071
5.28795
4.40054
4.29803
4.19699
4.57224
4.58488
4.94902
4.13272
5.10516
4.59145
5.47113
5.50757
5.24681
4.93019
4.63802
4.87388
4.53557
5.0598
4.22733
4.72664
5.4104
5.51169
5.1934
5.00505
4.94006
4.89512
4.11507
5.08235
4.92939
4.46788
5.48651
5.35194
4.81851
5.06419
4.32242
5.25826
4.57377
4.59429
4.95281
5.01627
5.01754
5.04933
4.38461
4.78683