/*--------------------------------*- C++ -*----------------------------------*\
| =========                 |                                                 |
| \\      /  F ield         | OpenFOAM: The Open Source CFD Toolbox           |
|  \\    /   O peration     | Version:  2212                                  |
|   \\  /    A nd           | Website:  www.openfoam.com                      |
|    \\/     M anipulation  |                                                 |
\*---------------------------------------------------------------------------*/
FoamFile
{
    version     2.0;
    format      ascii;
    arch        "LSB;label=32;scalar=64";
    class       volScalarField;
    location    "0.012";
    object      k;
}
// * * * * * * * * * * * * * * * * * * * * * * * * * * * * * * * * * * * * * //

dimensions      [0 2 -2 0 0 0 0];

internalField   nonuniform List<scalar> 
31639
(
0.0720892
0.0720453
0.0734554
0.0752157
0.0704014
0.0708679
0.0697977
0.072957
0.0718313
0.0748254
0.0748157
0.0743211
0.0728823
0.0748342
0.071171
0.0685246
0.0721385
0.0694123
0.0673963
0.0721601
0.0643804
0.0734725
0.0750646
0.0679711
0.0679299
0.0716225
0.0724744
0.0630939
0.0697893
0.0748126
0.0746728
0.0690165
0.0748597
0.0676729
0.0654952
0.0749174
0.0624071
0.0756228
0.0749894
0.0616915
0.0659793
0.0645789
0.0746691
0.0737705
0.0747209
0.0747882
0.0709282
0.0692628
0.071874
0.0750937
0.0743829
0.0615259
0.0754165
0.0637658
0.0685219
0.0719091
0.0639869
0.0724817
0.0721547
0.0637857
0.0707712
0.0728568
0.0675402
0.0715815
0.0717305
0.0748723
0.0707407
0.0725622
0.0665131
0.07494
0.0754356
0.0685513
0.0739007
0.072212
0.0755052
0.0652316
0.0749572
0.0697974
0.0716299
0.0737386
0.0674235
0.0617136
0.0752972
0.0732346
0.0731611
0.0748397
0.0751999
0.0751399
0.0643597
0.0759416
0.0729603
0.0698773
0.0640955
0.071703
0.0661032
0.0707983
0.0703293
0.0724052
0.0727494
0.0645152
0.0755871
0.0748704
0.0714574
0.063205
0.0639604
0.0748685
0.0633197
0.0623855
0.0669414
0.0640455
0.072959
0.0649321
0.071588
0.0685329
0.0724981
0.0634517
0.0699776
0.0698242
0.0750904
0.0718541
0.07257
0.0742563
0.0735353
0.0714868
0.0710808
0.074897
0.07203
0.066986
0.0667778
0.0742316
0.074442
0.0733261
0.0737219
0.0690349
0.0725588
0.0726777
0.0638877
0.0634707
0.0740874
0.0723632
0.0719807
0.0745066
0.0749168
0.0624315
0.0626148
0.0750618
0.0740064
0.064495
0.064619
0.0749679
0.0666286
0.0723062
0.0674061
0.0725488
0.0644373
0.0750337
0.0700722
0.0668378
0.0644696
0.0678388
0.0748688
0.0649305
0.0665801
0.0639108
0.0650282
0.0706051
0.0651777
0.0748568
0.0741393
0.0628216
0.0677959
0.0706714
0.065496
0.072866
0.0754051
0.0742417
0.0729786
0.0749854
0.0730682
0.0724034
0.0717267
0.0686534
0.0702289
0.0622694
0.0718847
0.0753373
0.0695682
0.0749163
0.0649881
0.0632499
0.0752159
0.0731425
0.0714606
0.0717909
0.0719304
0.0683917
0.0689446
0.074039
0.0631314
0.0690913
0.0743148
0.0755909
0.0720137
0.0722433
0.0712039
0.0722322
0.0709796
0.0715061
0.0742609
0.0621314
0.071785
0.0695236
0.0730193
0.0735428
0.0721253
0.0745868
0.0657154
0.0687054
0.0747076
0.0743256
0.0738232
0.0701958
0.0632297
0.0729552
0.0636677
0.0712324
0.0747672
0.0678671
0.0647468
0.0724649
0.0722666
0.0754047
0.0647791
0.0640072
0.0713168
0.071841
0.0636523
0.073609
0.0674237
0.0628138
0.071566
0.0711055
0.0709348
0.067887
0.0681047
0.0719538
0.0710448
0.0701429
0.0637053
0.0720643
0.0697441
0.0656899
0.0681334
0.0749248
0.0745862
0.0691891
0.0654663
0.0739212
0.0731662
0.0698696
0.0752741
0.0746317
0.07304
0.0749306
0.0712862
0.0707468
0.0631798
0.0676537
0.0733438
0.0705686
0.0724099
0.0680808
0.0708665
0.074078
0.0751723
0.0723777
0.0638333
0.0693406
0.0664397
0.0743046
0.0697528
0.0748528
0.0750761
0.0686629
0.0646234
0.0672907
0.064739
0.0634793
0.0740387
0.0654722
0.0750034
0.0707774
0.068043
0.0662657
0.0752892
0.0687437
0.0681858
0.0733528
0.0711997
0.0678314
0.0718287
0.0644661
0.0720773
0.0713444
0.0651729
0.0692939
0.0711487
0.0607369
0.063224
0.0742537
0.0754605
0.0743
0.0640841
0.0660133
0.0740257
0.0662695
0.0663819
0.0749789
0.0749324
0.0707753
0.0745539
0.0752751
0.0650127
0.0760689
0.0628605
0.0640945
0.0744108
0.0735542
0.0742136
0.0747728
0.0720442
0.0655606
0.0704827
0.0712571
0.0749133
0.075381
0.0756808
0.0714377
0.069456
0.0731152
0.074216
0.0713466
0.0695783
0.0697842
0.0713268
0.0689248
0.0736996
0.0699209
0.0651549
0.0730936
0.0763171
0.0688751
0.0749561
0.0735897
0.0716543
0.0647882
0.0714635
0.0716016
0.064051
0.0749401
0.0649447
0.0710106
0.0751943
0.062774
0.0722527
0.0715863
0.0643865
0.0707742
0.0658307
0.0690257
0.0750415
0.0724011
0.0629316
0.071971
0.0652573
0.0719815
0.074446
0.0747788
0.0753393
0.0653671
0.0728611
0.0639424
0.0709655
0.0629186
0.0745612
0.0741622
0.0751293
0.0746534
0.0673106
0.0739193
0.0723472
0.0732178
0.071584
0.0661337
0.0701795
0.0712339
0.0722797
0.0721422
0.0711059
0.072579
0.0692858
0.0649371
0.0709156
0.0739509
0.0736678
0.0626584
0.074974
0.0741334
0.071627
0.072603
0.0732981
0.0704043
0.074183
0.0649484
0.0717996
0.0743598
0.0631686
0.0713326
0.0733228
0.0659538
0.0630499
0.064388
0.0696484
0.0646974
0.0724374
0.0722119
0.0689309
0.0751761
0.0650011
0.0740226
0.0749728
0.0718921
0.0717597
0.0694768
0.0748868
0.0722085
0.0713959
0.0748138
0.072349
0.0639716
0.0719955
0.0752766
0.0749311
0.0724717
0.0754004
0.0702247
0.0716344
0.0732056
0.0746049
0.0750515
0.0647008
0.07193
0.0615527
0.0698877
0.0711217
0.0648876
0.0640694
0.0689796
0.0714808
0.0732314
0.0642524
0.0720865
0.0683945
0.0715314
0.0725323
0.0596686
0.0712065
0.0634448
0.0706172
0.0744637
0.0761204
0.0734872
0.0696792
0.0632823
0.0721431
0.07184
0.0743335
0.0639198
0.0645988
0.0714257
0.0646497
0.0654883
0.0714881
0.0639709
0.0687984
0.0650835
0.0720621
0.0642624
0.0750678
0.0742871
0.0746967
0.074179
0.0681385
0.075058
0.0751185
0.07134
0.073084
0.0726885
0.074581
0.0753328
0.0686122
0.0741069
0.0753149
0.0716114
0.0662452
0.0750671
0.0723023
0.0616059
0.0635963
0.0724226
0.0752716
0.0747978
0.0703214
0.0748689
0.0754321
0.0742355
0.0728666
0.0697828
0.0708846
0.0654569
0.0713151
0.0719719
0.0751197
0.0674382
0.0669796
0.0657789
0.0693633
0.0713439
0.0615519
0.0721995
0.0680608
0.0712152
0.0692762
0.0730692
0.0702049
0.0650844
0.073104
0.0739765
0.0658626
0.0723268
0.0760663
0.0726583
0.0712034
0.0641462
0.0664602
0.0719055
0.0724984
0.0651937
0.0641947
0.0726628
0.0679545
0.0722795
0.067686
0.0697886
0.0748646
0.0717991
0.063833
0.0686661
0.0724006
0.0746653
0.0640094
0.0613742
0.0743772
0.0637517
0.0731773
0.0749722
0.0641732
0.0723705
0.074635
0.0710407
0.0645395
0.0753157
0.0709837
0.0646228
0.0749959
0.0731242
0.0704979
0.0742051
0.0618645
0.0668535
0.0714176
0.0687788
0.0684244
0.0716151
0.0747713
0.0748241
0.073287
0.0745812
0.0742322
0.0711922
0.0678136
0.0734627
0.0746678
0.0770923
0.0671902
0.0725812
0.0710064
0.0767025
0.0655061
0.0624632
0.07491
0.0659092
0.0751772
0.0705168
0.0637358
0.0691827
0.0745385
0.0708038
0.07228
0.0633129
0.0728635
0.0703602
0.0632807
0.0747547
0.0740715
0.0626238
0.065503
0.0661848
0.0699018
0.0723709
0.0723865
0.0717852
0.0721635
0.0740701
0.0724275
0.0718911
0.0657461
0.0747881
0.0643459
0.0722985
0.0700937
0.0697963
0.0763447
0.0719744
0.0666435
0.0628594
0.0656406
0.0698952
0.0745573
0.0651378
0.07488
0.0705063
0.0740987
0.0645527
0.0706021
0.0738835
0.075137
0.0744971
0.0735491
0.0730308
0.0707726
0.075613
0.0752926
0.0750556
0.0679648
0.0733649
0.064434
0.075298
0.0740331
0.0714417
0.0653479
0.0706239
0.0620256
0.0740719
0.0709627
0.0752416
0.0718963
0.0703016
0.0645547
0.074713
0.0632266
0.0620088
0.0667704
0.0674052
0.0644494
0.0720634
0.0640977
0.0723061
0.0714133
0.0613248
0.0749802
0.0649722
0.0667762
0.0706259
0.0677694
0.0725736
0.0743615
0.074981
0.0747484
0.0679349
0.071576
0.0687565
0.0693782
0.0618853
0.0546282
0.0747638
0.07166
0.0722686
0.0746551
0.0642174
0.0748954
0.075384
0.0739024
0.0739202
0.0739782
0.0731231
0.0750487
0.0750524
0.0722788
0.0746726
0.0732617
0.0654787
0.0746659
0.0688642
0.0742391
0.0702502
0.0718308
0.067164
0.0755728
0.0711111
0.0721787
0.0707259
0.0658221
0.0746531
0.0708208
0.0681771
0.0644174
0.0737099
0.0621603
0.0737508
0.0730678
0.0705406
0.0746905
0.0751614
0.0746929
0.0643121
0.0716532
0.0708802
0.0727751
0.0652566
0.0732539
0.0722675
0.0699524
0.072083
0.068918
0.0716523
0.0693818
0.0691932
0.0624581
0.0740749
0.0716768
0.074502
0.0676753
0.0719412
0.0728305
0.0714437
0.0679801
0.0723448
0.0741408
0.0715999
0.0622484
0.0629511
0.070993
0.0622613
0.0644397
0.0732489
0.0732013
0.0738312
0.0620358
0.0711501
0.0746204
0.0643125
0.062306
0.0716083
0.0656293
0.0729453
0.0666972
0.0750972
0.0680488
0.0679469
0.074628
0.0626338
0.0709987
0.0710414
0.0741961
0.074905
0.0746582
0.0659072
0.0737696
0.074806
0.0691432
0.0750319
0.07385
0.0724267
0.0752498
0.0721624
0.0761799
0.0751875
0.0756572
0.0732196
0.0695856
0.0722669
0.0718126
0.0650297
0.0702939
0.0733523
0.0743287
0.0752762
0.0711218
0.0759781
0.0740815
0.0697781
0.0731579
0.0747685
0.0730493
0.0726969
0.0646883
0.0684231
0.0758436
0.0622832
0.0704946
0.0713443
0.0692343
0.0709107
0.0743169
0.0716955
0.0743067
0.0706677
0.0722193
0.070321
0.0744184
0.072432
0.0692502
0.0650117
0.0745768
0.0656497
0.0705365
0.0694929
0.0705001
0.0705821
0.0757477
0.0652139
0.0757222
0.0655102
0.0726522
0.0697874
0.0716696
0.0716053
0.0745862
0.0647954
0.0741454
0.0745966
0.0744181
0.0729187
0.0721191
0.0624193
0.0753705
0.0747045
0.0734613
0.074015
0.0747068
0.0718689
0.0714151
0.0727447
0.0645
0.0698577
0.0750499
0.0637479
0.067295
0.0766392
0.0748934
0.0673413
0.0683139
0.0733261
0.0675024
0.0709946
0.0652668
0.0737722
0.0746542
0.0620527
0.0709348
0.0745457
0.0727464
0.0744737
0.0706287
0.0743595
0.0657251
0.0654739
0.0757437
0.0749218
0.0712515
0.0647042
0.0718989
0.0751905
0.0669864
0.0750742
0.0728224
0.0736245
0.0715873
0.0737927
0.0728
0.072419
0.0709865
0.0675944
0.0629049
0.0708647
0.0726348
0.0647297
0.0744537
0.0628802
0.0706147
0.0689466
0.0649172
0.0713749
0.0678236
0.0728584
0.0709299
0.0733493
0.0646425
0.0652244
0.0692309
0.0643216
0.0703322
0.0745393
0.0711544
0.0751709
0.0705802
0.0720651
0.0753691
0.0691919
0.0709233
0.071627
0.0715963
0.0717324
0.066693
0.0725375
0.0740449
0.0747051
0.0761424
0.0650309
0.0631371
0.0714917
0.0747363
0.0657797
0.0707885
0.0722328
0.0719746
0.0762407
0.0689974
0.0708989
0.0726544
0.0640596
0.0748206
0.0745021
0.0649926
0.0673825
0.0715979
0.0686163
0.0752982
0.0752149
0.0717421
0.0658516
0.074981
0.0637679
0.07139
0.0741793
0.0686261
0.0757172
0.0636976
0.0718273
0.0721094
0.07184
0.064221
0.0632074
0.073918
0.075193
0.068686
0.0743897
0.0734715
0.0714591
0.0650787
0.0667427
0.0733557
0.0700118
0.0719713
0.0752534
0.0745995
0.0759533
0.074534
0.0709696
0.071375
0.0739014
0.0653518
0.0736984
0.0735404
0.0727467
0.0732857
0.0755713
0.070003
0.0744178
0.0716085
0.0626872
0.0753828
0.0685897
0.0753366
0.0688456
0.0743544
0.0655645
0.0732548
0.0765081
0.0716915
0.0726096
0.0647846
0.0742617
0.0755277
0.0727595
0.063813
0.0777942
0.070092
0.0728225
0.074342
0.0744834
0.0739889
0.0714444
0.0701462
0.0759257
0.0654718
0.0665524
0.0658057
0.0669322
0.0732409
0.0636023
0.075292
0.0747186
0.0750468
0.0711419
0.0695078
0.072524
0.0753825
0.0724625
0.0715899
0.0752188
0.074765
0.0707954
0.074325
0.0718549
0.0715196
0.0727428
0.0688594
0.0751051
0.0758991
0.0747486
0.0748987
0.0744041
0.06799
0.076556
0.0713257
0.0719813
0.071296
0.0732131
0.0760549
0.0724559
0.0739764
0.0679582
0.0718901
0.071957
0.0663725
0.065191
0.0716782
0.0701657
0.0754736
0.0687484
0.0627032
0.0714203
0.07444
0.067723
0.0687389
0.072302
0.0753342
0.0750839
0.0704935
0.0679693
0.0721257
0.0731719
0.0691886
0.0716738
0.07216
0.0643704
0.0697318
0.0689831
0.072455
0.075023
0.0722883
0.0750025
0.072738
0.072572
0.0723123
0.0641206
0.0653185
0.0642604
0.0747054
0.0726708
0.0755425
0.0775773
0.0731813
0.0638749
0.0738289
0.0696214
0.0722228
0.072104
0.073655
0.0634937
0.0754805
0.0649263
0.0721499
0.0711246
0.0706373
0.0758878
0.0719684
0.0738583
0.0645972
0.0719618
0.0714361
0.0735191
0.06687
0.0671239
0.0733508
0.074034
0.0714507
0.0731096
0.0755602
0.0644749
0.0701045
0.069266
0.067334
0.0733581
0.0752755
0.0755408
0.0744593
0.0752417
0.0659232
0.0656625
0.0650868
0.0764245
0.0653219
0.0733246
0.0707043
0.06536
0.0690973
0.0746247
0.0750276
0.0676449
0.0692187
0.0709836
0.0724658
0.075237
0.071516
0.0647583
0.0723027
0.0753497
0.0747923
0.0754888
0.0748915
0.0772309
0.0751381
0.0730383
0.0665754
0.0646912
0.0725499
0.0668446
0.0753278
0.0656175
0.0731316
0.0693611
0.0743825
0.0663609
0.0725266
0.0745482
0.073506
0.0693283
0.0654985
0.0748551
0.0693534
0.0752055
0.0708782
0.0774968
0.075371
0.0727005
0.0647763
0.0652295
0.0713791
0.0712905
0.0689114
0.0761772
0.0659775
0.074505
0.0727029
0.0693581
0.0734144
0.0749282
0.0749023
0.0750511
0.076184
0.0731958
0.0712481
0.0640026
0.067715
0.0744364
0.0662082
0.0718473
0.0714421
0.0658089
0.0719154
0.072777
0.0715224
0.0737114
0.0747898
0.0661004
0.0715406
0.072547
0.0649343
0.068194
0.0709581
0.0695069
0.0727208
0.0657695
0.0652367
0.071833
0.0687834
0.0748832
0.0756179
0.0741153
0.0709916
0.0710268
0.0720775
0.0701347
0.0752178
0.065778
0.072022
0.0693608
0.0749338
0.0730153
0.0703183
0.0714162
0.0747537
0.0658679
0.0724515
0.0750773
0.0709014
0.059494
0.0695422
0.0655886
0.0715355
0.0636397
0.0760673
0.0756089
0.074867
0.0733499
0.0665057
0.064032
0.0745449
0.0759871
0.075013
0.0723388
0.0713864
0.0740542
0.0760661
0.0743081
0.0642389
0.0708985
0.0725558
0.0734865
0.0695995
0.0733671
0.063097
0.0748971
0.0744902
0.0711818
0.072768
0.0723611
0.072326
0.075104
0.0738552
0.0662665
0.0719486
0.0738782
0.0714896
0.0710893
0.0723646
0.0641064
0.064952
0.0748157
0.0753235
0.0744531
0.0748939
0.0733012
0.0736816
0.071152
0.0725886
0.073229
0.0748847
0.0689091
0.0701758
0.0700556
0.0725229
0.0749605
0.0632776
0.0709982
0.0628611
0.074703
0.0632658
0.065056
0.0717132
0.0613782
0.0708153
0.0733024
0.0745863
0.0743483
0.0675379
0.0697461
0.0761345
0.0681964
0.0665201
0.0705964
0.0673682
0.0747814
0.0734643
0.0711219
0.0658324
0.0742102
0.0763032
0.0745096
0.0650094
0.0666763
0.0717434
0.0749934
0.0756957
0.065121
0.0647074
0.0732454
0.0714498
0.0755576
0.0716494
0.063037
0.0722119
0.0745645
0.0648029
0.0631296
0.0748986
0.066172
0.0658271
0.075342
0.0748249
0.0734632
0.0766352
0.0712812
0.0699546
0.0751328
0.0682316
0.0740975
0.0681763
0.0724279
0.0735124
0.0711098
0.0647416
0.0739178
0.0741276
0.0689326
0.0717647
0.0697692
0.0668298
0.0675933
0.0711548
0.0729946
0.0753902
0.0685247
0.0741273
0.0641708
0.0737335
0.0753154
0.0645791
0.0744873
0.0726548
0.0604087
0.0645093
0.072758
0.0718338
0.0742474
0.0685734
0.0655062
0.0743243
0.0754287
0.0749085
0.0715546
0.0746683
0.063828
0.0752313
0.0721861
0.0646987
0.0647525
0.0607328
0.0641627
0.074451
0.0693476
0.073348
0.0724792
0.0659843
0.0664892
0.0624559
0.0624131
0.0767667
0.0759851
0.0663445
0.0751027
0.0731463
0.0660812
0.0710913
0.0708457
0.0667976
0.0688791
0.0744429
0.0671654
0.0637598
0.0744913
0.0765255
0.0678274
0.0747944
0.0710801
0.0668418
0.0653676
0.0707608
0.064857
0.0649536
0.0728277
0.0734086
0.0697988
0.074526
0.0744807
0.0716111
0.075566
0.0562825
0.0706614
0.0639903
0.0723533
0.0750923
0.0714841
0.0682761
0.0718165
0.0647795
0.0735817
0.0716502
0.0678877
0.0655318
0.0622292
0.0620086
0.0684669
0.0641278
0.0702066
0.0644482
0.0696157
0.0737927
0.0723841
0.0700024
0.0730601
0.0724434
0.0720723
0.0738972
0.0637504
0.0699961
0.0751091
0.0749176
0.0711946
0.0761638
0.0661744
0.0743754
0.0715142
0.0640764
0.0729363
0.0753527
0.0720172
0.0740963
0.0751074
0.0720303
0.061846
0.0618638
0.0712459
0.0755117
0.071684
0.0739477
0.0688403
0.0694023
0.0659983
0.0634685
0.0630546
0.0639603
0.0727223
0.0730578
0.075432
0.0700019
0.069333
0.0754647
0.0638894
0.0724509
0.074837
0.0753008
0.0699516
0.0703315
0.0746374
0.0763869
0.0747859
0.0640859
0.070751
0.0742062
0.0721689
0.0726704
0.0768692
0.0740573
0.0754482
0.0727215
0.0675243
0.0721167
0.0750581
0.0733188
0.07255
0.0641676
0.0744696
0.0746135
0.0755682
0.0743329
0.0636005
0.0621004
0.0714086
0.0728728
0.0710079
0.0726927
0.0739782
0.0739125
0.0740074
0.0682813
0.0723224
0.0722197
0.0743681
0.0653338
0.0651057
0.0698481
0.0743207
0.0652769
0.0751165
0.0648022
0.0690251
0.0724189
0.0749721
0.0692592
0.0743849
0.0744523
0.0742964
0.0716973
0.0733429
0.0728113
0.0689913
0.062244
0.0751203
0.0622439
0.0643728
0.0636833
0.0630376
0.0635722
0.0688432
0.0727166
0.0645845
0.0685605
0.0605652
0.0662723
0.0711974
0.07501
0.0627465
0.0652386
0.0741045
0.0629867
0.0690132
0.0739378
0.0717811
0.0722633
0.0657387
0.0644148
0.0684351
0.0748935
0.0677424
0.0653209
0.0711049
0.0687467
0.0730716
0.0715848
0.0658877
0.075172
0.0635308
0.064958
0.0704467
0.0748206
0.0685807
0.070091
0.070736
0.0724328
0.0624977
0.0666313
0.0711339
0.0752495
0.0733627
0.0643699
0.0623295
0.0701335
0.075101
0.0715814
0.0718915
0.0688766
0.0700821
0.0717667
0.0641317
0.0751021
0.0678567
0.0643158
0.0625
0.0743454
0.0716311
0.0752334
0.0709216
0.0745131
0.0637563
0.0704833
0.0624674
0.0625111
0.0741764
0.0658518
0.0700055
0.0724748
0.0730441
0.0648424
0.0751484
0.0742927
0.0751671
0.0720206
0.0604755
0.0726797
0.0619441
0.0756553
0.0652421
0.0752655
0.0615135
0.073158
0.0734486
0.0689618
0.0694845
0.0613979
0.0676661
0.0719662
0.0741835
0.0722109
0.0749799
0.0753799
0.064114
0.0751846
0.0667145
0.0731878
0.0731063
0.0746663
0.0734043
0.0720936
0.0750818
0.0693905
0.0668371
0.0667875
0.0730269
0.0757362
0.0659101
0.0670951
0.0741848
0.072305
0.0721481
0.0771655
0.0736372
0.0717103
0.0738445
0.0738314
0.0752032
0.0707937
0.0700934
0.0748103
0.073567
0.0652242
0.0711781
0.067738
0.0756507
0.0727641
0.074294
0.0652193
0.0651641
0.072325
0.0742352
0.0745505
0.0751313
0.0754433
0.0709267
0.0718197
0.0653426
0.0711116
0.0727364
0.0744316
0.0754673
0.0753119
0.0700472
0.0749766
0.0663602
0.0744446
0.0677537
0.0714082
0.0685324
0.0724572
0.0701489
0.0745299
0.0648071
0.0750119
0.0750164
0.0700072
0.0649554
0.0769224
0.0720365
0.0745693
0.0721693
0.0726364
0.0729177
0.0639136
0.0750509
0.0702704
0.0729793
0.0663658
0.0668196
0.0674532
0.0637551
0.0675958
0.0751722
0.0723034
0.0627914
0.0731428
0.0641137
0.0711117
0.0728019
0.0619166
0.0636697
0.0677065
0.0704498
0.0731995
0.0683612
0.0738227
0.0697464
0.0651363
0.0678138
0.074728
0.0748681
0.0751085
0.073908
0.0731475
0.0647892
0.0637871
0.0747695
0.0691052
0.0711772
0.0747717
0.0765641
0.0724312
0.0727202
0.0626969
0.07405
0.0752954
0.0686059
0.0746132
0.074392
0.0731266
0.0703539
0.0729863
0.0689168
0.063199
0.0723621
0.0651633
0.0640882
0.070794
0.0723882
0.0743175
0.0745236
0.0729021
0.0741067
0.0624147
0.0684859
0.0760714
0.0757526
0.0642775
0.0710875
0.0654735
0.0700238
0.0747788
0.0691857
0.0718348
0.0754882
0.0715994
0.0631044
0.0745623
0.0637905
0.074193
0.0734114
0.073135
0.0747278
0.073117
0.0745355
0.0644943
0.0749034
0.0749996
0.0660172
0.0736279
0.0716848
0.069867
0.0747108
0.0703527
0.0740739
0.0755303
0.0748835
0.0726168
0.0751621
0.0721852
0.0720375
0.0670185
0.0696878
0.0645046
0.0625178
0.0708241
0.0735781
0.0719087
0.0752492
0.0711023
0.0749008
0.0628199
0.0754383
0.0756294
0.0737949
0.0742455
0.0661879
0.0632411
0.0719709
0.063644
0.0738468
0.0725793
0.0623217
0.0690486
0.0750267
0.0742065
0.0622461
0.0669334
0.0623379
0.0756582
0.064057
0.0742993
0.0688635
0.0650183
0.0743035
0.0747779
0.0755485
0.0738402
0.0642541
0.0717001
0.0758912
0.0658124
0.0747242
0.073439
0.0747074
0.0633207
0.0734302
0.0692298
0.0727497
0.0695196
0.0711818
0.0684507
0.0692226
0.0699827
0.0689662
0.0735613
0.0715533
0.0751591
0.0671335
0.071662
0.0729513
0.0743403
0.0749263
0.0651377
0.0736638
0.0645346
0.0705763
0.0753624
0.0756651
0.0709848
0.0705083
0.0737155
0.0683017
0.0711478
0.070304
0.0646771
0.0639089
0.0731788
0.0750677
0.0706095
0.0689993
0.0751623
0.0644957
0.0732833
0.0649095
0.0717391
0.0753132
0.0725679
0.0636578
0.0750179
0.0644275
0.073615
0.0739688
0.0635316
0.0752278
0.0659881
0.0682812
0.0698644
0.0627553
0.0671675
0.0700651
0.0615779
0.0742988
0.0760371
0.0622697
0.067696
0.0741191
0.0727279
0.0729675
0.0762225
0.0745433
0.0714748
0.0667432
0.0638945
0.0617994
0.063188
0.0752127
0.074033
0.0716552
0.0727911
0.0639174
0.0643329
0.0711647
0.0742261
0.0612897
0.0726214
0.0719754
0.0703726
0.0735379
0.070027
0.0747195
0.0671964
0.0697812
0.0763101
0.0608417
0.0717802
0.074913
0.0749431
0.0716405
0.0745334
0.0732233
0.0636684
0.0759568
0.0763263
0.0716288
0.0728033
0.0699677
0.0717818
0.0738428
0.0732367
0.0726793
0.0720779
0.0705974
0.0633902
0.0693306
0.0756425
0.0738002
0.0756928
0.073163
0.0713286
0.0756923
0.0655167
0.0747374
0.0641679
0.0754906
0.0723622
0.0685502
0.0758455
0.0682881
0.0697638
0.0757055
0.0690217
0.0759459
0.074682
0.0735602
0.0650405
0.0724857
0.0716484
0.0676903
0.0746148
0.0707389
0.0713697
0.07607
0.06447
0.0744586
0.0726117
0.0746871
0.0690175
0.072623
0.0647424
0.0665878
0.0771524
0.0646374
0.0725111
0.0747743
0.064892
0.0701406
0.075071
0.0674931
0.0658676
0.0667763
0.0693051
0.0684261
0.0754363
0.0693505
0.075343
0.073142
0.0751638
0.0636189
0.0676618
0.0749503
0.0717884
0.0646138
0.0660515
0.0699646
0.0618327
0.0635699
0.0717558
0.0711858
0.0748173
0.0705101
0.0746956
0.0747787
0.0742302
0.0741573
0.0733193
0.0676004
0.0695519
0.0737331
0.0712639
0.0699337
0.0749807
0.071652
0.0633951
0.0634196
0.0693904
0.063199
0.0724576
0.0746098
0.0692747
0.0732557
0.0744728
0.0743074
0.0759422
0.070218
0.0653721
0.0700432
0.0694941
0.0748836
0.0693446
0.0732502
0.0752003
0.0691106
0.0689046
0.0731358
0.0751689
0.073993
0.0775465
0.0742965
0.0704808
0.0713945
0.06662
0.0696512
0.0750479
0.0667449
0.0748015
0.0701489
0.0744056
0.0646164
0.0740649
0.072284
0.0748909
0.0717309
0.0714722
0.0720736
0.0742263
0.0633598
0.0663874
0.0716459
0.0684953
0.0703883
0.0727552
0.0723533
0.0753389
0.0721459
0.0640684
0.0678154
0.0645151
0.0708335
0.0724644
0.0656462
0.0766006
0.0719523
0.0694614
0.0728252
0.0663909
0.0656518
0.0753056
0.0652053
0.062638
0.0652922
0.0660603
0.0653125
0.0668602
0.0750453
0.0743382
0.0685852
0.0733898
0.074477
0.0719907
0.073186
0.0629858
0.0750048
0.0541753
0.0744905
0.064459
0.0635779
0.0742298
0.0633336
0.0698918
0.0721066
0.0748142
0.0685686
0.0721417
0.068383
0.071594
0.070036
0.0717359
0.0704029
0.0735468
0.0716287
0.0649312
0.0737754
0.0708383
0.0702777
0.0666338
0.0658129
0.0683544
0.0634421
0.0634663
0.0722212
0.0696363
0.0657999
0.0688476
0.0745508
0.0746519
0.0743915
0.0554883
0.0642664
0.0754212
0.0646756
0.0739133
0.0631536
0.0749212
0.0740578
0.0754724
0.0644591
0.0704886
0.0755193
0.0753015
0.0718513
0.0754476
0.0716388
0.0717284
0.071415
0.0638113
0.071733
0.0682399
0.0723539
0.0722548
0.0675386
0.071
0.074503
0.0672225
0.0662475
0.0644886
0.0731652
0.0733712
0.063233
0.0722228
0.0719082
0.0725951
0.0652928
0.0728308
0.0695985
0.0753386
0.0614775
0.0701863
0.0717272
0.0629762
0.0745232
0.0657737
0.0661755
0.0718395
0.0752514
0.062067
0.0739639
0.073474
0.068885
0.0631071
0.0751684
0.0748
0.0626557
0.0719516
0.0620292
0.0661632
0.074915
0.0695874
0.0727381
0.0748651
0.0751769
0.0700897
0.0680393
0.071471
0.0704163
0.0704887
0.0681908
0.073691
0.0639198
0.070272
0.0700796
0.0698809
0.0735613
0.0708649
0.0732861
0.0730429
0.0718892
0.0749466
0.0722098
0.0694826
0.0675841
0.0731537
0.0700857
0.0695822
0.0730394
0.0748627
0.0721835
0.0745633
0.0695898
0.0736731
0.0674807
0.064967
0.0716781
0.073216
0.0654506
0.0721832
0.071183
0.06141
0.062916
0.0743977
0.0622315
0.0712538
0.0744377
0.0718246
0.0649151
0.0724863
0.0759403
0.0643424
0.0649947
0.0656824
0.0744282
0.0720663
0.0720961
0.0759399
0.0637188
0.0736201
0.0717951
0.0751669
0.075819
0.0548802
0.0717789
0.0734353
0.0743585
0.0715746
0.0704905
0.0633912
0.0736371
0.0748873
0.0669172
0.0632647
0.0691379
0.0740643
0.072748
0.0641196
0.0700712
0.0736895
0.0746542
0.0711416
0.0701241
0.06268
0.0644759
0.064369
0.072534
0.0708449
0.0708731
0.0749937
0.0747131
0.0629479
0.0743215
0.0745597
0.0733217
0.0682576
0.0743899
0.0699039
0.0647158
0.0675047
0.0715555
0.0712772
0.0679554
0.0716285
0.0699364
0.0740873
0.0652943
0.0636723
0.0707616
0.0749114
0.0737993
0.0692387
0.0695408
0.0744667
0.0752268
0.0703726
0.068079
0.073917
0.0746561
0.072645
0.0750671
0.0743023
0.0725327
0.0632426
0.068639
0.0640207
0.072715
0.074619
0.0685985
0.0642791
0.0755927
0.0649234
0.0689584
0.0664142
0.0702945
0.0634715
0.0730402
0.0719342
0.0714556
0.0706573
0.0662062
0.0752318
0.0654062
0.072469
0.0704578
0.0715126
0.0644097
0.0740547
0.0731994
0.0636706
0.0670016
0.0702754
0.0696139
0.0722709
0.0594643
0.0733625
0.0687626
0.0718957
0.0675004
0.0682634
0.0681449
0.0603234
0.0745277
0.0692055
0.0456829
0.064075
0.0710592
0.0746439
0.0734281
0.0659102
0.0629046
0.0734155
0.0637982
0.0739483
0.0749445
0.0712649
0.0659085
0.0740021
0.0632478
0.0637411
0.0628978
0.0733576
0.0715148
0.0687022
0.0747364
0.0720697
0.0726712
0.0660818
0.0610151
0.0751044
0.0719998
0.0755876
0.0743383
0.0646837
0.071668
0.0712875
0.0693344
0.0718903
0.0680269
0.0693337
0.0778921
0.0727956
0.068731
0.0645998
0.0720442
0.0714895
0.0727909
0.0691526
0.0634425
0.0652972
0.0715248
0.0726059
0.0693914
0.0743912
0.0675662
0.0729397
0.0688533
0.0707834
0.0603495
0.0751177
0.072305
0.0709796
0.0756456
0.0714972
0.0664791
0.0674388
0.0605733
0.0736514
0.0683369
0.0719917
0.0710833
0.0739372
0.0718202
0.0748612
0.0703596
0.0470491
0.0649503
0.0746762
0.0508678
0.0698522
0.0750998
0.0734119
0.0748504
0.0682841
0.0657637
0.0664782
0.0756735
0.0600001
0.0754075
0.0646341
0.0614584
0.0739525
0.0655458
0.0745173
0.0468511
0.062546
0.0722127
0.0746601
0.0750924
0.0713288
0.0742151
0.0727264
0.0726413
0.0735534
0.0729804
0.0709299
0.0711405
0.0601971
0.0742287
0.0711475
0.0702088
0.0752779
0.0746783
0.0742663
0.0657674
0.0748471
0.0730895
0.0679743
0.0660846
0.0631287
0.0736704
0.0742072
0.0741671
0.0748789
0.0736692
0.0723017
0.0628761
0.0729013
0.0697038
0.0696477
0.0721999
0.0639805
0.0621819
0.0700532
0.0767325
0.0728023
0.0724237
0.0651216
0.069885
0.0689801
0.0647921
0.0747933
0.0715168
0.0537432
0.0585901
0.063172
0.0651913
0.074527
0.0732017
0.0734303
0.0672881
0.0633617
0.0738897
0.0748038
0.0619181
0.0754798
0.0658833
0.0751906
0.0708073
0.0740637
0.0744869
0.0719791
0.0733214
0.0717597
0.0685559
0.0653479
0.0677643
0.0734737
0.0702281
0.065489
0.0712021
0.0727907
0.0636104
0.0699293
0.0658776
0.0746453
0.0706508
0.0718698
0.0568394
0.0748284
0.0750214
0.0697746
0.0733621
0.0699865
0.0713146
0.0749611
0.0708632
0.0725375
0.075435
0.0720879
0.0648201
0.0642386
0.0763228
0.0687138
0.0644605
0.0659519
0.0741391
0.0752912
0.0737964
0.0750119
0.0761192
0.0748048
0.0729108
0.0712376
0.0687181
0.0736832
0.0636697
0.0705002
0.073296
0.0686664
0.0673998
0.0657415
0.0726208
0.0754511
0.0641269
0.0712069
0.0733269
0.0647425
0.0747599
0.060938
0.0636416
0.065339
0.0762823
0.0652192
0.0637773
0.0659407
0.0673181
0.0724973
0.0619414
0.0634142
0.069971
0.0693702
0.0615676
0.0714751
0.0650619
0.0664269
0.0731298
0.0666169
0.0637246
0.0739764
0.0705827
0.068204
0.0642332
0.0712203
0.0683097
0.0617235
0.074996
0.0722273
0.073949
0.0701803
0.0651544
0.0639309
0.0715901
0.0695708
0.0750539
0.0704011
0.0743766
0.066711
0.0716024
0.0735104
0.074578
0.059959
0.0632831
0.0662412
0.0742818
0.0652822
0.0715866
0.0549294
0.0669506
0.0727256
0.0687714
0.0727065
0.0656642
0.0713517
0.0714618
0.0733614
0.0649567
0.0721337
0.0765663
0.0666425
0.0723957
0.0689641
0.0733251
0.0657571
0.0643549
0.0726181
0.0641716
0.059516
0.0612164
0.0666199
0.0673857
0.06061
0.0746135
0.0694521
0.0625053
0.0715473
0.0744294
0.0725928
0.0622704
0.0756157
0.0736063
0.0639213
0.0699238
0.0709886
0.0668255
0.0714495
0.0716228
0.0725955
0.0634618
0.0623696
0.071573
0.0650141
0.0618579
0.0615043
0.0641779
0.0723332
0.065044
0.0737235
0.0709066
0.0731399
0.0664593
0.0747868
0.0686944
0.0707811
0.0663489
0.0465614
0.075383
0.0628195
0.0708198
0.0737285
0.0747565
0.0596864
0.0740861
0.0752202
0.0644255
0.0706907
0.0695055
0.0660334
0.0606772
0.0713375
0.0678057
0.0720575
0.0752476
0.0713058
0.0750229
0.0690969
0.0693694
0.0656389
0.0607316
0.0629899
0.0739122
0.0617936
0.0727899
0.0677903
0.0617078
0.0675762
0.0743535
0.0616669
0.0511274
0.0673056
0.0730651
0.074649
0.0725567
0.0472327
0.0666989
0.0748162
0.0729812
0.075456
0.0714274
0.0619894
0.0748306
0.062022
0.0737221
0.0674659
0.0688567
0.070057
0.0743354
0.0642472
0.068492
0.0610025
0.069409
0.0739764
0.0737836
0.0725628
0.0644038
0.0639198
0.0706287
0.0643451
0.0707484
0.0622416
0.0662819
0.0725416
0.0746954
0.064561
0.0743801
0.0664781
0.0762553
0.063609
0.0748836
0.0720406
0.072617
0.0701178
0.0666621
0.0666583
0.0768581
0.0698081
0.0714665
0.0722526
0.0655459
0.0721996
0.0750588
0.06569
0.0677926
0.0674659
0.0646083
0.0695193
0.0735066
0.0583605
0.0750976
0.060279
0.0708548
0.0731828
0.0620745
0.0706391
0.0723856
0.0664598
0.07
0.0687326
0.0696169
0.0618594
0.0726987
0.0622738
0.0706867
0.0523013
0.0728696
0.0625142
0.0652808
0.0709925
0.0639515
0.0671432
0.0753527
0.0722333
0.0711192
0.074536
0.062169
0.0730588
0.064812
0.0717644
0.0695329
0.071107
0.0731487
0.072235
0.0624189
0.0624809
0.0745432
0.0724806
0.072975
0.0605467
0.0749729
0.076789
0.0735722
0.0731695
0.0683744
0.0644659
0.071448
0.064802
0.0668269
0.0735255
0.0711306
0.0678664
0.0716505
0.0710107
0.0716303
0.0640351
0.0652144
0.0641398
0.0599915
0.0754809
0.0719803
0.0672648
0.0741377
0.0724046
0.0660382
0.0749297
0.0612755
0.0653201
0.0624658
0.0645158
0.0751947
0.0733276
0.0570578
0.0746071
0.0613639
0.0717802
0.0716367
0.0722216
0.0747717
0.0712583
0.072881
0.0682347
0.070386
0.070014
0.0739934
0.0617539
0.0644949
0.0703064
0.0607577
0.0671719
0.0606503
0.066684
0.074379
0.068784
0.0561972
0.0572483
0.0629434
0.0653603
0.0682998
0.0679323
0.0708617
0.0724707
0.0589823
0.0699008
0.0673479
0.0683725
0.0621463
0.0700914
0.0611161
0.0557432
0.0658733
0.0653242
0.0655889
0.0656128
0.0679276
0.0691677
0.0644966
0.0748917
0.0627289
0.0721242
0.067715
0.0710483
0.0685495
0.0634104
0.0711026
0.071603
0.06086
0.0680343
0.0705152
0.0756233
0.073115
0.0704976
0.0745704
0.0740396
0.0715382