/*--------------------------------*- C++ -*----------------------------------*\
| =========                 |                                                 |
| \\      /  F ield         | OpenFOAM: The Open Source CFD Toolbox           |
|  \\    /   O peration     | Version:  2212                                  |
|   \\  /    A nd           | Website:  www.openfoam.com                      |
|    \\/     M anipulation  |                                                 |
\*---------------------------------------------------------------------------*/
FoamFile
{
    version     2.0;
    format      ascii;
    arch        "LSB;label=32;scalar=64";
    class       volScalarField;
    location    "0.012";
    object      nut;
}
// * * * * * * * * * * * * * * * * * * * * * * * * * * * * * * * * * * * * * //

dimensions      [0 2 -1 0 0 0 0];

internalField   nonuniform List<scalar> 
31639
(
8.61964e-05
8.50418e-05
8.71855e-05
9.09831e-05
8.3331e-05
8.31244e-05
8.20073e-05
8.73282e-05
8.58696e-05
9.00128e-05
8.99096e-05
8.91413e-05
8.64669e-05
9.05192e-05
8.35953e-05
8.01032e-05
8.61988e-05
8.17562e-05
7.89081e-05
8.52746e-05
7.2658e-05
8.83146e-05
9.08187e-05
7.95739e-05
7.92823e-05
8.55238e-05
8.58106e-05
7.33687e-05
8.2198e-05
9.03588e-05
8.98033e-05
8.10655e-05
9.02455e-05
7.90019e-05
7.46698e-05
9.02919e-05
6.98589e-05
9.1692e-05
9.03522e-05
6.82974e-05
7.56479e-05
7.34932e-05
8.97885e-05
8.87585e-05
9.02925e-05
9.00093e-05
8.31323e-05
8.17307e-05
8.58528e-05
9.08223e-05
8.9296e-05
6.86968e-05
9.12786e-05
7.16667e-05
8.05133e-05
8.57842e-05
7.24717e-05
8.57729e-05
8.51741e-05
7.20821e-05
8.41578e-05
8.73657e-05
7.80904e-05
8.43308e-05
8.54903e-05
9.0427e-05
8.43125e-05
8.58827e-05
7.63445e-05
9.0535e-05
9.13235e-05
7.96315e-05
8.84794e-05
8.53033e-05
9.13893e-05
7.40741e-05
9.03177e-05
8.24898e-05
8.43435e-05
8.87079e-05
7.85236e-05
6.81753e-05
9.0804e-05
8.70223e-05
8.73022e-05
9.00329e-05
9.09338e-05
9.05957e-05
7.34094e-05
9.2044e-05
8.65745e-05
8.26506e-05
7.28372e-05
8.45099e-05
7.67094e-05
8.29663e-05
8.35034e-05
8.56604e-05
8.6257e-05
7.31745e-05
9.18206e-05
8.98981e-05
8.41314e-05
7.11621e-05
7.26623e-05
9.01401e-05
7.11242e-05
6.99339e-05
7.77124e-05
7.20107e-05
8.72569e-05
7.38376e-05
8.41503e-05
8.0345e-05
8.58792e-05
7.14472e-05
8.22593e-05
8.21347e-05
9.0638e-05
8.46893e-05
8.69288e-05
8.90405e-05
8.79224e-05
8.54046e-05
8.43171e-05
9.05876e-05
8.50734e-05
7.78738e-05
7.74779e-05
8.90391e-05
8.9477e-05
8.77299e-05
8.84487e-05
8.10233e-05
8.68776e-05
8.61033e-05
7.24174e-05
7.14471e-05
8.87909e-05
8.55512e-05
8.49928e-05
8.97798e-05
9.0168e-05
7.00279e-05
6.99494e-05
9.08545e-05
8.92301e-05
7.31539e-05
7.33275e-05
9.02706e-05
7.68423e-05
8.51524e-05
7.88491e-05
8.69874e-05
7.32138e-05
9.08153e-05
8.29584e-05
7.70005e-05
7.36953e-05
7.93113e-05
9.01336e-05
7.37664e-05
7.65671e-05
7.22281e-05
7.39581e-05
8.28815e-05
7.40911e-05
9.0283e-05
8.8878e-05
7.09598e-05
7.83903e-05
8.28231e-05
7.48935e-05
8.64032e-05
9.1354e-05
8.95502e-05
8.65635e-05
9.05576e-05
8.68123e-05
8.57287e-05
8.45152e-05
8.08326e-05
8.21968e-05
6.94068e-05
8.57882e-05
9.10912e-05
8.16034e-05
9.04123e-05
7.39636e-05
7.12024e-05
9.12654e-05
8.77989e-05
8.5246e-05
8.46236e-05
8.49384e-05
8.02811e-05
8.10224e-05
8.86926e-05
7.13187e-05
8.13219e-05
8.96439e-05
9.13991e-05
8.59504e-05
8.61931e-05
8.46293e-05
8.53428e-05
8.3327e-05
8.4171e-05
8.90591e-05
6.92487e-05
8.4573e-05
8.19187e-05
8.66575e-05
8.84305e-05
8.62555e-05
8.98807e-05
7.52728e-05
8.03054e-05
8.94346e-05
8.965e-05
8.83272e-05
8.26451e-05
7.11934e-05
8.58938e-05
7.1735e-05
8.44022e-05
8.97555e-05
7.90945e-05
7.3594e-05
8.68401e-05
8.6289e-05
9.14036e-05
7.39157e-05
7.2358e-05
8.5256e-05
8.59854e-05
7.24669e-05
8.85027e-05
7.78347e-05
7.06201e-05
8.4235e-05
8.47259e-05
8.3667e-05
7.92185e-05
7.8668e-05
8.59078e-05
8.34051e-05
8.21498e-05
7.23341e-05
8.50722e-05
8.14635e-05
7.49168e-05
7.95877e-05
9.05075e-05
9.01093e-05
8.13406e-05
7.46954e-05
8.85483e-05
8.72746e-05
8.23188e-05
9.10651e-05
8.97638e-05
8.76331e-05
9.02508e-05
8.38091e-05
8.38631e-05
7.11805e-05
7.90512e-05
8.81458e-05
8.27185e-05
8.68013e-05
7.97729e-05
8.40732e-05
8.93096e-05
9.08145e-05
8.55061e-05
7.22503e-05
8.16844e-05
7.64955e-05
8.92688e-05
8.22939e-05
8.99872e-05
9.09272e-05
8.04764e-05
7.34958e-05
7.73891e-05
7.38091e-05
7.14744e-05
8.88477e-05
7.48763e-05
9.05106e-05
8.31241e-05
7.95468e-05
7.60495e-05
9.12216e-05
8.05107e-05
7.89032e-05
8.82507e-05
8.42769e-05
7.79032e-05
8.46044e-05
7.34202e-05
8.5132e-05
8.38976e-05
7.433e-05
8.16881e-05
8.36451e-05
6.73822e-05
7.09774e-05
8.90461e-05
9.11478e-05
8.91949e-05
7.24867e-05
7.54036e-05
8.86674e-05
7.61099e-05
7.70848e-05
9.05543e-05
9.03036e-05
8.29229e-05
8.97709e-05
9.10359e-05
7.40583e-05
9.24969e-05
7.03508e-05
7.2253e-05
8.9383e-05
8.80271e-05
8.91422e-05
9.02726e-05
8.61473e-05
7.50537e-05
8.2926e-05
8.37942e-05
9.00518e-05
9.09828e-05
9.1638e-05
8.39836e-05
8.12204e-05
8.68642e-05
8.8965e-05
8.51919e-05
8.11285e-05
8.27954e-05
8.38043e-05
8.11403e-05
8.87391e-05
8.19363e-05
7.42064e-05
8.76429e-05
9.2709e-05
8.09715e-05
9.05741e-05
8.85545e-05
8.44947e-05
7.3931e-05
8.40899e-05
8.43891e-05
7.23605e-05
9.0252e-05
7.40199e-05
8.43293e-05
9.06197e-05
7.03649e-05
8.53035e-05
8.42477e-05
7.29724e-05
8.40995e-05
7.53937e-05
8.14986e-05
9.08291e-05
8.66903e-05
7.06788e-05
8.58777e-05
7.43622e-05
8.59861e-05
8.94987e-05
9.02093e-05
9.03248e-05
7.45672e-05
8.69454e-05
7.22193e-05
8.32269e-05
7.06887e-05
9.00185e-05
8.8987e-05
9.0573e-05
8.97146e-05
7.83667e-05
8.89632e-05
8.54509e-05
8.68705e-05
8.42571e-05
7.57096e-05
8.315e-05
8.49655e-05
8.59279e-05
8.62266e-05
8.47283e-05
8.69517e-05
8.17572e-05
7.36539e-05
8.39419e-05
8.91124e-05
8.81061e-05
7.01921e-05
9.02261e-05
8.89032e-05
8.4274e-05
8.65504e-05
8.74859e-05
8.34198e-05
8.94432e-05
7.37342e-05
8.56612e-05
8.95312e-05
7.07904e-05
8.48924e-05
8.71633e-05
7.55668e-05
7.1293e-05
7.2969e-05
8.18241e-05
7.32474e-05
8.55046e-05
8.54029e-05
8.0677e-05
9.08436e-05
7.38903e-05
8.87777e-05
9.05165e-05
8.48031e-05
8.57217e-05
8.18174e-05
9.0044e-05
8.51773e-05
8.45434e-05
9.04709e-05
8.54815e-05
7.24008e-05
8.50058e-05
9.12306e-05
9.01928e-05
8.66507e-05
9.12626e-05
8.22268e-05
8.54901e-05
8.7366e-05
8.99765e-05
9.06184e-05
7.36678e-05
8.46348e-05
6.84491e-05
8.23784e-05
8.35567e-05
7.3906e-05
7.21072e-05
8.09673e-05
8.53846e-05
8.79212e-05
7.29372e-05
8.60216e-05
8.00267e-05
8.42307e-05
8.68113e-05
6.79154e-05
8.36318e-05
7.14134e-05
8.2697e-05
8.94575e-05
9.26341e-05
8.78859e-05
8.23256e-05
7.12724e-05
8.63381e-05
8.48435e-05
8.92232e-05
7.21515e-05
7.33031e-05
8.40863e-05
7.34025e-05
7.465e-05
8.54384e-05
7.23764e-05
8.07197e-05
7.41107e-05
8.61572e-05
7.2976e-05
9.06786e-05
8.9166e-05
8.98211e-05
8.9395e-05
7.83476e-05
9.03452e-05
9.05861e-05
8.50643e-05
8.76386e-05
8.60648e-05
8.95788e-05
9.1024e-05
8.03029e-05
8.93274e-05
9.12886e-05
8.44616e-05
7.68397e-05
9.09352e-05
8.5489e-05
6.86561e-05
7.14298e-05
8.55642e-05
9.03377e-05
9.03224e-05
8.24101e-05
9.04317e-05
9.14068e-05
8.89795e-05
8.63217e-05
8.23636e-05
8.46288e-05
7.49992e-05
8.3814e-05
8.58221e-05
9.08332e-05
7.76674e-05
7.73095e-05
7.54523e-05
8.07629e-05
8.39603e-05
6.87707e-05
8.64236e-05
7.95629e-05
8.49873e-05
8.17074e-05
8.74098e-05
8.30808e-05
7.40304e-05
8.68832e-05
8.91049e-05
7.55476e-05
8.66445e-05
9.24068e-05
8.61059e-05
8.36454e-05
7.48267e-05
7.6389e-05
8.48504e-05
8.58656e-05
7.42197e-05
7.3036e-05
8.60944e-05
7.94646e-05
8.64486e-05
7.83284e-05
8.23333e-05
9.01111e-05
8.47192e-05
7.23029e-05
7.95122e-05
8.55882e-05
9.00162e-05
7.23085e-05
6.84391e-05
8.93649e-05
7.20937e-05
8.69361e-05
9.08496e-05
7.24828e-05
8.56598e-05
9.00998e-05
8.42597e-05
7.28402e-05
9.07395e-05
8.39019e-05
7.32837e-05
9.02399e-05
8.6769e-05
8.2645e-05
8.95481e-05
6.917e-05
7.78593e-05
8.38472e-05
8.08149e-05
7.88796e-05
8.49189e-05
9.013e-05
9.04538e-05
8.80484e-05
9.01809e-05
8.91602e-05
8.49333e-05
7.90656e-05
8.77799e-05
9.0213e-05
9.39894e-05
7.75751e-05
8.5957e-05
8.44561e-05
9.33209e-05
7.46054e-05
6.99671e-05
9.04216e-05
7.63333e-05
9.09743e-05
8.26039e-05
7.23988e-05
8.1743e-05
8.96406e-05
8.35367e-05
8.6444e-05
7.16069e-05
8.75086e-05
8.35632e-05
7.11235e-05
9.02166e-05
8.86976e-05
7.25349e-05
7.48576e-05
7.54017e-05
8.25727e-05
8.55807e-05
8.55917e-05
8.4551e-05
8.5344e-05
8.88312e-05
8.57577e-05
8.48739e-05
7.51312e-05
9.03915e-05
7.25989e-05
8.54404e-05
8.27059e-05
8.21287e-05
9.27155e-05
8.4996e-05
7.67607e-05
7.07754e-05
7.46909e-05
8.2433e-05
8.99094e-05
7.4516e-05
9.04877e-05
8.30656e-05
8.87865e-05
7.31722e-05
8.27109e-05
8.84411e-05
9.09879e-05
8.95206e-05
8.81343e-05
8.66048e-05
8.35052e-05
9.14572e-05
9.10065e-05
9.03602e-05
7.85423e-05
8.83214e-05
7.34222e-05
9.08964e-05
8.916e-05
8.41105e-05
7.45908e-05
8.26466e-05
6.93871e-05
8.90666e-05
8.40294e-05
9.10115e-05
8.48509e-05
8.22141e-05
7.3654e-05
9.01734e-05
7.13992e-05
6.86681e-05
7.65821e-05
7.7524e-05
7.3675e-05
8.50118e-05
7.25655e-05
8.6327e-05
8.52174e-05
6.79437e-05
9.06239e-05
7.37294e-05
7.7828e-05
8.28292e-05
7.94092e-05
8.68994e-05
8.96794e-05
9.07328e-05
9.03625e-05
7.964e-05
8.44273e-05
8.06958e-05
8.16869e-05
6.9205e-05
6.01933e-05
9.01031e-05
8.43582e-05
8.65794e-05
8.97508e-05
7.29291e-05
9.01539e-05
9.14441e-05
8.8478e-05
8.87064e-05
8.86759e-05
8.68922e-05
9.04989e-05
9.07591e-05
8.53989e-05
8.97619e-05
8.7984e-05
7.48634e-05
8.98474e-05
8.08207e-05
8.93257e-05
8.2314e-05
8.47057e-05
7.81829e-05
9.16065e-05
8.31636e-05
8.53343e-05
8.36175e-05
7.49513e-05
9.00658e-05
8.42132e-05
7.99034e-05
7.2995e-05
8.81412e-05
6.97862e-05
8.86571e-05
8.7518e-05
8.27314e-05
9.00485e-05
9.09837e-05
9.01353e-05
7.29076e-05
8.43664e-05
8.36137e-05
8.56578e-05
7.44904e-05
8.75532e-05
8.66935e-05
8.17039e-05
8.5082e-05
8.02238e-05
8.56132e-05
8.16588e-05
8.16581e-05
6.99474e-05
8.8859e-05
8.54204e-05
9.00254e-05
7.82967e-05
8.49668e-05
8.64892e-05
8.41452e-05
7.94019e-05
8.55892e-05
8.89246e-05
8.41909e-05
6.97956e-05
7.05857e-05
8.34249e-05
6.97747e-05
7.40137e-05
8.6933e-05
8.6855e-05
8.85803e-05
6.95414e-05
8.37112e-05
9.01166e-05
7.31872e-05
7.0067e-05
8.49525e-05
7.5147e-05
8.71574e-05
7.66062e-05
9.08946e-05
7.93341e-05
7.94406e-05
9.00095e-05
7.0491e-05
8.3373e-05
8.33663e-05
8.90397e-05
9.01828e-05
8.99817e-05
7.54759e-05
8.833e-05
9.02903e-05
8.12454e-05
9.06043e-05
8.83474e-05
8.67814e-05
9.10801e-05
8.53074e-05
9.25691e-05
9.08221e-05
9.17143e-05
8.73604e-05
8.18358e-05
8.53832e-05
8.47019e-05
7.40346e-05
8.25648e-05
8.72004e-05
8.93409e-05
9.10544e-05
8.32767e-05
9.22037e-05
8.86143e-05
8.14988e-05
8.77799e-05
8.99767e-05
8.76269e-05
8.7109e-05
7.36381e-05
8.03807e-05
9.18311e-05
6.96394e-05
8.32184e-05
8.39059e-05
8.15742e-05
8.34649e-05
8.96668e-05
8.57724e-05
8.92987e-05
8.40621e-05
8.62719e-05
8.35326e-05
8.94307e-05
8.58021e-05
8.15176e-05
7.39426e-05
8.97739e-05
7.48807e-05
8.25448e-05
8.208e-05
8.24736e-05
8.38609e-05
9.16864e-05
7.41378e-05
9.18005e-05
7.4566e-05
8.60377e-05
8.20888e-05
8.44704e-05
8.44438e-05
9.00128e-05
7.36085e-05
8.89438e-05
8.95976e-05
8.99097e-05
8.62707e-05
8.62655e-05
6.97653e-05
9.12992e-05
8.98054e-05
8.84717e-05
8.86933e-05
8.98962e-05
8.47373e-05
8.44686e-05
8.61382e-05
7.38511e-05
8.25815e-05
9.06935e-05
7.19784e-05
7.73912e-05
9.31569e-05
9.00514e-05
7.84557e-05
8.01907e-05
8.65255e-05
7.88076e-05
8.34225e-05
7.49136e-05
8.83481e-05
9.03127e-05
6.93939e-05
8.44192e-05
8.98148e-05
8.71157e-05
8.9884e-05
8.27644e-05
8.93045e-05
7.52108e-05
7.4697e-05
9.16914e-05
9.00805e-05
8.3993e-05
7.37746e-05
8.60568e-05
9.04247e-05
7.72077e-05
9.04363e-05
8.7236e-05
8.84481e-05
8.54464e-05
8.89735e-05
8.61243e-05
8.58767e-05
8.35021e-05
7.9108e-05
7.08894e-05
8.42603e-05
8.59541e-05
7.40369e-05
8.96694e-05
7.06037e-05
8.26649e-05
8.14158e-05
7.39163e-05
8.38882e-05
7.94398e-05
8.75643e-05
8.43056e-05
8.80737e-05
7.32598e-05
7.43303e-05
8.14148e-05
7.30998e-05
8.22756e-05
8.97189e-05
8.35275e-05
9.05928e-05
8.34887e-05
8.51109e-05
9.07038e-05
8.12773e-05
8.3997e-05
8.44048e-05
8.42561e-05
8.5709e-05
7.65686e-05
8.58271e-05
8.86961e-05
9.01339e-05
9.24644e-05
7.35263e-05
7.15712e-05
8.41763e-05
9.01651e-05
7.5375e-05
8.31178e-05
8.59094e-05
8.49207e-05
9.26232e-05
8.15113e-05
8.32475e-05
8.70276e-05
7.26089e-05
9.01296e-05
9.002e-05
7.42989e-05
7.85871e-05
8.42659e-05
8.03534e-05
9.11452e-05
9.06716e-05
8.55288e-05
7.53843e-05
9.02398e-05
7.24856e-05
8.34888e-05
8.91036e-05
7.99725e-05
9.18572e-05
7.19318e-05
8.47428e-05
8.60281e-05
8.49258e-05
7.25442e-05
7.1357e-05
8.90764e-05
9.07082e-05
8.0829e-05
8.9771e-05
8.73606e-05
8.41328e-05
7.40401e-05
7.65556e-05
8.68731e-05
8.28822e-05
8.48648e-05
9.10627e-05
8.97643e-05
9.22386e-05
8.99561e-05
8.43756e-05
8.50805e-05
8.86435e-05
7.41485e-05
8.84472e-05
8.78641e-05
8.62176e-05
8.69473e-05
9.11059e-05
8.25519e-05
8.98058e-05
8.42586e-05
7.01598e-05
9.13116e-05
8.01774e-05
9.11117e-05
8.10147e-05
8.93299e-05
7.47421e-05
8.76059e-05
9.31018e-05
8.45402e-05
8.59336e-05
7.35084e-05
8.91419e-05
9.1646e-05
8.66133e-05
7.25371e-05
9.5117e-05
8.31492e-05
8.68016e-05
8.98063e-05
8.94299e-05
8.87112e-05
8.39941e-05
8.28621e-05
9.22852e-05
7.45554e-05
7.61099e-05
7.52899e-05
7.7297e-05
8.70295e-05
7.15717e-05
9.11573e-05
8.99212e-05
9.0836e-05
8.35238e-05
8.22035e-05
8.58668e-05
9.11384e-05
8.56665e-05
8.48458e-05
9.07775e-05
9.02187e-05
8.38148e-05
8.92938e-05
8.47804e-05
8.41208e-05
8.73994e-05
8.08388e-05
9.10114e-05
9.19205e-05
9.03485e-05
9.05731e-05
9.0016e-05
7.93575e-05
9.30824e-05
8.45889e-05
8.59197e-05
8.37196e-05
8.70116e-05
9.2365e-05
8.56855e-05
8.87731e-05
7.97845e-05
8.48541e-05
8.61384e-05
7.62918e-05
7.39479e-05
8.43828e-05
8.26804e-05
9.13984e-05
8.05795e-05
7.07278e-05
8.52223e-05
8.92995e-05
7.80405e-05
8.06742e-05
8.55396e-05
9.11658e-05
9.09544e-05
8.26155e-05
7.85529e-05
8.51886e-05
8.76807e-05
8.13112e-05
8.56079e-05
8.52901e-05
7.2792e-05
8.19686e-05
8.08847e-05
8.67797e-05
9.03123e-05
8.55116e-05
9.05773e-05
8.71653e-05
8.6034e-05
8.61213e-05
7.3538e-05
7.53655e-05
7.23602e-05
8.99726e-05
8.60401e-05
9.11842e-05
9.45801e-05
8.77574e-05
7.2311e-05
8.83046e-05
8.19428e-05
8.64575e-05
8.62333e-05
8.81316e-05
7.17983e-05
9.14598e-05
7.40036e-05
8.53088e-05
8.47157e-05
8.33769e-05
9.1883e-05
8.44463e-05
8.80737e-05
7.37536e-05
8.47379e-05
8.47204e-05
8.82785e-05
7.80694e-05
7.6754e-05
8.77392e-05
8.92837e-05
8.52825e-05
8.72629e-05
9.14231e-05
7.33045e-05
8.28423e-05
8.16446e-05
7.77198e-05
8.82021e-05
9.10059e-05
9.14209e-05
8.97733e-05
9.11137e-05
7.55659e-05
7.48243e-05
7.43248e-05
9.27157e-05
7.38943e-05
8.76566e-05
8.42629e-05
7.46382e-05
8.12132e-05
8.96701e-05
9.00889e-05
7.88469e-05
8.11608e-05
8.32817e-05
8.58551e-05
9.09299e-05
8.54183e-05
7.40922e-05
8.54384e-05
9.12986e-05
9.04621e-05
9.13614e-05
9.03936e-05
9.42133e-05
9.09291e-05
8.7666e-05
7.61669e-05
7.34947e-05
8.58822e-05
7.79295e-05
9.10974e-05
7.43253e-05
8.67547e-05
8.19421e-05
8.97782e-05
7.59032e-05
8.66616e-05
8.95934e-05
8.71545e-05
8.14584e-05
7.456e-05
8.98146e-05
8.12791e-05
9.11425e-05
8.42182e-05
9.48806e-05
9.12021e-05
8.60996e-05
7.32757e-05
7.43215e-05
8.40511e-05
8.46972e-05
8.06837e-05
9.23323e-05
7.5356e-05
9.00326e-05
8.71181e-05
8.15736e-05
8.77536e-05
9.00996e-05
9.0243e-05
9.06289e-05
9.23543e-05
8.68748e-05
8.51781e-05
7.24105e-05
7.93825e-05
8.96842e-05
7.5711e-05
8.57508e-05
8.39449e-05
7.50431e-05
8.49522e-05
8.73806e-05
8.42453e-05
8.82505e-05
8.99022e-05
7.5375e-05
8.41649e-05
8.58415e-05
7.35999e-05
8.00134e-05
8.3285e-05
8.14959e-05
8.70988e-05
7.53537e-05
7.47156e-05
8.46214e-05
8.07095e-05
9.02204e-05
9.16543e-05
8.93084e-05
8.34382e-05
8.34153e-05
8.54005e-05
8.19194e-05
9.09592e-05
7.51408e-05
8.5057e-05
8.17776e-05
9.05325e-05
8.73527e-05
8.29579e-05
8.4373e-05
8.9903e-05
7.52465e-05
8.56988e-05
9.06917e-05
8.27414e-05
6.51177e-05
8.24592e-05
7.40508e-05
8.53311e-05
7.1551e-05
9.23161e-05
9.13642e-05
9.04762e-05
8.72121e-05
7.63512e-05
7.24619e-05
8.94904e-05
9.18359e-05
9.07014e-05
8.53864e-05
8.45638e-05
8.87557e-05
9.20303e-05
8.97317e-05
7.27072e-05
8.37311e-05
8.59359e-05
8.77244e-05
8.19182e-05
8.80631e-05
7.12684e-05
9.0568e-05
8.95644e-05
8.48483e-05
8.62426e-05
8.66275e-05
8.55211e-05
9.0776e-05
8.79419e-05
7.58947e-05
8.49895e-05
8.80204e-05
8.41213e-05
8.47974e-05
8.64492e-05
7.23525e-05
7.48827e-05
9.00178e-05
9.1254e-05
8.94653e-05
9.05065e-05
8.81928e-05
8.86345e-05
8.50156e-05
8.59371e-05
8.74541e-05
9.02281e-05
8.09006e-05
8.29761e-05
8.18427e-05
8.58588e-05
9.02285e-05
7.11832e-05
8.45479e-05
7.0988e-05
8.98162e-05
7.14634e-05
7.40119e-05
8.455e-05
6.86798e-05
8.35631e-05
8.72129e-05
8.97219e-05
8.9375e-05
7.87671e-05
8.12174e-05
9.24812e-05
7.85488e-05
7.56875e-05
8.30728e-05
7.86371e-05
9.0243e-05
8.73899e-05
8.47372e-05
7.51281e-05
8.91943e-05
9.25223e-05
8.99903e-05
7.39422e-05
7.6773e-05
8.45102e-05
9.06152e-05
9.19276e-05
7.4469e-05
7.32493e-05
8.77918e-05
8.4726e-05
9.15279e-05
8.44962e-05
7.08937e-05
8.64413e-05
8.96664e-05
7.37814e-05
7.11077e-05
9.02977e-05
7.60303e-05
7.5426e-05
9.11269e-05
9.06796e-05
8.78104e-05
9.33292e-05
8.39388e-05
8.2206e-05
9.04287e-05
7.98245e-05
8.93888e-05
7.99878e-05
8.66465e-05
8.84818e-05
8.35865e-05
7.37977e-05
8.87073e-05
8.92089e-05
8.11228e-05
8.46393e-05
8.27694e-05
7.71844e-05
7.93001e-05
8.4753e-05
8.735e-05
9.11694e-05
8.04601e-05
8.89437e-05
7.26893e-05
8.82162e-05
9.12373e-05
7.27897e-05
8.96846e-05
8.60511e-05
6.68512e-05
7.34362e-05
8.61884e-05
8.46796e-05
8.90401e-05
8.05752e-05
7.48291e-05
8.96373e-05
9.1481e-05
9.05231e-05
8.53454e-05
9.01614e-05
7.22952e-05
9.0716e-05
8.5244e-05
7.33562e-05
7.38269e-05
6.72448e-05
7.33347e-05
8.94682e-05
8.15785e-05
8.72208e-05
8.5685e-05
7.65795e-05
7.7352e-05
7.00336e-05
7.00248e-05
9.3554e-05
9.21609e-05
7.58497e-05
9.05316e-05
8.77686e-05
7.54153e-05
8.35964e-05
8.40401e-05
7.6771e-05
8.07078e-05
8.98689e-05
7.68805e-05
7.16082e-05
8.99033e-05
9.29241e-05
7.92392e-05
9.02331e-05
8.38667e-05
7.68698e-05
7.47948e-05
8.37402e-05
7.36669e-05
7.36721e-05
8.6293e-05
8.78472e-05
8.2395e-05
8.99422e-05
8.99367e-05
8.43491e-05
9.14238e-05
6.22415e-05
8.34828e-05
7.23435e-05
8.56085e-05
9.09182e-05
8.41729e-05
7.99669e-05
8.47848e-05
7.38884e-05
8.7818e-05
8.44412e-05
7.94781e-05
7.43895e-05
6.98525e-05
6.91979e-05
8.03635e-05
7.28296e-05
8.30526e-05
7.33396e-05
8.20225e-05
8.90002e-05
8.65086e-05
8.26094e-05
8.66521e-05
8.67492e-05
8.50368e-05
8.86778e-05
7.21005e-05
8.30525e-05
9.09568e-05
9.04939e-05
8.36896e-05
9.25695e-05
7.61407e-05
8.97392e-05
8.4087e-05
7.24179e-05
8.73095e-05
9.11569e-05
8.60548e-05
8.8875e-05
9.0986e-05
8.60414e-05
6.92291e-05
6.93882e-05
8.37228e-05
9.15018e-05
8.55845e-05
8.88242e-05
8.066e-05
8.16067e-05
7.63766e-05
7.14293e-05
7.09249e-05
7.22535e-05
8.73844e-05
8.6758e-05
9.12402e-05
8.18787e-05
8.15412e-05
9.13599e-05
7.17636e-05
8.56279e-05
9.05024e-05
9.13013e-05
8.17683e-05
8.1995e-05
8.96397e-05
9.27033e-05
9.04067e-05
7.4424e-05
8.36944e-05
8.86404e-05
8.60422e-05
8.60326e-05
9.38226e-05
8.93336e-05
9.11409e-05
8.6028e-05
7.87775e-05
8.51968e-05
9.04723e-05
8.81356e-05
8.57919e-05
7.261e-05
8.9739e-05
8.96233e-05
9.12684e-05
8.9202e-05
7.19851e-05
6.92966e-05
8.40369e-05
8.73412e-05
8.3883e-05
8.62691e-05
8.87687e-05
8.87007e-05
8.90733e-05
8.0057e-05
8.66342e-05
8.53381e-05
8.91484e-05
7.38721e-05
7.33042e-05
8.15338e-05
8.93326e-05
7.43931e-05
9.05587e-05
7.36867e-05
8.1352e-05
8.56667e-05
9.0712e-05
8.15412e-05
8.94112e-05
8.98372e-05
8.96462e-05
8.53966e-05
8.79642e-05
8.63972e-05
8.09522e-05
6.9855e-05
9.08594e-05
6.92251e-05
7.24385e-05
7.29925e-05
7.10639e-05
7.1644e-05
8.09206e-05
8.61072e-05
7.38344e-05
8.04445e-05
6.71215e-05
7.59448e-05
8.3653e-05
9.0351e-05
7.05132e-05
7.41057e-05
8.8925e-05
7.08018e-05
8.13941e-05
8.90422e-05
8.5501e-05
8.54526e-05
7.48908e-05
7.28804e-05
8.03507e-05
9.05483e-05
7.80858e-05
7.44963e-05
8.46463e-05
8.06667e-05
8.67506e-05
8.4365e-05
7.49877e-05
9.08845e-05
7.13863e-05
7.33579e-05
8.30541e-05
9.0311e-05
8.03714e-05
8.26802e-05
8.35357e-05
8.56532e-05
7.00681e-05
7.63477e-05
8.34004e-05
9.11335e-05
8.76112e-05
7.26738e-05
6.96114e-05
8.32492e-05
9.08587e-05
8.43457e-05
8.47432e-05
8.07465e-05
8.2062e-05
8.46504e-05
7.28095e-05
9.06359e-05
7.91973e-05
7.3184e-05
6.97163e-05
8.92831e-05
8.45771e-05
9.12438e-05
8.45495e-05
8.94811e-05
7.21418e-05
8.3322e-05
7.00353e-05
6.95408e-05
8.91089e-05
7.51543e-05
8.24756e-05
8.57113e-05
8.79773e-05
7.39028e-05
9.09147e-05
8.93072e-05
9.10942e-05
8.60226e-05
6.58765e-05
8.59779e-05
6.97668e-05
9.18634e-05
7.44353e-05
9.1173e-05
6.85646e-05
8.68859e-05
8.83503e-05
8.0868e-05
8.18737e-05
6.83367e-05
7.88729e-05
8.50424e-05
8.95349e-05
8.63292e-05
9.03579e-05
9.1384e-05
7.23659e-05
9.08887e-05
7.8178e-05
8.69522e-05
8.66342e-05
8.97546e-05
8.81416e-05
8.53107e-05
9.09778e-05
8.16968e-05
7.78251e-05
7.79896e-05
8.6654e-05
9.17184e-05
7.66253e-05
7.72198e-05
8.95043e-05
8.67054e-05
8.51931e-05
9.41697e-05
8.7713e-05
8.552e-05
8.88513e-05
8.9082e-05
9.11737e-05
8.36746e-05
8.18746e-05
8.99733e-05
8.83751e-05
7.55948e-05
8.37927e-05
7.89694e-05
9.17144e-05
8.62061e-05
8.92567e-05
7.41886e-05
7.45305e-05
8.55439e-05
8.905e-05
9.00738e-05
9.1014e-05
9.11042e-05
8.45049e-05
8.57946e-05
7.46109e-05
8.41775e-05
8.61174e-05
8.96872e-05
9.14713e-05
9.10638e-05
8.25914e-05
9.0644e-05
7.57769e-05
8.98538e-05
7.90783e-05
8.40207e-05
8.06462e-05
8.56363e-05
8.21035e-05
8.95973e-05
7.37618e-05
9.03359e-05
9.05697e-05
8.26476e-05
7.40877e-05
9.34399e-05
8.61946e-05
9.01349e-05
8.52295e-05
8.60442e-05
8.74053e-05
7.23723e-05
9.07745e-05
8.29438e-05
8.65126e-05
7.72409e-05
7.76863e-05
7.7962e-05
7.22913e-05
7.91038e-05
9.09029e-05
8.55316e-05
7.07501e-05
8.76189e-05
7.24489e-05
8.47911e-05
8.62618e-05
6.94523e-05
7.2028e-05
7.90246e-05
8.37926e-05
8.7791e-05
8.03453e-05
8.88851e-05
8.23282e-05
7.58431e-05
7.92234e-05
9.02926e-05
9.05933e-05
9.04101e-05
8.86409e-05
8.68954e-05
7.35696e-05
7.25227e-05
9.03694e-05
8.12049e-05
8.44145e-05
9.02982e-05
9.31028e-05
8.55945e-05
8.66357e-05
7.03256e-05
8.88942e-05
9.07251e-05
8.04609e-05
9.03446e-05
8.98134e-05
8.70298e-05
8.23656e-05
8.75198e-05
8.08397e-05
7.1328e-05
8.55748e-05
7.40009e-05
7.25372e-05
8.4049e-05
8.5492e-05
8.95211e-05
8.99112e-05
8.63894e-05
8.91971e-05
6.97205e-05
8.0399e-05
9.22916e-05
9.18994e-05
7.26555e-05
8.42485e-05
7.50939e-05
8.21134e-05
9.028e-05
8.14051e-05
8.57795e-05
9.16024e-05
8.5527e-05
7.08945e-05
9.00653e-05
7.20851e-05
8.94079e-05
8.79227e-05
8.71895e-05
9.00113e-05
8.68046e-05
8.98111e-05
7.34237e-05
9.06615e-05
9.06292e-05
7.54843e-05
8.76339e-05
8.45402e-05
8.24056e-05
8.97183e-05
8.33579e-05
8.88495e-05
9.13234e-05
9.04952e-05
8.58261e-05
9.07854e-05
8.5194e-05
8.60612e-05
7.69275e-05
8.14197e-05
7.29847e-05
7.04901e-05
8.43785e-05
8.76294e-05
8.47904e-05
9.08589e-05
8.36228e-05
9.05825e-05
7.07951e-05
9.14125e-05
9.16553e-05
8.80116e-05
8.9573e-05
7.57867e-05
7.1131e-05
8.491e-05
7.16733e-05
8.8624e-05
8.58387e-05
6.96951e-05
8.13729e-05
9.06081e-05
8.94317e-05
7.01818e-05
7.7799e-05
6.97446e-05
9.16119e-05
7.26048e-05
8.91487e-05
8.00514e-05
7.37337e-05
8.96988e-05
9.06089e-05
9.1332e-05
8.84283e-05
7.32559e-05
8.56136e-05
9.21096e-05
7.53614e-05
8.98798e-05
8.83451e-05
9.02507e-05
7.14148e-05
8.81619e-05
8.13617e-05
8.7194e-05
8.16297e-05
8.37646e-05
8.02304e-05
8.12913e-05
8.23378e-05
8.12121e-05
8.81661e-05
8.43432e-05
9.08788e-05
7.71776e-05
8.43629e-05
8.6525e-05
8.90718e-05
9.08603e-05
7.32492e-05
8.83604e-05
7.34043e-05
8.29046e-05
9.12838e-05
9.17209e-05
8.39285e-05
8.38927e-05
8.87469e-05
8.01944e-05
8.39025e-05
8.30813e-05
7.34237e-05
7.23511e-05
8.69284e-05
9.03578e-05
8.41452e-05
8.10647e-05
9.04706e-05
7.3553e-05
8.7117e-05
7.37411e-05
8.56444e-05
9.11046e-05
8.5691e-05
7.17618e-05
9.02945e-05
7.31403e-05
8.76026e-05
8.92721e-05
7.1628e-05
9.10979e-05
7.5703e-05
7.99438e-05
8.23735e-05
7.08597e-05
7.81322e-05
8.2033e-05
6.85024e-05
8.97731e-05
9.25278e-05
6.92949e-05
7.92124e-05
8.88273e-05
8.71338e-05
8.6616e-05
9.24578e-05
9.00102e-05
8.41644e-05
7.7841e-05
7.20755e-05
6.91549e-05
7.32972e-05
9.11377e-05
8.90797e-05
8.57189e-05
8.67432e-05
7.23782e-05
7.32688e-05
8.37282e-05
8.9674e-05
6.85293e-05
8.64906e-05
8.50714e-05
8.2966e-05
8.81522e-05
8.19334e-05
8.98513e-05
7.7615e-05
8.26301e-05
9.28651e-05
6.72425e-05
8.5153e-05
9.05922e-05
9.02062e-05
8.56612e-05
8.94984e-05
8.70898e-05
7.17997e-05
9.21427e-05
9.27827e-05
8.44905e-05
8.6353e-05
8.18747e-05
8.47821e-05
8.83045e-05
8.77718e-05
8.60705e-05
8.50104e-05
8.29765e-05
7.15384e-05
8.16864e-05
9.1615e-05
8.88996e-05
9.1811e-05
8.68467e-05
8.43777e-05
9.17807e-05
7.45503e-05
8.98075e-05
7.27832e-05
9.14796e-05
8.67338e-05
8.04805e-05
9.19913e-05
8.00001e-05
8.23228e-05
9.17249e-05
8.1124e-05
9.22316e-05
9.03313e-05
8.85093e-05
7.37522e-05
8.57174e-05
8.44585e-05
7.83013e-05
8.97247e-05
8.307e-05
8.3972e-05
9.24566e-05
7.30634e-05
8.9831e-05
8.58733e-05
9.02754e-05
8.15194e-05
8.60187e-05
7.36133e-05
7.63684e-05
9.39822e-05
7.33773e-05
8.5691e-05
8.98688e-05
7.37535e-05
8.28349e-05
9.03871e-05
7.89222e-05
7.51926e-05
7.77191e-05
8.14524e-05
8.04194e-05
9.10435e-05
8.2015e-05
9.1505e-05
8.78298e-05
9.05108e-05
7.16301e-05
7.88846e-05
9.07331e-05
8.46041e-05
7.32144e-05
7.57358e-05
8.30854e-05
7.17257e-05
7.20915e-05
8.4694e-05
8.36207e-05
9.02949e-05
8.26893e-05
8.97718e-05
9.03899e-05
8.9263e-05
8.9033e-05
8.78865e-05
7.9272e-05
8.09434e-05
8.83775e-05
8.38736e-05
8.18123e-05
9.07598e-05
8.43622e-05
7.17397e-05
7.14995e-05
8.16763e-05
7.24413e-05
8.67927e-05
8.96865e-05
8.05766e-05
8.80918e-05
8.93721e-05
8.93186e-05
9.22013e-05
8.34384e-05
7.42231e-05
8.17218e-05
8.16484e-05
9.0117e-05
8.0891e-05
8.77513e-05
9.11405e-05
8.13993e-05
8.09046e-05
8.67417e-05
9.04593e-05
8.82514e-05
9.47014e-05
8.95545e-05
8.30106e-05
8.4492e-05
7.62514e-05
8.19162e-05
9.04158e-05
7.65541e-05
9.03571e-05
8.20017e-05
8.94436e-05
7.35383e-05
8.85398e-05
8.55989e-05
9.01879e-05
8.47528e-05
8.51678e-05
8.51528e-05
8.924e-05
7.15079e-05
7.58096e-05
8.46644e-05
7.99831e-05
8.36899e-05
8.60584e-05
8.557e-05
9.11588e-05
8.62554e-05
7.23897e-05
7.93187e-05
7.3224e-05
8.4232e-05
8.56769e-05
7.49126e-05
9.30691e-05
8.48492e-05
8.17674e-05
8.72509e-05
7.72474e-05
7.50466e-05
9.12335e-05
7.43323e-05
7.06931e-05
7.63397e-05
7.75408e-05
7.54821e-05
7.78239e-05
9.04438e-05
8.93369e-05
8.02062e-05
8.71881e-05
8.93615e-05
8.51762e-05
8.79952e-05
7.10457e-05
9.04012e-05
6.05855e-05
8.94848e-05
7.33655e-05
7.20866e-05
8.9725e-05
7.13882e-05
8.23461e-05
8.60865e-05
9.00352e-05
8.06147e-05
8.56712e-05
7.99152e-05
8.42867e-05
8.2197e-05
8.567e-05
8.37085e-05
8.83074e-05
8.43741e-05
7.39497e-05
8.84599e-05
8.31865e-05
8.28733e-05
7.84596e-05
7.53746e-05
7.92088e-05
7.12165e-05
7.15891e-05
8.53933e-05
8.21653e-05
7.55882e-05
8.08112e-05
8.9994e-05
9.01321e-05
8.96395e-05
6.17617e-05
7.25866e-05
9.12044e-05
7.33383e-05
8.91024e-05
7.13098e-05
9.0229e-05
8.94617e-05
9.09937e-05
7.33191e-05
8.30483e-05
9.15021e-05
9.1174e-05
8.56345e-05
9.12871e-05
8.44446e-05
8.55948e-05
8.41488e-05
7.242e-05
8.57372e-05
7.98346e-05
8.57749e-05
8.55174e-05
7.86532e-05
8.33116e-05
8.99214e-05
7.85106e-05
7.71745e-05
7.32225e-05
8.75222e-05
8.78368e-05
7.079e-05
8.52943e-05
8.48043e-05
8.68373e-05
7.43396e-05
8.62476e-05
8.21212e-05
9.10335e-05
7.04989e-05
8.2965e-05
8.45124e-05
7.04051e-05
8.95199e-05
7.44871e-05
7.5885e-05
8.58893e-05
9.08433e-05
6.95645e-05
8.90989e-05
8.74998e-05
8.15607e-05
7.10432e-05
9.08123e-05
9.02679e-05
6.98995e-05
8.48565e-05
6.91882e-05
7.50461e-05
9.02232e-05
8.17936e-05
8.67029e-05
9.05858e-05
9.06627e-05
8.21037e-05
7.96281e-05
8.43759e-05
8.30064e-05
8.38272e-05
7.99472e-05
8.86602e-05
7.23993e-05
8.24074e-05
8.28076e-05
8.22224e-05
8.80505e-05
8.32317e-05
8.70808e-05
8.74868e-05
8.47056e-05
9.07626e-05
8.63074e-05
8.17728e-05
7.89918e-05
8.75172e-05
8.20245e-05
8.12251e-05
8.72831e-05
9.04889e-05
8.62434e-05
9.01022e-05
8.14404e-05
8.8209e-05
7.89015e-05
7.39491e-05
8.46466e-05
8.7316e-05
7.46892e-05
8.63738e-05
8.40866e-05
6.84753e-05
7.11981e-05
8.93923e-05
7.0301e-05
8.38743e-05
8.98217e-05
8.5769e-05
7.38391e-05
8.68069e-05
9.20325e-05
7.31389e-05
7.38426e-05
7.45441e-05
8.96379e-05
8.50489e-05
8.5146e-05
9.20951e-05
7.20401e-05
8.76418e-05
8.47441e-05
9.0852e-05
9.20888e-05
6.20021e-05
8.46824e-05
8.82879e-05
8.97341e-05
8.54171e-05
8.26225e-05
7.33213e-05
8.76847e-05
9.0566e-05
7.80049e-05
7.11648e-05
8.13098e-05
8.90552e-05
8.67812e-05
7.28788e-05
8.25278e-05
8.82171e-05
8.98694e-05
8.36353e-05
8.25014e-05
7.02566e-05
7.34259e-05
7.30296e-05
8.58786e-05
8.29862e-05
8.44679e-05
9.07404e-05
9.01527e-05
7.2688e-05
8.92251e-05
8.97776e-05
8.70604e-05
7.99988e-05
8.93683e-05
8.24385e-05
7.38661e-05
7.91003e-05
8.54429e-05
8.50771e-05
7.9176e-05
8.55275e-05
8.25371e-05
8.91885e-05
7.45706e-05
7.22454e-05
8.31563e-05
9.06875e-05
8.88899e-05
8.13877e-05
8.20205e-05
8.98702e-05
9.07447e-05
8.1998e-05
7.99399e-05
8.8941e-05
9.02842e-05
8.69862e-05
9.06336e-05
8.93436e-05
8.65088e-05
7.14761e-05
8.05577e-05
7.25723e-05
8.70027e-05
9.01379e-05
8.04659e-05
7.28628e-05
9.16377e-05
7.36276e-05
8.06322e-05
7.64201e-05
8.34746e-05
7.16619e-05
8.72255e-05
8.48481e-05
8.40579e-05
8.41133e-05
7.58515e-05
9.09355e-05
7.48546e-05
8.67292e-05
8.3741e-05
8.41266e-05
7.33662e-05
8.92458e-05
8.74038e-05
7.25635e-05
7.73709e-05
8.28485e-05
8.17628e-05
8.65302e-05
6.70701e-05
8.72229e-05
8.09032e-05
8.50967e-05
7.88056e-05
7.96656e-05
7.94542e-05
6.82312e-05
9.00522e-05
8.19174e-05
4.60847e-05
7.28485e-05
8.40035e-05
9.00994e-05
8.8051e-05
7.53378e-05
7.27734e-05
8.83119e-05
7.21788e-05
8.86512e-05
9.038e-05
8.51073e-05
7.5275e-05
8.89964e-05
7.15113e-05
7.1711e-05
7.08055e-05
8.77216e-05
8.41173e-05
8.07213e-05
9.04365e-05
8.61104e-05
8.6051e-05
7.55909e-05
6.79085e-05
9.07769e-05
8.50536e-05
9.16589e-05
8.93346e-05
7.36597e-05
8.43211e-05
8.45903e-05
8.14024e-05
8.47714e-05
7.95931e-05
8.14361e-05
9.5227e-05
8.63715e-05
8.04696e-05
7.33836e-05
8.61222e-05
8.429e-05
8.72977e-05
8.12352e-05
7.19194e-05
7.45616e-05
8.53065e-05
8.68591e-05
8.10375e-05
8.93719e-05
7.88948e-05
8.69627e-05
8.07134e-05