/*--------------------------------*- C++ -*----------------------------------*\
| =========                 |                                                 |
| \\      /  F ield         | OpenFOAM: The Open Source CFD Toolbox           |
|  \\    /   O peration     | Version:  2212                                  |
|   \\  /    A nd           | Website:  www.openfoam.com                      |
|    \\/     M anipulation  |                                                 |
\*---------------------------------------------------------------------------*/
FoamFile
{
    version     2.0;
    format      ascii;
    arch        "LSB;label=32;scalar=64";
    class       volScalarField;
    location    "0.012";
    object      p;
}
// * * * * * * * * * * * * * * * * * * * * * * * * * * * * * * * * * * * * * //

dimensions      [0 2 -2 0 0 0 0];

internalField   nonuniform List<scalar> 
31639
(
0.0176447
0.0123214
0.020189
0.00905922
0.0124078
0.0174098
0.0193395
0.018475
0.0131996
0.0112324
0.0192586
0.0125123
0.0129563
0.0169281
0.0147663
0.0206312
0.0238898
0.0244377
0.0040478
0.0187561
0.0136629
0.0105295
0.014403
0.00895103
0.0154465
0.018345
0.0178264
0.0560224
0.0185488
0.0185215
0.00996218
0.0263843
0.013148
0.00721417
0.0320665
0.0184738
0.0106599
0.0191534
0.0191917
0.0158011
0.0126607
0.0179916
0.0141088
0.0196517
0.020198
0.00848655
0.0126103
0.0100044
0.0214878
0.00908363
0.00838482
0.00679708
0.0324659
0.019971
0.0065577
0.0244567
0.0108301
0.017851
0.0123551
0.00860939
0.00946963
0.0181014
0.0149536
0.0183872
0.0323748
0.00529097
0.00329831
0.0102505
0.0127137
0.00800572
0.0114528
0.0241277
0.0110769
0.00469039
0.0327988
0.0260645
0.0114267
0.0105509
0.012238
0.011522
0.0175496
0.016837
0.0165459
0.00930707
0.0164516
0.0152742
0.0141831
0.00998322
0.00311885
0.013174
0.00754533
0.023926
0.00890275
0.0118791
0.005671
0.0177815
0.00965801
0.00682157
0.012848
0.0170444
0.0303195
0.0303453
0.0154457
0.0117489
0.00656041
0.0081849
0.017183
0.0087898
0.0100598
0.0156497
0.0193178
0.0169433
0.0180193
0.0105989
0.00473696
0.0188805
0.0320871
0.0198663
0.0304357
0.0095274
0.026594
0.00828545
0.00426246
0.00911283
0.0172134
0.016841
0.0122041
0.00920666
0.0112672
0.0135719
0.0318842
0.00138607
0.0204114
0.00482745
0.00573582
0.0102857
0.010763
0.0118068
0.00847096
0.00945238
0.00939585
0.0138711
0.0150975
0.00865927
0.0126924
0.016492
0.0307744
0.0107026
0.0158979
0.0327538
0.00966216
0.0219647
0.00692724
0.00620355
0.00797999
0.00620301
0.00451491
0.0114158
0.0216047
0.01021
0.00561543
0.024055
0.0107572
0.0179628
0.0257102
0.0257587
0.0199489
0.0224619
0.00705092
0.00491844
0.022761
0.0170278
0.0229001
0.0130784
0.0162506
0.0111335
0.0147601
0.0265043
0.0103423
0.0155573
0.0129969
0.0212849
0.0180835
0.0188951
0.0189473
0.0183321
0.0222343
0.0155812
0.0170082
0.0209338
0.0212503
0.0112258
0.0216283
0.00667094
0.00748087
0.00779921
0.00758875
0.01202
0.00774682
0.0190917
0.0160902
0.0242879
0.0212699
0.0224605
0.0109894
0.00930276
0.0038756
0.00656025
0.0270608
0.00749188
0.0073687
0.0157892
0.0304235
0.0163731
0.019621
0.0165178
0.016638
0.0164424
0.0229892
0.0123939
0.0128214
0.0156888
0.0166181
0.0230403
0.0200289
0.0114425
0.0207475
0.0202047
0.0143281
0.0262781
0.00690453
0.0190197
0.0241041
0.0209128
0.0215837
0.00370058
0.00347137
0.0219185
0.0180481
0.00654015
0.00936822
0.0197792
0.0229619
0.0215613
0.00956741
0.0247345
0.00731505
0.0256741
0.0209076
0.00381008
0.00109481
0.00851895
0.021427
0.0246538
0.011957
0.0128152
0.0178486
0.00555585
0.017665
0.0203879
0.00854521
0.00691226
0.0119939
0.016926
0.0121488
0.0164123
0.00274672
0.0310715
0.0195073
0.0174919
0.0396884
0.00808032
0.0177777
0.0219576
0.0105565
0.0208107
0.00758259
0.0230784
0.0101936
0.00848281
0.0258385
0.0265418
0.026508
0.0350249
0.018972
0.0189694
0.0231216
0.0221246
0.0042386
0.0211893
0.0237324
0.00191928
0.00688059
0.00691757
0.020021
0.00595613
0.0240174
0.00326742
0.00948246
0.0108545
0.0101379
0.0229632
0.00732323
0.00667807
0.0147535
0.00589561
0.016908
0.003959
0.014241
0.0231718
0.00982866
0.038712
0.0310561
0.0137473
0.0127099
0.0178569
0.00342427
0.026846
0.0207741
0.0204459
0.0197163
0.00825507
0.0299536
0.00628827
0.0161501
0.02199
0.0197001
0.0220985
0.00712291
0.0082542
0.00851871
0.00905247
0.0232985
0.00676687
0.024238
0.0322431
0.0329401
0.0102059
0.022526
0.0252388
0.00574721
0.00282702
0.0245808
0.00523423
0.00735478
0.0228381
0.00641181
0.0201537
0.0199541
0.0300263
0.0111865
0.0230615
0.0111756
0.0212791
0.0065783
0.00869707
0.00735066
0.0147621
0.0150217
0.0219504
0.0241467
0.0149124
0.038592
0.00429029
0.0103179
0.00939337
0.00504679
0.0149184
0.0159859
0.0221622
0.014481
0.0271121
0.0170512
0.00801371
0.00536402
0.00901969
0.031104
0.0259683
0.0217689
0.027032
0.0205632
0.00679429
0.0100593
0.00677686
0.00621361
0.00590046
0.00723169
0.0124883
0.00085787
0.0247158
0.00379079
0.0274853
0.00735306
0.0230395
0.00644143
0.0234483
0.0247575
0.0188574
0.00911734
0.0363684
0.0244239
0.0191441
0.0184288
0.00625843
0.0216957
0.00342945
0.00961315
0.00969752
0.0100555
0.0189709
0.00833162
0.00974301
0.0214936
0.0398382
0.0198337
0.0217491
0.0159198
0.0170343
0.0152902
0.0126798
0.0122587
0.0300092
0.0145258
0.00138044
0.0216756
0.0393968
0.0140128
0.0293892
0.0170183
0.0201776
0.00890097
0.00733726
0.0230302
0.00843215
0.0183659
0.0184131
0.0223739
0.00552818
0.00680594
0.0239353
0.0101575
0.00370474
0.00436685
0.0166168
0.00576745
0.0103067
0.0108396
0.0250498
0.0245045
0.0265366
0.0250105
0.0218148
0.010666
0.0223472
0.0100442
0.0238772
0.0267934
0.00830566
0.021937
0.00920611
0.018032
0.0257585
0.0171651
0.00458316
0.0210424
0.0586
0.00457114
0.0138386
0.00936795
0.0204483
0.0026625
0.00718713
0.00848968
0.00718077
0.0223305
0.00180688
0.0142885
0.0289394
0.0127632
0.0148131
0.00864998
0.0312547
0.00560591
0.0117088
0.029993
0.0385988
0.014036
0.0201018
0.0163786
0.0109039
0.0085128
0.00660422
0.0262061
0.00309423
0.017431
0.0167272
0.0157945
0.00476064
0.0072076
0.0252779
0.0285851
0.00379843
0.00421326
0.00469625
0.00272176
0.0337447
0.00974184
0.00402356
0.026995
0.0299624
0.0267926
0.00574416
0.024166
0.0224867
0.025492
0.00291622
0.0299634
0.0300792
-0.000232616
0.0260172
0.0251451
0.0261514
0.0167045
0.0279368
0.00133641
0.00457414
0.0252153
0.00385242
0.00470299
0.00785091
0.01906
0.0128187
0.0234266
0.00157247
0.00840414
0.0134121
0.0281952
0.00180167
0.0222603
0.00338353
0.0389309
0.0394396
0.0093548
0.0563446
0.00961671
0.0095738
0.0155883
0.01592
0.0110004
0.0151797
0.0405371
0.0111424
0.0219494
0.000968513
0.00996046
0.0154312
0.00881398
0.0250482
0.0018872
0.00602285
0.0150798
0.00550781
0.0137464
0.0140479
0.00752164
0.031593
0.00545208
0.00396103
0.000770021
0.0176569
0.0287593
0.00439614
0.000919284
0.00526796
0.00591718
0.00458184
0.0267752
0.000105143
0.0019159
0.00130591
0.0240509
0.00301905
0.0251541
0.0258504
0.0269021
0.00803672
0.000285812
0.000565975
0.00406155
0.00114901
0.0165535
0.00143228
0.0165531
0.0262608
0.00226152
0.00964309
0.012946
0.0313831
0.0290071
0.0228728
0.010987
0.00529471
0.0301836
0.0259965
0.00242161
0.00263934
0.0112895
0.0188874
0.00787798
0.001778
0.000246894
0.00132917
0.0251278
0.0210065
0.00970668
0.0575516
0.0207302
0.0160287
0.0111423
0.0172811
0.0222718
0.0221526
0.0154459
0.00989874
0.012495
0.0129177
0.0210673
0.00478809
0.015117
0.00180097
0.016504
0.038218
0.0264675
0.0246654
0.0182054
0.0145029
0.0348895
0.0162735
0.0195253
0.00850491
0.0309168
0.029142
0.00431593
0.0159623
0.0181228
0.000418187
0.0353656
0.00972105
0.00170379
0.00476997
0.00264301
0.0314111
0.0286528
0.0292728
0.00440536
0.000291956
0.0248448
0.0167365
0.0262655
0.0270361
0.0269821
0.00172611
0.000322396
0.0257229
0.0222946
0.0230071
0.0271749
0.00154383
0.00974178
0.0396331
0.00564968
0.00314173
0.0278697
0.0157769
0.00675566
0.0253885
0.0250304
0.0203019
0.0118491
0.00778188
0.0184972
0.010586
0.0006311
0.00106036
0.00208996
0.00787057
0.00303141
0.0314329
0.0112676
0.000788075
0.000901689
0.0240998
0.00856792
0.00106687
0.0584904
0.00794561
0.00951481
0.0126704
0.0143681
0.0122407
0.0155993
0.0148048
0.0098654
0.011317
0.0163962
0.0103678
0.00968297
0.0110565
0.0146258
0.0277414
0.0157509
0.0149186
0.0243836
0.031486
0.0265921
0.00751029
0.0146538
0.00422143
0.016544
0.032502
0.00122702
0.00303333
0.00264195
0.00847273
0.00977444
0.0241804
0.0230398
0.00697398
0.002816
0.0188934
0.0313207
0.00089095
0.025812
0.0101893
0.0236693
0.0219019
0.0228899
0.0296449
0.0275885
0.0354631
0.0251644
0.0211205
0.0264296
0.02374
0.0245253
0.00884899
0.0309063
0.00873235
0.00232062
0.00587077
0.0239729
0.000258185
0.0199321
0.0047488
0.0065981
0.0199214
0.0120323
0.0296849
0.00561643
0.0209039
0.00678058
0.0342916
0.00992517
0.0011076
0.00152455
0.028035
0.0187056
0.00121662
0.00310534
0.00187626
0.00608964
0.000757543
0.000435885
0.0236696
0.0228496
0.000398293
0.0228935
0.0203809
0.0245127
0.0134807
0.0134023
0.0108131
0.0173273
0.0180329
0.00847042
0.00134524
0.0158359
0.0217066
0.0160361
0.0297429
0.0265108
0.0158497
0.0256444
0.00989805
0.0397277
0.00466316
0.0260932
0.0155608
0.000285409
0.0177297
0.00455437
0.00933032
0.003965
0.00407859
0.0200131
0.0281459
0.00700983
0.0250509
0.00110111
0.0013246
0.00109511
0.0328742
0.0329257
0.0313667
0.0337551
0.0279035
0.0258062
0.0087162
0.00577483
0.00965399
0.00249823
0.0184151
0.00824166
0.0218049
0.0119898
0.00953738
0.00303496
-1.69591e-05
0.00701261
0.00375727
0.0293084
0.0127826
0.00695528
0.00664223
0.0123093
0.00131046
0.020612
0.00671521
0.0257993
0.00491693
0.0034044
0.0170295
0.017013
0.026112
0.0311131
0.0273534
0.0209324
0.0118248
0.0128314
0.0248468
0.00032354
0.00130806
0.0244017
0.0248933
1.01569e-05
0.000682716
0.00364677
0.0245921
0.00671426
0.0149882
0.0317389
0.0307687
0.0157329
0.0369197
0.0118733
0.0103588
0.010622
0.00697124
0.00430781
0.0258576
0.00439184
0.0158429
0.0191745
0.0292402
0.00926012
0.0105798
0.0100878
0.0235497
0.0238744
0.0239531
0.0338722
0.0031675
0.0274046
0.0270854
0.027634
0.0150517
0.000552289
0.0323139
0.0334367
0.0308465
0.0182182
0.0191885
0.0210235
0.0196392
0.0232836
0.0179746
0.000748709
0.0246164
0.0114437
0.00799042
0.0250033
0.00187888
0.00114463
0.00435681
0.00401846
0.0300071
0.0120979
0.00445363
0.00625794
0.0108517
0.0222182
0.0104538
0.00960329
0.0201315
0.014058
0.000619782
0.025846
0.0164129
0.027025
0.0137709
0.00283988
0.0210873
0.0209349
0.00105336
0.0121094
0.0112651
0.000901569
0.00109276
0.0255779
0.0294051
0.0118906
0.0152883
0.00179097
0.027272
0.0339027
0.0283761
0.0196436
0.00915396
0.0263083
0.0199892
0.0107029
0.0147225
0.00826365
0.0082526
0.0133651
0.0251907
0.0046014
0.0163728
0.0104541
0.00946069
0.000377847
0.0280445
0.0111205
0.0290153
0.00801192
0.023784
0.0274838
0.0136379
0.0137706
0.0287032
0.0232398
0.0260594
0.0101402
0.0117434
0.023092
0.0220663
0.0174847
0.01845
0.0269118
0.0275559
0.0361226
0.0213274
0.0240527
0.0015733
0.00112277
0.0246211
0.0224973
0.0115263
0.0266279
0.00386633
0.0189065
0.0209661
0.0262652
0.00327151
0.0269778
0.0245503
0.0291922
0.0277274
0.0290187
0.013759
0.0249684
0.0110984
0.0190877
0.0186296
0.0177424
0.0301412
0.0279783
0.0270788
0.0228927
0.0124801
0.0163154
0.0179174
0.0274995
0.0176786
0.000180202
0.0286813
0.0314964
0.0149133
0.012695
0.00522864
0.00393678
0.0104989
0.0278426
0.00871528
0.00941559
0.0341839
0.0140423
0.00521075
0.00726965
0.000683372
0.0133993
0.0151462
0.0137505
0.0255656
0.000985599
0.0296095
0.00255606
0.0288378
0.0278764
0.0339958
0.013182
0.0134451
0.0115713
0.0216274
0.0191879
0.0225821
0.0345971
0.0252498
0.0267567
0.017643
0.0215243
0.0128184
0.0225145
0.0196562
0.00429064
0.0037872
0.0159616
0.00141947
0.011353
0.0297925
0.0313918
0.00579314
0.0289105
0.0189403
0.030366
0.0165713
0.0171408
0.00239824
0.0012684
0.0221374
0.0199642
0.00968712
0.0127696
0.0119901
0.0185429
0.0129033
0.0250453
0.0269638
0.0343881
0.0264658
0.0285963
0.0173937
0.0122569
0.0143489
0.00124525
0.00240946
0.00475199
0.0126381
0.0113559
0.019984
0.0117403
0.02098
0.023739
0.0262685
0.0121684
0.00772954
0.0352909
0.0186084
0.0314527
0.0310665
0.0139217
0.0317895
0.00335875
0.0265233
0.00813369
0.0152633
0.00611619
0.0118588
0.0130579
0.0301496
0.0305445
0.000915795
0.0275584
0.0327581
0.0375929
0.0122936
0.0231717
0.0266221
0.0270675
0.0108839
0.0117601
0.0250316
0.0377847
0.0249442
0.00460884
0.0221082
0.0370007
0.021473
0.0213239
0.0206276
0.0101729
0.0310762
0.0267746
0.0312667
0.00280043
0.0221572
0.00192037
0.0186089
0.0263231
0.00561524
0.0263458
0.00803479
0.0251785
0.0342486
0.0148573
0.000718476
0.0166448
0.0180066
0.00107871
0.0111106
0.0114007
0.0177968
0.0129264
0.0360699
0.0288653
0.0113773
0.0112436
0.0279468
0.0157513
0.0265896
0.0350126
0.027176
0.00110071
0.000992325
0.0286809
0.024898
0.0175599
0.0193595
0.0223007
0.0184495
0.0191665
0.031151
0.0274777
0.0329587
0.0247423
0.021721
0.00319478
0.0318284
0.00420097
0.0120468
0.029664
0.0317624
0.0257076
0.0134468
0.0119589
0.000631705
0.0277262
0.0173848
0.029415
0.0161825
0.031048
0.0329679
0.0208319
0.0222661
0.013334
0.00652935
0.0359684
0.0172408
0.0221395
0.0170875
0.0158648
0.0228861
0.036388
0.0210694
0.0199413
0.0391435
0.00344497
0.0307476
0.0190255
0.0378492
0.0197495
0.0158584
0.030604
0.0312097
0.00571047
0.0118071
0.00661114
0.00798397
0.0269828
0.0143313
0.0156201
0.000651
0.0125624
0.0454391
0.0128303
0.0134663
0.0184972
0.0190694
0.0180874
0.0284805
0.0291183
0.0212229
0.0113274
0.0288295
0.0162197
0.0299549
0.0268928
0.0270311
0.0298198
0.0304474
0.0280282
0.010781
0.000961361
0.031927
0.00974486
0.0337251
0.0374812
0.0351042
0.0128596
0.0320789
0.0215897
0.00347491
0.00286039
0.00468194
0.0287358
0.0298089
0.0295863
0.0274266
0.0327206
0.0133157
0.0112098
0.0299744
0.0334111
0.0159607
0.0296376
0.0317687
0.0211341
0.0123298
0.0360943
0.0321748
0.0277964
0.0225893
0.0287832
0.0234518
0.03106
0.00267441
0.0233146
0.0277509
0.0318212
0.0228125
0.0300721
0.0152086
0.0380509
0.0239271
0.00329226
0.0288829
0.00696451
0.000302818
0.00657209
0.022769
0.0193632
0.0224545
0.0287332
0.0312437
0.0120151
0.0248349
0.0142231
0.0194023
0.0182359
0.0180684
0.011134
0.0293785
0.0198562
0.0204969
0.0292083
0.0206888
0.0102976
0.00992661
0.0206313
0.0216506
0.0197082
0.0274723
0.0280253
0.00164687
0.0194223
0.0292092
0.0279675
0.0202383
0.0206734
0.0170025
0.0210971
0.0368452
0.00179533
0.0101643
0.0305648
0.00476117
0.0135921
0.0146448
0.0139994
0.0342435
0.0361856
0.00449768
0.0369773
0.0329023
0.0236591
0.023567
0.0334526
0.0243993
0.0309948
0.0290278
0.00591788
0.0130302
0.0351817
0.000617667
0.000965655
0.0336186
0.0313295
0.00543964
0.0332099
0.0244472
0.0215302
0.013987
0.0315483
0.0308858
0.0112381
0.0292299
0.0271841
0.0239676
0.0214159
0.0014039
0.00232906
0.00159448
0.0245815
0.0281833
0.0181058
0.0321654
0.0355218
0.0175478
0.0156858
0.0110382
0.00658227
0.0389292
0.000257766
0.00450061
0.0141673
0.00174882
0.000452776
0.000820929
0.015058
0.0110627
0.00144172
0.0485661
0.0305837
0.0232832
0.0358167
0.0200681
0.0384133
0.00627505
0.0124282
0.0129612
0.0370096
0.0370215
0.0200988
0.0105488
0.0211524
0.0190751
0.024905
0.0230876
0.0241071
0.0280645
0.00223374
0.0299188
0.0303003
0.0304948
0.0297396
0.0249358
0.0246108
0.0189851
0.017409
0.0319591
0.0278065
0.00903979
0.00707771
0.0188587
0.0269243
0.0358909
0.00888106
0.0101067
0.0106416
0.0268345
0.0338312
0.0355969
0.0349203
0.00291058
0.00168354
0.0332721
0.0011067
0.0327363
0.0339928
0.00695283
0.00959931
0.00429303
0.0318881
0.0121709
0.0279905
0.0220287
0.022179
0.0343383
0.0349945
0.0158246
0.0384125
0.0380272
0.0259135
0.0238758
0.000229529
0.000960896
0.0264526
0.024034
0.0290359
0.037664
0.057197
0.0383678
0.0301548
0.0383985
0.0304709
0.00386132
0.0281013
0.0323883
0.00441102
0.030289
0.00746729
0.000906325
0.0297487
0.00117602
0.0139776
0.0151478
0.0149712
0.0137927
0.000640767
0.00299184
0.00964527
0.0363993
0.033932
0.0246692
0.0146697
0.018593
0.0117964
0.0148351
0.0108945
0.0142497
0.0139972
0.0126725
0.0260593
0.0222861
0.0299657
0.0222076
0.0299497
0.00217803
0.0292796
0.0015504
0.0387499
0.0303271
0.0197825
0.0250149
0.012161
0.0159017
0.00552045
0.00420449
0.00977106
0.00662747
0.0179617
0.0293476
0.0137595
0.0230212
0.0210185
0.00845945
0.0207339
0.0362812
0.002023
0.00475765
0.00195032
0.0239419
0.034134
0.0275932
0.0089769
0.00718781
0.0335445
0.00442697
0.0337683
0.0320706
0.0582593
0.0338357
0.0334935
0.0382631
0.0358262
0.0344504
0.026881
0.00698466
0.027823
0.00662859
0.0284413
0.0295658
0.000120453
0.0360836
0.0168691
0.00339651
0.0283849
0.0356254
0.0279608
0.0320768
0.0279848
0.014196
0.0173307
0.026915
0.0303392
0.0331791
0.0355904
0.00114357
0.0048005
0.0227224
0.0300628
0.028196
0.0250177
0.0261872
0.0018772
0.0250498
0.0134857
0.0142239
0.0137642
0.0120669
0.016011
0.0192676
0.000838385
0.0306524
0.0319071
0.0271283
0.00176151
0.031756
0.0193535
0.0203586
0.0230856
0.0240023
0.02806
0.0219773
0.0494023
0.00572041
0.0199641
0.0309704
0.0239478
0.0239977
0.00472593
0.0219673
0.0340007
0.038411
0.0280406
0.0129101
0.0330714
0.0118974
0.0220389
0.0351622
0.037189
0.0220936
0.0375183
0.0370854
0.0369788
0.0344255
0.0233601
0.0358649
0.0339327
0.0296055
0.0133724
0.0267763
0.0105628
0.00309145
0.0275099
0.0087013
0.0348642
0.0355417
0.0346289
0.0322962
0.0204912
0.0324345
0.0366599
0.0115427
0.00810015
0.0159563
0.0392893
0.0268242
0.0259052
0.00673836
0.00595466
0.0308546
0.00196444
0.0188785
0.0385509
0.0330653
0.028274
0.0290861
0.017522
0.015474
0.0041709
0.0300178
0.00052518
0.0110058
0.0334648
0.00157695
0.00421376
0.00641109
0.00861514
0.00512936
0.0238408
0.0265221
0.0310151
0.0203837
0.0125536
0.0449599
0.0125496
0.014487
0.0154027
0.0322857
0.029153
0.0366029
0.0330101
0.0105551
0.0184371
0.0180234
0.0179542
0.0209714
0.0253498
0.025492
0.0295949
0.0282369
0.0262047
0.0193136
0.0144123
0.0147937
0.00367538
0.0278142
0.033123
0.0118616
0.00493018
0.0497305
0.018814
0.0339266
0.0228292
0.0343886
0.041309
0.0266344
0.0120366
0.0102941
0.0221243
0.0364832
0.0350581
0.00914447
0.0389224
0.000509769
-8.60202e-05
0.0335753
0.0373571
0.0187807
0.0155215
0.031416
0.0081926
0.0350595
0.0377085
0.0152166
0.030777
0.0321491
0.0477715
0.00865887
0.0362108
0.0213202
0.0221443
0.0303736
0.0361669
0.00426117
0.0284717
0.0388453
0.0379046
0.0404348
0.00873772
0.0317493
0.0308135
0.00445884
0.0250703
0.0362371
0.025936
0.0037995
0.0113013
0.0239671
0.00783528
0.0261364
0.011309
0.00100311
0.00127754
0.0160277
0.00459701
0.0344741
0.0202186
0.008963
0.0154633
0.0358169
0.0358312
0.0317444
0.0331657
0.0352207
0.0204196
0.0037352
0.00770744
0.0176155
0.0300344
0.0301381
0.0309682
0.0313278
0.0215883
0.0210645
0.0190491
0.0261181
0.023222
0.023348
0.025161
0.038117
0.0274999
0.030068
0.0257092
0.0285288
0.028281
0.0143715
0.0277214
0.021696
0.0134066
0.0195263
0.0440695
0.0219737
0.0490294
0.0289153
0.00851853
0.0131731
0.0254111
0.041616
0.0234526
0.0221079
0.00997612
0.0290464
0.00109171
0.00259791
0.00059489
0.0360976
0.0358275
0.0363729
0.0187865
0.0393868
0.00705159
0.0373341
0.0377941
0.0363632
0.00390716
0.0415498
0.0366415
0.002918
0.0389237
0.0221389
0.0231168
0.0218523
0.0301959
0.0328692
0.0269757
0.0283889
0.029953
0.0186015
0.0180716
0.00473905
0.0378243
0.0298068
0.0340881
0.0259546
0.0330849
0.0370945
0.0138419
0.0355959
0.00370683
0.0265671
0.012569
0.00152759
0.000342627
0.0160276
0.0333002
0.0126887
0.0303497
0.0308694
0.0104217
0.0324305
0.0122593
0.0389348
0.0308951
0.0383792
0.0289207
0.0158156
0.0306241
0.0320016
0.0356238
0.0082412
0.0315018
0.0314001
0.0330227
0.0355228
0.0254184
0.0334331
0.0270315
0.00374754
0.0320205
0.00827284
0.0240397
0.0253277
0.0174336
0.0277414
0.04198
0.0212582
0.0197225
0.0206343
0.0144118
0.0269164
0.0101053
0.0179305
0.0329962
0.0157622
0.0310301
0.00939588
0.0333043
0.0277737
0.00874301
0.0235589
0.0347143
0.00924
0.0273667
0.0180275
0.00247549
0.000465232
0.00255657
0.0348769
0.0228792
0.02611
0.0199381
0.0195587
0.0348849
0.037903
0.0366234
0.0278882
0.0360863
0.0294676
0.0382839
0.020077
0.0389747
0.0386891
0.0386301
0.0374266
0.036441
0.00437623
0.0305279
0.0364668
0.0279467
0.0252035
0.0406083
0.0365151
0.0184389
0.0379339
0.00390294
0.0345077
0.0359986
0.0252907
0.0239966
0.0326384
0.034071
0.0325424
0.00166658
0.0380735
0.0287316
0.0108442
0.000726125
0.0376142
0.011643
0.00492847
0.00328142
0.000456484
0.0269581
0.00865892
0.0453703
0.0137776
0.0323699
0.0173859
0.0131654
0.0189271
0.0315505
0.0135765
0.0374185
0.0311519
0.0183989
0.0351871
0.0313568
0.0269966
0.042127
0.0284726
0.0361699
0.0233438
0.0390724
0.0231655
0.0229549
0.00488188
0.0291506
0.0278137
0.0294184
0.0339209
0.0248388
0.0391976
0.0293232
0.0284996
0.00404268
0.00887391
0.0393827
0.0208232
0.00777453
0.0210439
0.0520305
0.0126235
0.0406965
0.00947808
0.00180851
0.0155879
0.0162879
0.0144971
0.027015
0.0084542
0.0251152
0.0313259
0.0225045
0.00763307
0.00834336
0.0367977
0.00235766
0.0275101
0.0255841
0.0170784
0.034389
0.0410037
0.0178701
0.0343318
0.0320803
0.0284804
0.00056931
0.0276712
0.0309433
0.0365941
0.0374381
0.0423131
0.0392091
0.00495291
0.00328238
0.0396135
0.00483867
0.0354922
0.0380436
0.0353
0.00768191
0.0434036
0.016798
0.0315685
0.0379072
0.0341331
0.0351387
0.0337871
0.0321472
0.029429
0.0173677
0.0322772
0.0244023
0.00290712
0.0159707
0.0352962
0.0320674
0.0416257
0.0439784
0.00239479
0.0230144
0.0038084
0.00717771
0.0370098
0.00715194
0.00610745
0.0388731
0.00896268
0.015081
0.0225235
0.0373497
0.000439157
0.0367168
0.0315502
0.0175915
0.0361159
0.0382902
0.0198494
0.0361264
0.0292938
0.038932
0.0360183
0.0354585
0.0261446
0.0401775
0.0280591
0.00817816
0.00868556
0.0390288
0.0291296
0.0357012
0.0433391
0.0320814
0.0342546
0.0427489
0.00858471
0.0388928
0.0380246
0.0390322
0.0215186
0.0562469
0.00663487
0.0111547
0.0173688
0.0159838
0.0421439
0.0127611
0.0309365
0.0245484
0.0256687
0.0239451
0.00885194
0.0159555
0.0103372
0.0366029
0.00179817
0.0389453
0.039654
0.0403273
0.0190367
0.0333672
0.0499701
0.0310304
0.00284291
0.0355776
0.0121531
0.0150889
0.0410597
0.0192674
0.0405849
0.0411891
0.0275507
0.00453253
0.0365352
0.0351146
0.0364241
0.0272352
0.0359703
0.0359713
0.034714
0.0306206
0.0315442
0.0324396
0.0326066
0.0269005
0.0250415
0.00249657
0.0374729
0.0227447
0.024226
0.0265204
0.0135745
0.0113917
0.0451744
0.0351078
0.0321171
0.040923
0.0423153
0.0159489
0.00660764
0.0110298
0.0442822
0.0228949
0.0117364
0.0377895
0.0100042
0.0329386
0.0190193
0.00846925
0.0080944
0.0310438
0.0181237
0.033961
0.00145884
0.0299586
0.00326313
0.0323024
0.018641
0.0271047
0.0277348
0.0263869
0.0340414
0.0330247
0.0371605
0.0115955
0.0511357
0.0493074
0.0431862
0.0295854
0.0293825
0.0229848
0.0310397
0.0347472
0.0365473
0.0417642
0.000217804
0.0163262
0.0180145
0.0552755
0.0373585
0.00463492
0.038345
0.00489638
0.0220116
0.0251983
0.0154844
0.0113131
0.0434206
0.0349909
0.0120218
0.0237232
0.0448054
0.0153294
0.00957608
0.000848507
0.0219197
0.00328688
0.0403641
0.00957494
0.0427782
0.0510424
0.0130101
0.0356356
0.000507014
0.000541669
0.0124816
0.0413706
0.041291
0.0393673
0.034904
0.00268015
0.0269412
0.0577413
0.025938
0.034721
0.0331278
0.0344087
0.0349447
0.027682
0.0383397
0.0338103
0.0119582
0.00296859
0.00329346
0.00331879
0.0324513
0.0363022
0.0204397
0.0362552
0.00866622
0.00898202
0.0102053
0.0313174
0.0422799
0.0417458
0.0438764
0.0247323
0.0124565
0.0384355
0.0117769
0.0310627
0.0337279
0.0349763
0.0191288
0.03838
0.0174567
0.0317966
0.03301
0.0316027
0.0167648
0.0237329
0.0588034
0.0148372
0.00382474
0.0301636
0.0258017
0.0320759
0.0209255
0.0243931
0.026162
0.027896
0.0230845
0.0336176
0.0489502
0.0251825
0.037824
0.0174912
0.0309417
0.0236634
0.0298887
0.0323638
0.0307293
0.0414411
0.00598203
0.0407329
0.0268781
0.00129273
0.0177264
0.0426243
0.0380794
0.0227491
0.00542099
0.0344945
0.0125372
0.0439833
0.0125834
0.0356698
0.0337336
0.0398306
0.030126
0.0366596
0.025051
0.00423434
0.0328178
0.00381915
0.0399406
0.000442866
0.00133078
0.0085034
0.00311268
0.027359
0.00146211
0.0443063
0.0445959
0.0374077
0.0384648
0.0419829
0.0419967
0.0406032
0.0412124
0.0115755
0.0447302
0.0404722
0.0090294
0.0382975
0.0471552
0.026555
0.000258132
0.0368389
0.0401113
0.0345101
0.0320806
0.0361938
0.0431546
0.00419231
0.0380113
0.00186902
0.00107114
0.000228307
0.0330447
0.0234411
0.0102601
0.0193121
0.0376256
0.0554781
0.0263813
0.0343876
0.0353383
0.0429037
0.00344149
0.0583534
0.0395334
0.0115604
0.0281667
0.0137488
0.0295129
0.036395
0.0140014
0.0390767
0.0303991
0.0165984
0.0259373
0.0159561
0.0320225
0.0258926
0.0411394
0.0422173
0.0122021
0.0220313
0.0265774
0.0260025
0.035276
0.0498693
0.0180845
0.0351488
0.0268152
0.017836
0.0228557
0.0449097
0.0251718
0.0232943
-3.13698e-05
0.0476516
0.0467956
0.00160882
0.0384665
0.00299974
0.0289902
0.0441657
0.00668648
0.0408987
0.0409907
0.0434767
0.0417783
0.0335588
0.0344117
0.0376072
0.0103526
0.0361698
0.0125807
0.00339822
0.0192697
0.00526094
0.0342937
0.0372723
0.0159846
0.0160252
0.0194805
0.043611
0.00500155
0.0371954
0.0222814
0.0430431
0.0304497
0.0421425
0.0405462
0.0453563
0.0403503
0.00187116
0.026825
0.0401245
0.0279609
0.0364613
0.0351837
0.00742224
0.0421995
0.032068
0.0443572
0.000198596
0.0403887
0.0101951
0.0218261
0.00296706
0.0343555
0.0334403
0.0521583
0.0318079
0.010717
0.0394914
0.0377194
0.00125622
0.000856217
0.051522
0.035266
0.0123873
0.0572233
0.0141456
0.022231
0.0384531
0.000546143
0.00446197
0.0581642
0.0113102
0.0168277
0.0166839
0.0274474
0.0376301
0.0217842
0.015911
0.0383808
0.0432457
0.0401011
0.0373642
0.0220201
0.0376506
0.0264844
0.0162293
0.0331685
0.0326744
0.0266313
0.0300278
0.021857
0.0205246
0.0379623
0.039085
0.0396113
0.032992
0.0468525
0.0318062
0.033039
0.0310503
0.0325642
0.0393847
0.0283729
0.00639484
0.0429065
0.0415862
0.038693
0.00667941
0.0369842
0.0321135
0.0359965
0.0326901
0.0441093
0.0384808
0.00514028
0.0156749
0.0435729
0.0439937
0.0475171
0.00422322
0.0213211
0.0149269
0.0405456
0.0392074
0.0420735
0.0470802
0.0474516
0.0407878
0.0465875
0.0401715
0.0395939
0.025497
0.0419594
0.0355803
0.0465838
0.056318
0.0352326
0.032927
0.0582265
0.0291207
0.0208632
0.0434291
0.0239336
0.0465303
0.00141366
0.0362282
0.0223983
0.053766
0.0348441
0.0331149
0.0443767
0.0213874
0.00150362
0.0197126
0.0541863
0.000548557
-4.05442e-05
0.0356692
0.0140006
0.0150166
0.014825
0.010695
0.00911875
0.0101294
0.00838403
0.0160101
0.0414401
0.0464606
0.00485707
0.0417849
0.0370883
0.00386135
0.0349177
0.0428554
0.0434197
0.0245275
0.0301288
0.0231814
0.0424127
0.0240472
0.0371076
0.0329634
0.0245005
0.0340387
0.0416881
0.0236429
0.0232903
0.0337363
0.0331595
0.0280448
0.0453427
0.00543486
0.0476768
0.0288262
0.0248205
0.0273054
0.0428893
0.0188114
0.0145496
0.043169
0.0382036
0.0392009
0.0419433
0.0536588
0.0485566
0.0433704
0.0390897
0.0427252
0.04504
0.0435634
0.0270288
0.0456802
0.0437843
0.0127541
0.0391716
0.0290513
0.0456797
0.0378447
0.0449563
0.0226811
0.0404267
0.0285477
0.0332244
0.0420696
0.0455513
0.012467
0.0371426
0.0294989
0.0286185
0.0301429
0.0467003
0.0380176
0.0401597
0.000897725
0.0341262
0.000206332
0.0401117
0.00352072
0.0548621
0.0138852
0.02837
0.0112147
0.0108594
0.00977097
0.0367855
0.0400558
0.0276138
0.0282431
0.0367045
0.0251089
0.0421116
0.0431733
0.0313517
0.0474064
0.0411562
0.0477163
0.0413648
0.0385392
0.044472
0.0251065
0.0324718
0.0336112
0.0267208
0.00615929
0.044832
0.0441208
0.0523119
0.0136893
0.0411693
0.0366005
0.01458
0.033258
0.0407371
0.0355176
0.0464471
0.0440899
0.0420915
0.0458571
0.0340629
0.0438514
0.0456408
0.0442139
0.0434057
0.036173
0.040467
0.0320086
0.0470347
0.0392891
0.0582961
0.0574349
0.0378539
0.0464311
0.0372369
0.0365468
0.0356533
0.0303673
0.0430092
0.0380616
0.0411537
0.043153
0.0471382
0.0413564
0.035273
0.0393501
0.0393679
0.046017
0.0379895
0.0406641
0.0433127
0.0449739
0.00329594
0.0413729
0.00443656
0.00510561
0.00555367
0.00274646
0.0408324
0.0088746
0.000923626
0.0299557
0.0405866
0.0553957
0.0563776
0.0468436
0.0373843
0.0458126
0.0249913
0.0516507
0.0332164
0.0363777
0.0397166
0.0430019
0.0281236
0.0424607
0.0441839
0.0320313
0.0343544
0.044304
0.0347175
0.0511004
0.044486
0.0493654
0.0153008
0.00270556
0.0411095
0.0406936
0.0399768
0.0495653
0.0420268
0.0505809
0.0420508
0.0453111
0.0267187
0.0471695
0.0340556
0.0455354
0.036051
0.0460666
0.0473299
0.0287271
0.0417447
0.0310327
0.0433799
0.0308185
0.043739
0.0380144
0.0365218
0.0438444
0.0421899
0.0381033
0.0420262
0.0290241
0.0506277
0.0394341
0.0419604
0.0432923
0.0450691
0.0123663
0.0304813
0.0455917
0.00448727
0.00609702
0.0466649
0.0408793
0.000669436
0.0556095
0.0369169
0.0513328
0.0402917
0.0351308
0.0351678
0.0484129
0.0404809
0.0346894
0.036544
0.0393944
0.0405347
0.0400851
0.0521005
0.044499
0.0447669
0.0300926
0.0301742
0.0471844
0.0380141
0.044684
0.0447191
0.0504993
0.0553921
0.0531087
0.0353748
0.0471611
0.0372069
0.0437996
0.0427469
0.0366597
0.0168408
0.0464971
0.056076
0.0454975
0.0349292
0.0402361
0.0349468
0.0576225
0.0322315
0.0413804
0.0350553
0.0366937
0.0438664
0.046428
0.0370678
0.044426
0.0435441
0.0394761
0.0451691
0.0438047
0.0437816
0.039166
0.0470901
0.0474091
0.0465742
0.0399679
0.0457871
0.0460546
0.045616
0.0144784
0.0466832
0.0331328
0.0341618
0.0420505
0.0503902
0.0334904
0.0406505
0.0472111
0.0398787
0.0408692
0.035171
0.0530045
0.0392979
0.0462878
0.0335328
0.0335621
0.0404514
0.0468316
0.033302
0.0398355
0.0393485
0.0461333
0.046955
0.039725
0.0402217
0.050236
0.0502375
0.041212
0.0495265
0.0486908
0.0436419
0.0497038
0.0204166
0.0495737
0.0468047
0.0459626
0.0464855
0.044532
0.0465331
0.0514614
0.0419333
0.0464089
0.0368769
0.0423484
0.0380004
0.0436885
0.0437272
0.0531218
0.0445803
0.0527125
0.052903
0.0378421
0.0433012
0.0453099
0.03046
0.0390313
0.0405438
0.0405973
0.0515555
0.0448679
0.0350807
0.0399548
0.0327511
0.0478558
0.0332656
0.0348644
0.0398502
0.0408126
0.0413735
0.046329
0.0456951
0.0463797
0.0385008
0.0339801
0.0362933
0.0454736
0.0473886
0.0311992
0.046634
0.0529177
0.0491728
0.0391218
0.0452675
0.0441683
0.0459641
0.0426784
0.0421059
0.0519308
0.0391905
0.042154
0.04951
0.0386739
0.0446691
0.0458755
0.0372283