/*--------------------------------*- C++ -*----------------------------------*\
| =========                 |                                                 |
| \\      /  F ield         | OpenFOAM: The Open Source CFD Toolbox           |
|  \\    /   O peration     | Version:  2212                                  |
|   \\  /    A nd           | Website:  www.openfoam.com                      |
|    \\/     M anipulation  |                                                 |
\*---------------------------------------------------------------------------*/
FoamFile
{
    version     2.0;
    format      ascii;
    arch        "LSB;label=32;scalar=64";
    class       surfaceScalarField;
    location    "0.012";
    object      phi;
}
// * * * * * * * * * * * * * * * * * * * * * * * * * * * * * * * * * * * * * //

dimensions      [0 3 -1 0 0 0 0];

oriented        oriented;

internalField   nonuniform List<scalar> 
68568
(
-1.39486e-07
1.44431e-07
-2.73539e-08
2.24088e-08
1.34998e-07
-6.86603e-08
-7.21163e-08
5.77824e-09
1.62447e-07
-1.24553e-07
-5.53537e-08
1.74599e-08
-4.35279e-09
2.22718e-09
-1.5468e-07
1.56806e-07
-1.37655e-09
1.30357e-07
1.04055e-09
-1.30021e-07
1.29173e-07
-4.43044e-10
-1.18198e-07
-1.05325e-08
7.71406e-08
-8.28436e-08
1.21031e-07
-1.15328e-07
-3.63072e-08
-2.47975e-08
1.38245e-07
1.20963e-07
-1.44717e-08
-1.0208e-07
-4.41146e-09
1.38777e-07
4.88991e-08
-5.26779e-08
9.27341e-08
1.2684e-07
-5.71266e-08
-5.9616e-08
-1.85346e-07
1.76302e-07
-1.30314e-07
6.3714e-08
-5.51645e-09
1.68248e-07
-1.73693e-07
1.2971e-08
-7.52548e-09
-6.57999e-08
-4.80572e-08
1.1268e-07
1.17726e-09
1.18264e-07
8.21478e-08
-1.21909e-07
-7.85019e-08
-4.71636e-08
-7.29829e-08
1.06625e-07
1.35214e-08
1.05803e-07
-1.10489e-07
-4.2477e-08
1.03385e-07
-4.35105e-09
-4.70592e-10
-9.85634e-08
7.96812e-08
-1.43203e-07
7.15686e-08
-8.04667e-09
1.06279e-07
-3.9038e-10
-1.05902e-07
1.37756e-11
-1.6171e-08
8.37028e-09
1.2941e-07
-1.21609e-07
-4.25922e-08
1.75405e-07
-2.52641e-08
-1.07549e-07
-5.7382e-10
-2.77058e-10
-1.26794e-07
1.27645e-07
-7.06601e-08
-4.53556e-08
1.09568e-07
6.44779e-09
-9.08806e-08
-3.69941e-08
-1.16114e-08
-6.05595e-08
1.32075e-07
8.16605e-09
7.21115e-08
4.34634e-08
-2.75955e-08
-8.79794e-08
-6.31614e-08
-9.42274e-08
1.21081e-07
4.49395e-08
-1.11619e-07
3.51826e-09
1.41718e-07
-7.60515e-08
-1.33431e-07
6.77636e-08
-1.25148e-08
2.4559e-09
1.10679e-07
-1.0062e-07
1.45452e-07
-3.05469e-08
-1.0341e-08
-1.04564e-07
1.12566e-07
-8.67934e-08
-5.4772e-08
2.89994e-08
-1.8516e-10
1.03492e-07
-1.03325e-07
1.73556e-11
1.12876e-07
8.04913e-08
-8.07835e-08
6.99249e-10
-4.06968e-10
3.9692e-08
-1.47641e-07
8.60918e-08
2.18569e-08
-1.51378e-07
1.31798e-07
5.92723e-08
-7.02753e-08
-1.06802e-10
-2.77978e-10
-8.1163e-10
1.0796e-07
-8.69032e-10
1.06264e-07
-1.06044e-07
-3.35323e-10
1.15648e-10
-2.48389e-08
-1.48067e-07
1.11287e-07
1.79711e-07
-1.37387e-07
-1.53611e-07
-5.69914e-08
-9.62826e-08
2.71538e-07
-1.35359e-07
1.5272e-07
-1.28445e-07
1.11084e-07
-1.1684e-07
6.24362e-08
-5.21207e-09
1.07142e-07
-1.04587e-07
-3.36954e-09
8.15064e-10
9.19684e-08
2.3699e-08
1.08668e-08
-1.26534e-07
2.00655e-09
-1.42703e-07
1.38134e-07
3.21418e-08
-2.75723e-08
-7.72552e-09
-8.87669e-08
9.60953e-08
3.97073e-10
-1.83308e-07
1.28505e-07
1.71071e-07
-1.14955e-07
-3.69094e-10
-3.26717e-10
1.73205e-09
-1.43887e-09
1.01396e-07
-1.01689e-07
3.70362e-08
-1.07978e-07
-2.0409e-09
8.71349e-08
-9.30498e-08
3.41374e-09
2.50114e-09
-7.99795e-08
1.33036e-07
-5.88714e-08
5.81502e-09
1.3759e-07
-7.13922e-08
-6.94641e-08
3.26673e-09
8.62091e-08
-8.63561e-08
-4.26796e-10
-1.04456e-07
-1.83638e-09
1.0852e-07
7.05816e-08
6.67138e-08
-7.17426e-09
-1.30121e-07
-5.45113e-09
1.27599e-07
-1.22809e-07
6.60818e-10
8.32695e-08
-1.40845e-07
-2.98416e-09
1.01589e-07
-1.68984e-08
3.12784e-08
-1.15969e-07
1.39149e-07
-2.15427e-08
-1.57934e-07
4.03273e-08
3.84707e-08
7.62578e-08
-1.13434e-08
6.03831e-08
-1.19671e-07
6.58237e-08
-6.53586e-09
1.2699e-07
-1.28293e-07
-7.38381e-11
-9.34577e-08
1.33193e-07
-2.95537e-08
-1.01815e-08
-1.91841e-07
-1.41731e-07
2.69894e-07
6.36779e-08
-1.07277e-07
3.18361e-09
1.09535e-07
-6.49329e-09
1.27162e-07
-1.34804e-07
-5.00408e-08
5.76825e-08
-1.17623e-07
6.08294e-08
6.27571e-08
-5.96384e-09
-8.28155e-08
-4.62999e-08
-4.56309e-08
-9.59628e-08
9.60803e-08
-1.002e-10
-1.73233e-11
3.7217e-08
1.62629e-07
-6.22567e-08
9.91231e-08
-5.87532e-08
4.6765e-08
-6.86849e-08
-7.56251e-08
1.40343e-07
3.96715e-09
-4.82881e-10
-2.04544e-07
-4.32243e-10
2.05459e-07
7.03468e-08
-4.37646e-08
7.96818e-08
-5.2393e-11
6.17767e-08
-6.17133e-08
-1.09357e-11
-1.77921e-08
1.31151e-07
6.20256e-08
-1.75384e-07
1.59232e-07
-8.03515e-08
-8.37132e-08
4.83298e-09
1.12733e-07
3.52726e-08
-3.3796e-08
-1.14209e-07
1.51839e-07
-7.18812e-08
7.13299e-08
-1.51288e-07
3.28144e-08
1.2213e-08
1.06812e-07
-8.31119e-08
7.92974e-08
-1.50866e-07
1.18141e-07
6.45773e-10
-1.14927e-07
-3.85891e-09
-3.68179e-08
-2.61345e-07
1.81323e-07
7.88635e-08
8.01248e-08
-6.26819e-09
-5.61581e-10
3.95962e-10
8.78009e-08
-8.76352e-08
-1.16657e-07
1.16726e-07
-3.4646e-10
-5.64171e-08
1.1294e-07
5.91294e-09
6.75377e-09
8.17079e-08
-4.5061e-09
-8.39556e-08
-1.19975e-07
5.31494e-08
8.37816e-08
-1.69556e-08
-4.14305e-08
-7.58104e-08
-9.55345e-09
-7.7293e-08
1.5097e-07
5.18629e-09
6.80007e-08
7.09831e-08
-1.342e-07
-4.78411e-09
1.07985e-07
6.3983e-10
-1.08347e-07
-2.77255e-10
-5.4301e-09
-1.3991e-07
-1.27626e-08
1.46537e-07
-2.60354e-09
1.09112e-07
-1.1203e-07
5.41582e-08
-7.22529e-09
9.24099e-08
-4.87996e-10
-9.08488e-08
-1.0731e-09
1.15092e-07
-7.94054e-10
1.27129e-07
-4.28817e-08
7.49839e-08
1.90455e-11
-9.79388e-08
-3.34309e-09
1.05615e-07
-4.33345e-09
8.62917e-08
-4.72309e-08
-8.53151e-08
6.84274e-11
8.53851e-08
-1.38474e-10
-3.28953e-08
-1.2776e-07
1.36851e-07
2.38043e-08
-1.59348e-09
1.22962e-07
-1.20976e-07
-3.9224e-10
-8.22599e-08
-3.43614e-08
1.17358e-07
-7.36676e-10
-4.17257e-09
2.1712e-09
-1.02455e-07
-1.53449e-07
8.26726e-08
7.63113e-08
-5.53455e-09
1.69435e-10
-9.57015e-08
9.57439e-08
-2.11833e-10
1.28803e-07
-4.83353e-10
-3.34152e-11
-1.0354e-07
2.46045e-10
1.03328e-07
-8.90015e-08
1.92393e-08
8.02864e-08
1.23157e-07
-6.75513e-08
4.77722e-09
1.31436e-07
-1.30685e-07
-1.32655e-08
-1.16896e-07
1.31659e-07
1.77088e-08
-3.24709e-08
6.74345e-08
-6.90217e-08
1.40737e-07
3.86864e-09
1.05279e-07
1.41376e-07
-1.19537e-09
-1.41774e-07
6.37886e-08
-1.33253e-07
-4.00089e-09
7.34657e-08
1.34524e-07
-7.41758e-08
7.65247e-09
9.46327e-08
-9.26004e-08
-1.06202e-07
5.41258e-08
-2.87072e-08
-1.40837e-07
1.34542e-07
-1.78831e-08
2.41779e-08
1.53324e-07
4.22358e-08
-4.2817e-08
-1.52541e-07
-6.92859e-08
-2.79165e-08
7.54527e-08
2.17497e-08
-1.22285e-07
6.42425e-08
-5.06775e-08
1.0872e-07
-1.41831e-07
-3.0131e-09
1.47626e-07
-2.78198e-09
-1.01253e-07
1.9002e-08
-5.95797e-08
-1.53167e-07
-5.99588e-09
8.96318e-08
-1.3945e-09
-1.06259e-07
-4.26145e-10
-1.01659e-07
1.31359e-07
-6.91843e-08
5.77847e-09
1.46274e-07
-7.7712e-08
-7.48647e-08
6.30264e-09
-1.25011e-07
1.68383e-07
-4.32942e-08
-7.73026e-11
7.77407e-08
-7.75992e-08
-1.25153e-07
8.98141e-08
7.1339e-09
-2.3153e-09
6.22691e-10
9.89965e-08
-9.86162e-08
-1.00296e-09
1.77016e-07
-4.48936e-08
-9.68495e-08
-1.01855e-07
1.16875e-07
1.087e-07
-1.0393e-07
-2.59874e-09
-1.56272e-09
9.65685e-08
-9.52069e-08
2.01123e-10
-8.66446e-09
-1.26627e-07
1.23351e-07
1.19398e-08
-1.31159e-07
1.47467e-07
-9.6427e-09
-6.66532e-09
1.14029e-07
-1.41553e-08
-1.01093e-07
1.02186e-08
-7.23734e-09
-9.11245e-08
9.06364e-08
3.06668e-08
-5.98443e-09
-1.25936e-07
-1.93272e-08
1.04509e-07
-7.91079e-08
-6.07379e-09
1.48328e-07
-6.11443e-09
-1.26188e-08
-1.29595e-07
1.45819e-07
3.47693e-11
-2.1342e-09
-1.4372e-07
1.28588e-07
-1.49837e-09
-1.00006e-10
1.2244e-07
-1.22695e-07
2.10293e-10
4.46241e-11
-1.17156e-07
-7.75317e-08
1.18877e-07
1.97495e-08
-1.58915e-07
-1.05019e-07
1.04959e-07
-8.37771e-12
6.81326e-11
-1.26458e-07
-6.63191e-09
1.93089e-09
-9.66445e-08
-9.62409e-11
9.68327e-08
-9.19818e-11
-1.15696e-07
-5.27833e-10
1.1633e-07
-1.05883e-10
-1.27891e-08
1.21517e-07
-9.89678e-08
-7.75562e-09
-9.70931e-08
9.69559e-08
1.03807e-10
2.90575e-08
2.64897e-08
7.44714e-08
-1.29707e-07
6.80466e-08
-6.81247e-08
1.33866e-07
-1.33788e-07
9.76274e-08
-7.70676e-08
-2.29598e-08
2.39996e-09
6.21851e-08
3.8676e-08
-1.01951e-07
3.42904e-09
5.29719e-09
-1.01587e-07
1.15526e-07
-1.92357e-08
-4.23609e-10
9.69455e-08
-9.62025e-08
-3.19381e-10
-1.31909e-07
-8.1677e-09
1.53549e-07
1.91715e-07
-8.21152e-08
1.73458e-07
1.44456e-07
-7.23694e-08
5.65384e-09
-4.17529e-08
2.37375e-08
-9.99502e-08
1.19728e-07
8.22517e-08
8.75802e-08
-7.2025e-09
8.73956e-08
6.82817e-08
-1.50234e-07
-5.44287e-09
7.69118e-08
7.44804e-08
-6.93591e-09
1.14866e-07
-7.04294e-08
7.8003e-08
6.95977e-08
-1.17818e-07
5.55602e-08
-7.34014e-09
3.48542e-10
-9.36514e-08
-9.24517e-10
1.68628e-11
-2.87463e-07
1.71006e-07
1.3869e-07
-1.03019e-07
1.8823e-08
8.7577e-09
4.02502e-08
4.20449e-08
-9.10529e-08
-1.20363e-07
1.69509e-09
1.19771e-07
-1.10266e-09
-9.29294e-08
9.25917e-08
3.83267e-11
2.99417e-10
1.19052e-07
-1.5439e-07
1.82348e-07
-1.47009e-07
1.4041e-08
-1.4545e-09
1.1777e-07
-2.96762e-08
6.99861e-09
-6.85847e-08
9.12623e-08
-6.77547e-08
1.30605e-07
5.19594e-09
-1.36341e-07
7.04078e-08
7.12851e-08
-5.35217e-09
-1.02858e-07
-2.36448e-08
1.07176e-07
3.79523e-10
7.13943e-08
-1.17327e-10
-7.16565e-08
1.35731e-07
-6.27018e-08
7.24233e-08
1.1375e-09
-9.03242e-11
-5.4205e-11
-9.0657e-08
1.64719e-07
-4.40684e-08
-2.72239e-08
-9.34263e-08
1.76956e-08
2.78082e-08
-1.26372e-07
8.3518e-08
-3.21079e-08
2.09616e-08
1.43278e-07
5.59348e-08
1.54944e-07
-1.76602e-07
-5.91414e-08
-6.32206e-08
5.46569e-09
1.22662e-07
5.60185e-09
-6.72359e-08
-6.73282e-08
1.27768e-07
6.7959e-09
-8.36934e-09
9.33289e-08
-1.2648e-07
-2.04849e-10
6.55901e-08
-6.58524e-09
-6.51111e-10
-1.25392e-07
5.61863e-11
1.25987e-07
-1.24292e-07
1.49991e-07
-3.62009e-08
1.02799e-08
-8.66413e-09
4.69769e-08
1.03063e-07
-1.19268e-07
6.93845e-08
-2.47882e-08
7.46714e-08
-1.3045e-07
8.79901e-08
-1.21111e-07
1.1961e-07
3.05937e-10
8.64583e-08
2.06883e-08
-1.54188e-07
-2.00404e-08
1.5354e-07
-1.6967e-07
9.31823e-08
-1.28057e-07
-1.50828e-09
1.53494e-07
2.31051e-08
6.29078e-08
-9.03101e-08
4.29719e-09
1.18049e-07
-8.6313e-08
-3.60666e-10
-9.40601e-08
3.95552e-11
-2.19417e-07
2.19571e-07
-5.86834e-10
-8.91506e-08
-9.23943e-08
-8.79188e-08
9.5046e-08
-1.0422e-07
7.9305e-08
-1.0048e-07
1.58841e-08
5.29119e-09
1.17246e-07
-8.47366e-08
-8.77216e-09
-1.44236e-07
-1.11753e-08
1.98494e-08
1.35562e-07
-2.87082e-07
-3.64804e-10
-1.23522e-07
1.22984e-07
-2.28462e-11
-8.79711e-08
2.57494e-11
2.64829e-11
-1.29434e-08
-8.81024e-08
1.41116e-07
-4.00698e-08
1.00392e-07
4.71027e-09
4.07166e-08
-1.27075e-07
1.26101e-07
-3.37707e-09
-6.01242e-08
1.37802e-07
-9.0825e-08
2.10609e-10
-1.20217e-07
-3.56851e-10
8.68559e-08
-8.84308e-08
1.36124e-10
-6.22192e-08
-6.25255e-08
1.17082e-07
7.66224e-09
1.0587e-07
1.66512e-08
-9.10355e-08
-3.14855e-08
-1.27566e-08
1.43174e-07
-1.35011e-07
1.90287e-09
-1.04694e-07
-1.7912e-08
1.19547e-07
-4.74359e-11
-1.19568e-07
6.88285e-11
2.24718e-08
6.97765e-09
5.10292e-08
-8.04787e-08
-1.3344e-07
7.13453e-08
-5.14151e-09
-1.07869e-07
1.02084e-07
-7.18268e-09
-2.65059e-10
1.14875e-07
2.55684e-10
-7.55283e-08
-6.79162e-08
1.36931e-07
6.51346e-09
1.22259e-07
-6.49017e-08
-6.30195e-08
5.6623e-09
1.21619e-07
-2.0514e-09
-2.10414e-11
-9.59358e-08
-8.53808e-08
9.33455e-08
-1.1422e-07
-4.3406e-08
-1.35401e-08
1.71171e-07
-9.89941e-08
2.72381e-08
-1.20085e-07
6.73914e-11
-9.84388e-08
4.70287e-10
-4.99892e-10
1.26267e-07
2.39519e-08
-2.55684e-08
-1.2465e-07
4.31853e-08
-1.20486e-07
-1.02526e-10
-1.13611e-10
3.58388e-08
-1.8038e-07
-7.3605e-08
1.23045e-07
8.37534e-08
1.90949e-08
-1.36212e-07
-1.69351e-08
1.34052e-07
-7.71097e-08
6.362e-09
1.25045e-07
-1.25094e-07
8.70284e-08
3.91475e-08
-1.08189e-09
-4.33024e-10
1.67296e-10
-9.05415e-08
6.22892e-08
-4.64298e-09
-1.42646e-09
-2.46041e-09
-2.34591e-09
8.87902e-08
-8.39839e-08
7.68458e-08
9.9547e-08
-9.69773e-08
-7.94154e-08
1.38926e-07
-1.5481e-07
-3.14678e-11
4.51591e-10
1.46561e-07
-9.23141e-09
-1.2896e-07
-3.95071e-08
1.42946e-07
1.05903e-08
1.11736e-07
-1.05523e-07
-5.25139e-09
-9.62021e-10
-6.71401e-10
1.06873e-07
1.55177e-07
-5.3913e-08
-2.14064e-09
8.71617e-08
-7.72283e-08
-5.30752e-10
3.9133e-10
1.31575e-07
-1.39833e-07
2.52021e-09
1.27229e-07
8.88713e-09
-1.13645e-08
1.0548e-07
-1.32442e-07
2.81336e-08
9.96703e-10
8.46909e-08
-8.00636e-10
-8.4887e-08
-1.11601e-07
1.11711e-07
-1.64098e-10
1.13038e-09
-3.16668e-10
-1.06247e-07
1.05588e-07
-1.25478e-11
-1.04542e-07
-2.01076e-10
4.95012e-11
6.71106e-08
-9.55365e-08
-7.19263e-08
1.00352e-07
3.01052e-11
-1.09853e-07
1.09992e-07
-1.69516e-10
-4.98859e-08
1.32209e-07
-5.4468e-08
-1.80959e-08
-1.32093e-07
6.93177e-08
-6.51042e-09
2.64388e-08
-1.50659e-08
1.00363e-07
-1.28659e-07
6.16474e-08
5.98512e-08
7.15988e-09
-1.48082e-07
-1.03099e-07
1.05178e-07
-1.18726e-07
-4.05412e-08
5.40899e-08
1.22562e-07
-1.23021e-07
2.22043e-10
2.3702e-10
-1.37134e-09
-1.71438e-07
1.17396e-10
1.72692e-07
-9.81735e-08
1.62822e-11
9.81098e-08
-1.19932e-07
1.1884e-10
2.44652e-10
6.80227e-08
-1.20619e-07
-6.54472e-09
6.49241e-12
-1.22519e-07
-1.81679e-10
7.21084e-08
7.15707e-08
-5.54535e-09
-6.94701e-08
-6.98687e-08
1.33109e-07
6.22989e-09
-1.10697e-07
1.06795e-09
1.0967e-07
-4.04984e-11
1.16967e-07
2.87923e-08
1.04341e-07
-1.52626e-08
1.02337e-07
-5.17985e-09
-9.43329e-08
4.43822e-08
4.27098e-08
7.24093e-09
8.50982e-08
1.20078e-07
-9.54048e-08
-1.06428e-07
6.84877e-08
-6.65875e-08
-1.22792e-07
-9.83639e-08
1.07823e-07
1.13332e-07
1.03227e-07
-1.675e-10
1.09036e-07
-1.10177e-07
1.27104e-09
-1.29969e-10
-1.22714e-07
-1.21827e-07
7.40511e-10
1.10564e-10
1.57134e-08
4.10794e-08
-1.54651e-07
1.41405e-08
-3.98216e-08
1.82663e-07
1.25354e-07
-6.43146e-08
-6.63782e-08
4.58151e-09
1.79832e-08
-1.9635e-08
1.23767e-07
-3.08438e-08
-7.32886e-08
1.00831e-07
-6.39482e-10
-9.99886e-08
-2.02528e-10
-3.80632e-08
-1.3522e-07
2.68201e-07
-9.4918e-08
9.90834e-08
-7.49869e-08
-9.91375e-10
1.93714e-10
9.70232e-08
-2.71491e-10
6.83056e-08
-6.85632e-08
1.12219e-07
-1.44466e-07
-1.21174e-07
7.37465e-08
1.17835e-07
-1.87025e-09
-2.87387e-08
-7.599e-08
6.70115e-08
7.96785e-08
8.48671e-09
1.00371e-07
-1.19345e-07
1.79138e-09
1.39649e-07
-7.48075e-08
6.44408e-09
1.1041e-07
-1.4339e-07
1.27815e-07
-8.413e-08
-2.94186e-08
-1.34945e-08
2.0172e-09
9.6458e-08
-1.0714e-07
6.40981e-08
-1.21166e-07
-5.15165e-09
1.40923e-07
1.45051e-08
-4.05704e-08
1.17944e-07
-7.66517e-08
-2.43967e-09
-2.4296e-08
1.3115e-07
-1.46724e-07
3.98694e-08
1.09012e-07
1.91365e-08
-5.18906e-08
-1.21179e-10
-1.16954e-07
1.16027e-07
-9.44769e-10
-2.79623e-08
2.14103e-08
-9.10614e-08
9.76135e-08
7.1405e-08
-1.33555e-07
-5.17828e-09
-1.27548e-07
1.27764e-07
-2.09739e-10
-7.26921e-08
1.48832e-07
-1.14203e-07
-6.83947e-08
-7.59399e-08
1.65744e-08
-9.5472e-08
1.65031e-11
2.03953e-07
-2.01448e-08
-8.63113e-08
-1.00872e-07
-6.94742e-08
1.24887e-07
2.14481e-07
-1.62418e-10
-8.40282e-08
-2.52777e-11
8.42159e-08
3.01658e-08
1.06818e-07
-9.40429e-10
1.40197e-07
5.65769e-09
9.07942e-08
5.39434e-08
2.72982e-09
6.91852e-08
-1.33356e-07
-5.29951e-09
-6.88042e-08
-7.77938e-08
1.37533e-07
9.06459e-09
-8.62097e-08
-4.13635e-09
-3.98687e-09
-4.37424e-09
-1.21294e-07
1.05779e-07
-4.78457e-11
-1.15323e-07
-3.03769e-09
1.1291e-07
-8.31193e-08
-1.27532e-07
9.02496e-08
1.20402e-07
-1.06009e-07
3.68746e-08
7.22948e-08
-3.16055e-09
6.60636e-08
6.60585e-08
-1.25214e-07
-6.90847e-09
-6.769e-08
-6.49559e-08
1.26372e-07
6.2737e-09
4.90645e-08
4.55184e-08
-1.0447e-07
9.88698e-09
-6.32789e-08
1.05327e-07
-3.42569e-08
-7.79171e-09
1.00229e-07
-1.00629e-07
-2.51016e-10
-8.8316e-08
4.23904e-10
7.70448e-08
9.87424e-08
-2.64643e-08
-1.49323e-07
-2.90863e-08
8.30269e-08
3.60772e-08
-9.00178e-08
-9.32531e-08
3.0783e-11
9.47282e-08
-1.50597e-09
-6.93441e-08
-3.97868e-08
8.94959e-08
1.17242e-07
-3.28803e-09
6.61731e-08
-1.23181e-07
6.18747e-08
-4.86673e-09
-4.96279e-08
3.25249e-08
-1.0827e-07
1.11057e-08
1.26541e-07
-9.83528e-08
-3.9496e-08
1.24282e-07
7.49566e-08
-6.94065e-08
7.678e-10
-1.16363e-07
-1.00882e-10
6.80796e-08
-5.48094e-08
9.6795e-08
-1.11914e-07
5.36906e-08
5.09517e-08
7.27126e-09
6.91863e-08
-4.54978e-09
3.69328e-08
6.01645e-08
7.41162e-09
8.68572e-09
1.18549e-07
-9.39991e-09
-5.11513e-09
-7.73698e-08
7.54425e-08
1.25695e-07
-7.00504e-08
-1.46493e-07
1.4708e-07
1.53539e-07
5.569e-08
-5.2762e-08
-1.56467e-07
1.35884e-08
-1.21296e-07
1.3018e-07
-7.40312e-08
-6.82761e-08
1.359e-07
6.4071e-09
-4.20302e-08
-1.00122e-07
1.61177e-09
6.42829e-08
-6.52936e-09
1.23165e-07
-3.99384e-10
-2.03095e-10
2.08119e-08
-8.06877e-08
8.63147e-08
2.06355e-10
1.77282e-10
-1.27932e-07
-9.36856e-10
8.66927e-08
-8.49603e-08
1.09731e-08
-7.8986e-08
1.34944e-07
-6.69315e-08
-2.60296e-08
-1.26597e-07
1.0812e-09
1.51546e-07
8.70235e-08
-1.6776e-07
6.59094e-08
1.48273e-08
-1.16822e-07
8.52485e-08
-9.19491e-08
9.55828e-08
-4.61681e-10
-9.4692e-08
-4.29089e-10
-4.31753e-08
-1.22514e-07
4.3694e-08
1.21996e-07
-6.936e-08
-1.15129e-07
1.41213e-07
4.32766e-08
-2.88968e-09
-1.35312e-07
1.35777e-07
2.42497e-09
-1.18716e-07
1.18717e-07
-1.37266e-09
-1.347e-07
1.19009e-07
-6.01283e-08
1.28978e-07
6.72038e-08
-5.53705e-09
7.20888e-08
-1.29833e-07
-6.00736e-08
-1.19718e-07
8.20733e-08
-9.57952e-08
-1.30994e-08
1.32866e-07
-8.2135e-08
-3.31509e-08
1.14724e-07
-1.12801e-07
-3.11575e-09
1.19285e-09
-9.21664e-08
-2.28345e-09
3.79286e-09
1.6721e-10
-1.41521e-07
1.38464e-07
-8.64683e-08
-5.72196e-10
8.30838e-10
-8.73427e-08
7.34595e-08
1.42926e-08
-4.09412e-10
-5.21943e-08
-1.25159e-07
1.68256e-07
9.09712e-09
1.09653e-07
-5.49235e-10
5.41528e-08
4.54358e-08
-1.08746e-07
9.15688e-09
-1.04376e-07
-4.15621e-10
1.04645e-07
1.46862e-10
-1.01137e-07
1.40898e-08
-2.31295e-08
5.96801e-08
-1.15976e-07
4.88902e-08
7.40554e-09
-4.415e-09
-8.90904e-08
4.35479e-09
1.37585e-09
-1.26083e-07
1.91574e-09
5.1177e-08
7.025e-08
-1.39547e-07
2.02725e-08
1.08081e-07
1.9265e-08
1.2145e-07
-1.2195e-07
7.11269e-10
-2.11709e-10
-1.9388e-07
1.82886e-07
8.13695e-08
-7.03757e-08
5.31177e-08
-1.37543e-07
1.05476e-07
-2.10506e-08
7.02725e-08
-6.36871e-09
-6.70759e-10
1.55597e-10
5.51321e-08
-5.83031e-08
-1.09495e-07
1.54443e-07
-1.27208e-07
1.06977e-07
-1.44988e-08
5.43627e-10
-1.41789e-07
1.41439e-07
1.21576e-07
-1.48301e-07
-1.23737e-09
-8.21672e-08
-7.84214e-08
1.54401e-07
6.18742e-09
9.02475e-08
2.25433e-11
-9.02286e-08
-4.14452e-11
-1.39261e-07
7.45323e-08
6.94166e-08
-4.68784e-09
-1.87698e-07
1.1619e-07
-1.30114e-07
2.01622e-07
-1.80554e-07
2.41722e-08
-4.32849e-08
-1.06279e-07
-1.53915e-07
9.3887e-08
3.57316e-08
-1.35306e-08
-1.2082e-07
1.31731e-07
2.62006e-09
-2.99974e-09
-1.05183e-07
-8.97324e-09
1.15451e-07
-9.83031e-08
1.04839e-07
-3.02052e-08
1.59331e-07
7.37969e-08
1.68695e-07
-1.20584e-07
-1.15082e-07
5.26074e-10
1.13614e-07
-1.14123e-07
-1.70906e-11
9.71096e-08
-1.05411e-07
3.88607e-09
-7.61196e-08
-7.12834e-10
6.55879e-08
9.95597e-08
-4.19826e-08
6.11742e-08
-1.16761e-07
-4.54121e-09
-7.07872e-11
1.10509e-07
-1.1042e-07
-1.83589e-11
-1.14456e-07
-1.88825e-10
1.15284e-07
-6.39278e-10
-1.15766e-07
4.19957e-08
-3.17526e-08
-1.12497e-08
9.39883e-08
7.61056e-08
-1.07636e-09
-1.69018e-07
2.48597e-09
-1.56232e-10
-1.64488e-08
7.82713e-08
-1.40299e-07
7.84764e-08
-1.21411e-07
1.23137e-07
6.34193e-08
-6.17412e-09
2.57391e-08
-1.26028e-07
-3.55756e-08
1.35865e-07
4.06822e-08
1.16705e-08
3.47771e-08
-8.71297e-08
6.69648e-08
7.26596e-08
-1.33453e-07
-6.17191e-09
-1.00968e-07
9.92947e-08
1.8043e-09
-1.3051e-10
-6.57827e-08
7.23925e-09
5.39107e-08
-5.18327e-08
1.20524e-07
-1.22602e-07
-1.00615e-07
2.11692e-07
-4.38806e-08
-6.71965e-08
8.26556e-08
-7.04397e-08
-7.19098e-08
5.96939e-08
6.58718e-08
-5.41855e-08
-1.33281e-07
5.14671e-08
9.12213e-09
5.61162e-08
7.72463e-08
7.29102e-08
7.44211e-08
-1.40975e-07
-6.35644e-09
1.30376e-07
7.77189e-09
-5.80287e-09
-1.32346e-07
1.00231e-07
8.7861e-10
-2.78679e-10
9.4507e-08
-9.60189e-08
2.11844e-09
-6.06474e-10
-6.39347e-08
-7.56091e-08
1.3237e-07
7.17358e-09
-1.17665e-07
1.47572e-09
4.23438e-10
-1.04658e-07
8.45889e-11
1.97477e-10
1.09376e-08
1.19251e-07
1.08847e-07
1.88426e-09
-1.07842e-09
1.58265e-11
-1.00155e-07
9.97238e-08
9.52171e-08
1.69309e-08
2.5761e-09
-1.10109e-08
3.49594e-08
-1.16638e-07
9.26896e-08
1.22379e-07
-1.22163e-07
-1.19559e-12
-2.14435e-10
-2.87453e-08
-1.14401e-07
1.67319e-07
-1.1609e-07
-1.88832e-08
1.39594e-07
-4.62135e-09
1.49491e-07
-1.27217e-07
-2.21168e-08
-1.95333e-08
1.24306e-07
1.23131e-07
-1.23724e-07
3.28272e-10
2.64148e-10
1.46329e-07
-4.4844e-08
-1.44126e-07
4.26406e-08
1.20329e-07
-1.20556e-07
1.43078e-07
-1.42851e-07
8.62776e-09
-1.19365e-08
-9.58048e-08
9.91136e-08
2.62137e-08
-9.98885e-08
-4.24284e-08
1.16103e-07
8.37538e-08
7.67146e-08
-1.53846e-07
-6.62277e-09
1.97987e-07
-2.0875e-07
-5.06119e-08
-1.60329e-07
1.00804e-07
-1.26732e-08
1.21002e-08
-1.79854e-07
1.56042e-07
-8.29775e-08
1.2914e-07
-2.19778e-07
1.73616e-07
7.81884e-08
-1.54992e-07
-6.1743e-09
1.99901e-08
8.72635e-08
-1.50672e-08
-9.21864e-08
-1.32554e-09
1.28778e-07
-1.39736e-08
-1.11219e-07
-5.73469e-08
1.49476e-07
-1.04306e-07
1.2177e-08
-2.70349e-08
7.82076e-08
-4.37064e-08
-7.46624e-09
2.87471e-10
-9.80772e-08
9.8135e-08
-3.45345e-10
2.62049e-09
1.21283e-07
-1.22792e-07
-1.11202e-09
-9.59893e-08
-1.22286e-07
1.34581e-07
8.88238e-08
-1.11614e-09
9.91374e-08
1.69347e-09
-4.63332e-08
-4.28893e-08
1.23516e-07
-2.28406e-07
5.02474e-08
-1.48472e-07
1.17176e-07
-6.9319e-08
1.19593e-07
-1.16572e-07
-4.00641e-10
-9.49477e-08
1.56922e-09
-2.33045e-09
9.5709e-08
6.00432e-08
-1.83723e-07
-1.43121e-07
-1.93305e-10
1.23891e-07
-1.23555e-07
-1.4231e-10
-1.05958e-07
-3.72708e-08
1.35819e-07
5.49627e-09
-8.81977e-09
1.07739e-07
-9.64632e-08
-1.08267e-08
1.39783e-07
-1.14991e-07
4.97289e-10
3.78616e-11
6.22463e-08
-1.49696e-07
8.12994e-08
6.15043e-09
-1.43949e-09
-1.07574e-07
-1.55242e-09
1.2467e-07
5.71418e-09
-1.03163e-07
5.24467e-08
4.88324e-08
1.88357e-09
-1.02874e-07
2.83811e-08
1.40365e-07
3.24379e-10
1.32411e-07
-6.73603e-10
-1.32061e-07
6.21601e-09
1.17115e-07
-2.49914e-08
-9.83399e-08
1.39099e-07
-1.57889e-07
8.22538e-08
-6.34645e-08
4.50577e-08
1.13331e-07
-5.56105e-08
-6.54369e-09
8.13439e-08
8.31157e-08
-1.51884e-07
-1.40609e-08
-6.20572e-09
1.0542e-07
-1.2713e-07
1.13711e-07
2.05593e-10
-1.14181e-07
2.64345e-10
6.98648e-09
9.75132e-08
-4.10725e-09
7.62507e-08
-1.89691e-07
3.03206e-08
-1.28578e-07
2.42146e-09
-7.27061e-08
-6.23656e-08
1.28484e-07
6.58807e-09
-1.04714e-07
-4.84867e-08
3.30887e-08
1.20112e-07
-1.16415e-07
-6.08542e-10
-6.4117e-10
-6.77344e-08
1.43397e-07
-8.14133e-08
5.75116e-09
7.34378e-08
-1.45147e-07
7.47532e-08
-3.04397e-09
-1.10354e-07
-2.87757e-10
1.00362e-07
-1.02949e-07
4.50377e-09
-1.91636e-09
1.47227e-07
-8.2445e-08
8.6561e-09
-1.12866e-07
1.88586e-08
-1.87942e-08
5.75036e-08
-9.49568e-08
-2.13e-08
1.2237e-07
-1.21583e-07
-2.43443e-10
6.70122e-08
5.93255e-08
-5.98447e-08
-6.64931e-08
7.72482e-08
1.43677e-07
-1.54862e-07
7.68633e-08
6.6141e-08
-1.38252e-07
-4.75266e-09
-1.14472e-07
6.03701e-08
4.65757e-08
7.52619e-09
1.50348e-10
1.22849e-07
1.3206e-10
7.78092e-08
7.27866e-08
-1.44769e-07
-5.8263e-09
1.02313e-07
1.1465e-07
-9.44265e-09
-1.01719e-07
-3.48863e-09
9.35346e-08
7.50047e-11
1.42707e-07
-1.4447e-07
-7.83929e-08
8.01558e-08
4.88175e-08
5.83717e-08
7.46102e-09
-6.3e-09
-1.74915e-07
1.81667e-08
9.73624e-08
-3.61312e-09
6.02759e-09
1.47508e-07
1.26606e-07
-2.14435e-07
-1.19377e-07
1.07247e-09
-1.42767e-09
1.19732e-07
5.7485e-10
9.78301e-08
-9.83188e-08
-8.61064e-11
-7.71785e-08
1.75339e-07
-1.72192e-07
5.11407e-08
1.19389e-07
-6.36486e-08
-1.06881e-07
4.52016e-08
5.78283e-08
-1.10319e-07
7.28958e-09
1.44746e-07
-1.05942e-08
2.02493e-08
-1.30519e-07
-5.67349e-09
3.73017e-08
-1.27317e-07
-1.88342e-08
-9.13623e-08
-1.08893e-07
1.03379e-07
1.97487e-08
-4.98683e-09
-1.97056e-08
9.51014e-08
2.79829e-08
8.41795e-08
-7.6005e-08
-2.12888e-09
1.22636e-07
3.06721e-09
1.51697e-10
3.42422e-10
-2.12114e-07
-1.5332e-08
-1.888e-10
1.55793e-07
1.49527e-08
-1.63323e-07
-1.2401e-08
2.63622e-07
-1.16485e-07
-1.34736e-07
-1.61829e-07
1.31644e-07
1.10824e-07
-1.3994e-07
-6.57606e-08
7.17143e-08
-7.34797e-08
6.7526e-08
1.15515e-07
-1.18989e-07
-3.54832e-09
7.02251e-09
-3.67658e-09
-6.19391e-08
7.6435e-08
-1.76324e-07
-7.74342e-08
6.29309e-08
2.68864e-08
-1.17462e-07
2.50689e-07
-4.04939e-08
-9.63976e-08
-1.28047e-08
-7.4607e-08
1.49888e-07
1.9672e-09
-3.21496e-08
-6.87856e-08
8.68165e-08
1.41187e-08
3.80085e-08
-1.70749e-07
7.75896e-08
5.5151e-08
-1.04628e-07
1.04468e-07
-5.22773e-11
2.12131e-10
9.03683e-08
-2.83182e-10
1.30524e-08
1.21224e-07
1.10332e-07
-7.02605e-09
-8.18952e-08
-1.50943e-07
1.81615e-08
8.3819e-10
1.32487e-07
-8.40508e-08
1.28617e-07
-4.1226e-08
-5.93604e-09
2.95866e-09
1.22602e-07
-2.92402e-09
1.01118e-07
3.77822e-08
-1.48454e-07
-2.85893e-08
-1.20742e-07
-1.04423e-07
-8.18216e-08
4.20083e-08
-1.10683e-08
1.06292e-07
-8.19502e-09
-9.09995e-08
-1.04143e-07
-3.33416e-09
9.1781e-08
-1.17692e-07
9.65549e-08
-5.97971e-10
-9.53873e-08
-5.69695e-10
-2.48067e-08
-1.43334e-07
-1.71129e-07
1.70642e-07
1.10819e-07
-4.66224e-08
1.18663e-08
-7.60628e-08
1.09972e-07
-5.50895e-10
-1.09338e-07
-8.21684e-11
1.01145e-09
9.99112e-08
-1.01147e-07
2.24231e-10
2.79787e-08
1.1619e-07
-3.53219e-08
-7.61018e-08
-7.96238e-08
1.05786e-08
7.43434e-09
1.05687e-07
-1.09104e-07
-4.01803e-09
-1.20043e-07
1.29978e-07
-2.50103e-09
-1.29673e-07
-3.06537e-09
-1.42506e-07
1.44332e-07
-5.3899e-08
-8.14963e-08
1.41381e-07
-5.98535e-09
1.03468e-07
-1.46594e-08
6.48409e-10
-1.88078e-10
4.43975e-08
1.14177e-08
-4.00959e-10
-5.07354e-10
7.27128e-08
7.9637e-08
-6.02086e-09
-3.2188e-08
9.64351e-08
7.50326e-08
-2.69109e-07
-9.26024e-08
2.32283e-07
1.28842e-07
1.22885e-07
-5.22314e-08
-7.78852e-08
6.34829e-09
-4.7897e-10
-1.21139e-07
-3.32242e-10
5.2775e-08
6.14714e-08
-1.13102e-07
-1.14421e-09
-1.10672e-07
1.10549e-07
1.23124e-10
-2.97588e-13
1.01836e-07
3.07696e-08
-1.29962e-08
1.45447e-09
1.85705e-07
-4.27349e-09
-5.1222e-08
-7.90386e-08
-3.02068e-09
-9.48868e-08
-2.18504e-08
7.22542e-10
1.02373e-07
-1.02217e-07
7.47102e-08
-1.81905e-07
1.03386e-07
-9.78225e-10
-5.71254e-10
6.78365e-08
6.21683e-08
-1.2647e-07
-3.53495e-09
-1.55162e-07
7.7739e-08
-2.16802e-08
-2.51642e-08
-3.42751e-08
1.20006e-07
-6.05669e-08
-2.77843e-08
6.83044e-08
2.88965e-08
-1.33037e-07
-8.56878e-08
8.98382e-08
1.28887e-07
7.34653e-08
-5.89769e-09
6.27423e-08
1.23656e-07
-5.14179e-08
-1.3498e-07
-3.5046e-09
1.10135e-07
1.41333e-08
-1.20764e-07
1.04975e-07
-8.94601e-08
-1.93802e-08
3.86546e-09
1.34959e-07
-1.80431e-07
1.66755e-07
1.36342e-07
-6.6356e-08
-6.3507e-08
-6.47944e-09
4.00307e-08
-1.60906e-07
-1.13924e-07
-1.16172e-07
-1.23525e-10
-1.78013e-07
1.50388e-07
-1.55225e-07
1.8285e-07
8.20443e-08
-1.4171e-07
-2.57348e-08
1.14842e-07
-1.13936e-07
-4.75207e-10
-4.30877e-10
5.73469e-08
-1.1368e-07
-5.60573e-09
-6.1316e-09
8.30087e-08
-1.70702e-07
7.14999e-08
-1.29057e-07
-8.951e-11
2.94262e-10
1.28852e-07
-1.67487e-07
1.28587e-07
-8.74794e-08
-8.05877e-08
-2.91018e-08
-6.90399e-09
5.68685e-08
6.65206e-08
-6.21305e-09
-5.08751e-08
-5.80534e-08
-5.54341e-09
-3.49729e-09
-9.7327e-08
-9.65377e-08
-9.95816e-10
-5.62911e-09
6.69474e-08
-6.64584e-08
5.22699e-10
-1.01173e-09
1.02698e-07
-1.00845e-07
-1.229e-09
-6.23883e-10
-1.1439e-09
1.21858e-07
-1.20518e-07
-1.95856e-10
-1.26639e-07
1.32806e-08
1.07527e-07
5.83132e-09
1.20785e-07
-1.1479e-07
-4.09155e-09
-1.90361e-09
-1.02845e-07
-1.04545e-09
1.04512e-07
-6.21445e-10
-9.87587e-08
-6.01774e-08
9.15298e-08
3.21926e-08
-9.0745e-09
-1.14648e-07
7.27072e-08
-7.70067e-08
3.48336e-09
8.16225e-10
4.27191e-08
3.54946e-08
-1.21389e-07
1.04385e-07
-1.01624e-07
-7.01784e-09
4.25617e-09
-4.84423e-08
4.92238e-08
1.44555e-07
4.79015e-09
1.21233e-07
-9.08083e-08
1.15711e-08
-2.63963e-08
-1.08305e-08
-9.58105e-08
-3.18983e-08
1.84499e-07
5.74267e-09
-1.5919e-07
1.2335e-07
-3.16938e-08
-1.84392e-08
2.04797e-08
-7.56982e-08
5.52312e-09
-1.18693e-07
1.18645e-07
5.59505e-08
-6.70962e-08
-2.86411e-08
7.43014e-08
2.36076e-09
6.25762e-08
5.53586e-08
-7.72527e-08
-7.85738e-08
1.08369e-07
-1.20865e-08
-6.67413e-08
5.58262e-09
8.89225e-08
1.08292e-08
2.12111e-08
2.30411e-08
-1.00141e-08
4.91422e-08
5.72789e-08
6.91004e-09
-4.62841e-08
1.5168e-07
-1.5759e-07
-1.64278e-07
8.20267e-08
2.08238e-07
-1.40186e-07
1.00476e-07
-3.01011e-08
5.7766e-08
-1.28141e-07
-1.17776e-07
-4.06423e-08
-1.3693e-07
-5.41101e-09
-9.58874e-08
7.62165e-08
-8.37231e-08
1.03394e-07
7.75225e-09
-1.12476e-07
-1.33332e-07
-7.02801e-09
-4.10994e-09
-1.20804e-07
1.09254e-07
1.16525e-07
1.85093e-08
9.83439e-08
2.00429e-09
-1.25837e-07
1.16346e-07
-8.03969e-08
8.98883e-08
-9.77074e-08
1.25189e-08
-1.94693e-08
-3.30598e-08
-4.02082e-08
1.31256e-07
-4.79036e-08
-1.0679e-07
-4.05211e-08
1.20904e-08
-6.75255e-08
-8.08315e-08
7.52044e-09
-6.6051e-08
7.58907e-08
7.5894e-08
2.206e-08
4.02502e-08
-1.38204e-07
8.6756e-08
-9.9918e-09
-6.44068e-08
-5.27424e-09
-7.63289e-08
-8.44786e-08
5.64518e-09
5.99543e-08
-6.8937e-08
-4.60815e-08
5.50642e-08
-4.77169e-08
-8.30468e-09
1.38011e-07
-1.74309e-07
3.67272e-08
-4.28504e-10
-7.56453e-09
2.54843e-08
7.49134e-08
-9.28332e-08
4.71063e-10
-8.88698e-08
-6.58767e-10
8.90575e-08
-9.62023e-08
9.59358e-08
1.78053e-10
8.85064e-11
1.22962e-07
-6.80734e-08
-1.24757e-07
-5.86925e-08
-3.64165e-08
9.67355e-08
-1.62642e-09
1.45351e-07
1.09631e-08
-1.09415e-07
5.32211e-09
-1.31236e-07
1.63382e-08
-3.97518e-10
-1.76187e-07
-1.09534e-07
1.09791e-07
-3.46859e-10
5.18322e-08
9.91756e-08
-1.36661e-07
-1.18761e-08
-1.4896e-08
2.19964e-07
-4.65056e-10
-1.22685e-07
-3.1426e-09
9.34123e-08
-9.2388e-08
-2.75827e-11
-6.1291e-09
1.52484e-08
2.48833e-08
1.15292e-07
-1.88042e-08
1.10396e-07
-8.96149e-09
-3.14064e-09
1.20754e-07
-1.16178e-07
-1.43507e-09
-1.01263e-07
1.11749e-07
-5.99946e-09
1.14936e-07
5.06117e-09
-2.99442e-08
-9.0053e-08
1.11905e-07
1.49463e-09
-1.11402e-07
-1.99848e-09
-6.7277e-08
-5.08329e-08
6.68879e-08
8.52955e-08
1.64205e-09
1.48586e-07
1.84027e-08
-3.38801e-08
-1.3843e-08
3.58175e-09
-7.37669e-08
1.16135e-07
-1.63199e-07