/*--------------------------------*- C++ -*----------------------------------*\
| =========                 |                                                 |
| \\      /  F ield         | OpenFOAM: The Open Source CFD Toolbox           |
|  \\    /   O peration     | Version:  2212                                  |
|   \\  /    A nd           | Website:  www.openfoam.com                      |
|    \\/     M anipulation  |                                                 |
\*---------------------------------------------------------------------------*/
FoamFile
{
    version     2.0;
    format      ascii;
    arch        "LSB;label=32;scalar=64";
    class       volVectorField;
    location    "0.012";
    object      U;
}
// * * * * * * * * * * * * * * * * * * * * * * * * * * * * * * * * * * * * * //

dimensions      [0 1 -1 0 0 0 0];

internalField   nonuniform List<vector> 
31639
(
(0.113776 0.000664611 -0.000511113)
(0.112454 -0.000256643 0.000175111)
(0.113354 -0.00020074 0.000444301)
(0.114806 0.000156855 8.4781e-05)
(0.11267 -0.00054456 -0.000109338)
(0.112816 0.000160312 -0.000150727)
(0.111262 3.72469e-05 -0.000320166)
(0.113147 -0.000131447 -0.000135387)
(0.113238 0.000180756 -0.000134596)
(0.114212 -0.000186013 -0.000311832)
(0.114431 0.000339499 -0.000211433)
(0.114028 -0.000367984 -0.000500844)
(0.112843 -0.000150692 1.29901e-05)
(0.113896 5.60878e-05 5.41187e-06)
(0.111998 -0.000346939 3.49288e-05)
(0.11139 -0.000164413 0.00047745)
(0.112789 0.000150128 -0.000117719)
(0.111257 -2.20424e-05 0.00016593)
(0.111645 0.000190117 -0.000317171)
(0.11301 -1.43464e-05 -0.000212253)
(0.108554 -0.000172139 -0.000123013)
(0.11402 -2.57424e-05 -0.000180446)
(0.114052 0.000389894 1.59384e-05)
(0.111938 0.000212871 -0.00016111)
(0.110953 -0.000103399 -0.000149955)
(0.113208 0.000111361 -8.57468e-05)
(0.113038 -6.83461e-06 3.98564e-05)
(0.115977 0.000309844 4.70092e-05)
(0.11148 0.00029085 0.000596498)
(0.113742 0.000133209 0.00038911)
(0.114321 -7.43638e-05 -8.20986e-05)
(0.11117 -7.98336e-05 -0.000136529)
(0.114274 0.000293552 -0.000439517)
(0.111746 8.60301e-06 -0.000214296)
(0.109497 -0.000140862 5.83918e-06)
(0.114188 0.00044552 -0.000134127)
(0.107663 -0.000115949 8.48053e-06)
(0.114642 -0.000261542 0.00021678)
(0.114254 -0.000101654 9.93047e-05)
(0.107704 9.05289e-05 -9.51104e-05)
(0.110102 -2.87856e-05 -0.000156569)
(0.109046 -0.000141951 0.000133619)
(0.113969 0.000106135 -1.40267e-05)
(0.114487 -0.000598467 -0.000585793)
(0.11357 -0.000343312 0.000482273)
(0.114833 -0.000544592 -0.000291048)
(0.111474 0.000304965 -0.000106397)
(0.112257 0.00044469 -0.000316576)
(0.112658 5.74817e-05 0.000214894)
(0.114473 -0.000311051 -0.000131583)
(0.114643 8.76769e-06 -0.000181639)
(0.108457 0.000238084 -0.000124685)
(0.114412 0.000240673 0.000116599)
(0.10788 -6.2616e-05 0.000122259)
(0.112628 -0.000129668 -0.000181138)
(0.112405 0.000104294 1.59326e-05)
(0.109057 0.000147206 -0.000386836)
(0.112936 0.000123877 0.00032185)
(0.112804 -2.99638e-05 0.000364654)
(0.109423 9.45066e-05 -0.000137406)
(0.113193 3.71798e-05 -0.00018191)
(0.11361 0.00029817 -0.000270893)
(0.110886 -0.000120155 -0.000245361)
(0.112907 8.8778e-05 -0.000107713)
(0.113141 0.000208446 5.27575e-05)
(0.114726 1.88247e-05 -0.0004012)
(0.112782 0.00012331 -0.000703086)
(0.112832 -9.89958e-05 -1.99739e-05)
(0.110113 -1.28807e-05 -8.06807e-05)
(0.114561 0.000352284 -0.000173823)
(0.114235 -6.61357e-05 -1.61133e-05)
(0.111384 -0.000141455 -0.000668745)
(0.114262 -0.000285554 -0.000486611)
(0.113113 -1.90328e-05 -0.000185945)
(0.113526 0.000109266 -6.31056e-05)
(0.10842 3.51309e-05 -0.000387492)
(0.114599 -0.000551206 0.000239957)
(0.112112 0.000272877 -0.000311862)
(0.112639 -0.000122343 0.000294959)
(0.113677 0.000160441 -1.02572e-05)
(0.111112 0.000154917 0.000102466)
(0.106813 5.73159e-05 9.32992e-05)
(0.114418 -5.41454e-05 -0.000119539)
(0.113524 -0.000165516 -0.000139016)
(0.113272 -2.62257e-05 -8.91905e-05)
(0.114447 -0.000329189 -0.000234789)
(0.114727 3.81196e-07 0.000100298)
(0.114703 1.91071e-05 -0.000171123)
(0.10917 0.000754507 -0.0010614)
(0.114244 1.62341e-05 -0.000365689)
(0.113401 -4.7128e-05 0.000104984)
(0.112066 -0.000292166 -0.000177194)
(0.109629 -0.000224108 -0.000285151)
(0.112323 0.000327101 -0.000405249)
(0.110966 -0.000588488 -0.000267716)
(0.112043 0.000783644 0.000116703)
(0.112817 0.00031794 -0.000291096)
(0.113057 -0.000102052 0.000299395)
(0.112989 8.50401e-05 -1.4982e-07)
(0.10923 -0.000490172 -0.000228677)
(0.113345 0.000104216 -9.47005e-05)
(0.113414 0.000289437 0.000419452)
(0.112096 -9.43552e-05 -0.000148361)
(0.108298 -1.13337e-05 -0.000117073)
(0.109318 9.3383e-05 -0.000328647)
(0.114941 -0.000354038 -0.000283887)
(0.108259 0.000391023 -0.000300628)
(0.108732 -0.000296432 -0.000579083)
(0.110504 0.000391189 0.000108405)
(0.107962 -5.13845e-06 0.000241057)
(0.113936 -0.000507776 9.32143e-05)
(0.109597 6.83029e-05 -0.000202757)
(0.112617 -0.000199023 -0.000296727)
(0.111649 -0.00038051 -0.000391336)
(0.113284 0.00010131 -0.000437214)
(0.108611 -0.00025354 0.000125469)
(0.111886 0.000258095 -0.000100898)
(0.111534 -0.000400128 1.28265e-05)
(0.113276 -8.71323e-05 -1.45026e-05)
(0.112667 -0.000105748 0.000129654)
(0.112972 -0.000396626 -1.50841e-06)
(0.114201 -0.000351714 0.000317429)
(0.114483 0.000148643 -0.000346967)
(0.113162 0.000316446 -0.000574063)
(0.113091 5.55785e-05 -0.000585489)
(0.113897 -0.00017737 -3.13536e-05)
(0.11275 8.09008e-05 0.000280284)
(0.110919 0.000294299 -8.82919e-05)
(0.110867 -0.000402151 -0.000150241)
(0.114176 -0.000135747 9.5812e-05)
(0.113955 -4.17926e-05 -0.000107197)
(0.114179 0.000211793 -0.000284178)
(0.113986 -0.000176506 2.33663e-05)
(0.112523 -1.8382e-06 6.60688e-05)
(0.113882 1.35324e-05 -0.000120579)
(0.113226 4.89825e-05 -1.60694e-05)
(0.109291 -2.26958e-05 -0.000229654)
(0.108847 -0.000594439 -0.000292058)
(0.114515 0.000449044 0.000392265)
(0.113046 -0.000228825 -0.000167707)
(0.112941 -5.75542e-05 -6.8089e-05)
(0.114655 7.12712e-05 0.00070944)
(0.114287 0.000288358 6.63899e-05)
(0.108355 -0.000124042 -0.000203855)
(0.108671 -0.000143976 -0.000545544)
(0.113746 -0.000127929 1.65057e-05)
(0.11387 -0.000186461 -0.000245329)
(0.109044 -9.99557e-05 -0.000265668)
(0.109585 -1.84722e-05 4.75968e-05)
(0.113827 -0.000141549 -0.000228867)
(0.110931 -3.94111e-05 -0.000642311)
(0.112372 0.000140074 -2.1051e-05)
(0.11213 -7.90625e-05 -0.000552136)
(0.11367 -8.15167e-05 -0.000137222)
(0.109584 0.000479094 -0.00066195)
(0.114731 -2.46974e-05 9.62159e-05)
(0.11322 -0.000100855 -0.000124888)
(0.11047 -0.00081378 0.000125866)
(0.109649 -0.000611796 0.000654217)
(0.111707 -0.00022955 -0.000203318)
(0.114668 -2.80493e-05 -0.000328865)
(0.108601 0.000147459 0.000144779)
(0.109905 -0.00010156 -0.000687105)
(0.108935 -0.000178439 3.55314e-05)
(0.108999 -0.000748846 0.000186461)
(0.111912 6.76012e-05 4.51352e-05)
(0.108959 0.000417928 0.000151783)
(0.11419 -0.000462275 0.000130401)
(0.114535 -0.00036205 7.58504e-05)
(0.108774 0.000112135 -0.000405626)
(0.110752 -0.000188077 0.000209306)
(0.112479 0.000333889 -0.000530815)
(0.1094 -8.95457e-05 -7.04539e-05)
(0.11318 -0.000106392 0.000260848)
(0.114715 -0.000198376 -0.000284192)
(0.113637 -0.00042678 -0.000209391)
(0.113163 0.000463376 8.17351e-06)
(0.113997 0.000204345 0.000176418)
(0.113408 -0.000279084 -3.70988e-05)
(0.112672 -0.000134623 -0.000285011)
(0.113056 7.15834e-05 -0.000130828)
(0.112197 -0.000441285 0.000540212)
(0.112282 0.000297595 0.000119462)
(0.107935 0.000824015 -0.000209348)
(0.112864 -1.88107e-05 0.000402531)
(0.114187 0.000554781 -0.000439557)
(0.112113 -9.82508e-05 0.000251706)
(0.113836 0.000170963 -5.76577e-05)
(0.109535 -0.000152154 5.95958e-06)
(0.108317 -8.75966e-05 0.000297774)
(0.11443 9.12814e-07 -0.000287166)
(0.11389 -0.000163826 0.000118814)
(0.112596 -0.000288425 0.000499418)
(0.112848 -6.09395e-06 0.000219911)
(0.113236 3.48329e-05 -7.57905e-05)
(0.112333 1.82624e-05 -0.000165949)
(0.111998 0.000539431 0.000328024)
(0.114207 0.00020805 -6.9925e-05)
(0.109194 3.02058e-05 -0.000146755)
(0.111889 0.000314311 -0.000205565)
(0.114447 4.39934e-05 -2.26022e-05)
(0.114179 -0.000126735 -0.000109303)
(0.113701 -0.000311646 -4.46223e-05)
(0.11342 -0.000837381 -0.000122187)
(0.112602 -0.000354222 -0.000133348)
(0.11264 -6.10516e-05 -0.000180982)
(0.112994 -0.000137791 -8.38301e-05)
(0.112575 0.000210405 -0.000182109)
(0.113773 -3.48996e-05 -0.000307183)
(0.108361 -8.96541e-05 -0.000138916)
(0.113017 2.33482e-05 -0.000197635)
(0.112021 0.000434656 -0.000116849)
(0.112994 1.99797e-05 -0.000279821)
(0.113728 6.51357e-05 -0.000310698)
(0.113318 -0.000273195 -0.000297687)
(0.114159 -8.58554e-05 -0.000145591)
(0.109815 -0.000779828 -0.000171447)
(0.111 -0.000222024 0.000165438)
(0.113817 -0.00022092 -0.000280522)
(0.114645 -0.000196395 0.000179114)
(0.114103 2.33731e-05 9.87578e-05)
(0.112233 -0.000233606 -0.000416438)
(0.107578 -3.9463e-06 0.000649911)
(0.112838 -0.000564261 0.000350594)
(0.108802 -0.000182616 -0.000206701)
(0.111317 0.000127791 -3.42133e-05)
(0.113881 -0.000301237 0.000273881)
(0.111165 0.000385695 0.000403043)
(0.10876 0.000249193 -0.000140588)
(0.112796 0.00012317 3.8844e-05)
(0.113513 0.000143618 -0.000159674)
(0.11447 -0.000173699 -0.000109315)
(0.109111 2.03614e-05 -0.000134254)
(0.108255 -0.000258648 9.81129e-05)
(0.113104 -0.000167499 0.000123256)
(0.113938 2.29335e-05 -0.000382173)
(0.109276 4.82807e-05 0.000329838)
(0.114194 -0.000657661 0.000169121)
(0.110609 5.55637e-05 -0.000310378)
(0.109365 -0.000161708 0.000149423)
(0.112865 0.000127939 -9.00233e-05)
(0.113411 -0.000137579 -6.20388e-05)
(0.112151 -0.000536959 0.000118757)
(0.110706 0.000315294 0.000653508)
(0.111037 0.000111196 0.0001563)
(0.112493 -7.71336e-05 -9.31614e-05)
(0.112717 0.000434362 -0.00013865)
(0.111632 6.50409e-05 -0.000443579)
(0.108984 -0.000334064 0.000341656)
(0.112856 0.000120525 -0.00019154)
(0.112843 -3.53674e-05 -9.81056e-05)
(0.110032 -0.000120226 -9.92714e-05)
(0.111155 -0.000619588 1.66481e-05)
(0.114053 4.1995e-06 -2.91314e-05)
(0.114409 0.000392095 1.11504e-05)
(0.112395 0.000555249 -0.000138476)
(0.109506 -1.38546e-05 1.50028e-05)
(0.114328 0.000230896 -0.000199994)
(0.113637 0.000235086 -0.000464655)
(0.112 -0.000251185 -0.000377346)
(0.114795 0.000286257 0.000549881)
(0.114707 0.000177425 -0.000209706)
(0.113426 0.000138783 -0.000367304)
(0.114366 0.000118004 5.0046e-05)
(0.112427 0.000216736 7.10346e-05)
(0.11213 -0.000195305 -0.000521284)
(0.108352 0.000344539 -0.00105804)
(0.111227 -0.000140237 -0.00017919)
(0.114209 -0.000434405 5.05782e-05)
(0.112 -4.63821e-05 0.000337619)
(0.113484 0.000205557 6.68496e-05)
(0.112163 0.000378414 -0.000339065)
(0.112643 -0.000195367 0.00010253)
(0.113109 0.000384557 0.000180901)
(0.114636 0.000252844 -0.000326856)
(0.113222 0.000420782 0.00026004)
(0.108844 2.77092e-05 3.00402e-05)
(0.111904 6.10483e-06 -3.85291e-05)
(0.110248 0.000888563 -0.00021556)
(0.114679 -9.22264e-05 -0.000516885)
(0.11196 -0.00042798 -0.000215648)
(0.113645 -4.37769e-05 -0.000433153)
(0.113056 -4.6508e-06 -0.00028189)
(0.111045 7.16864e-06 -0.000408421)
(0.108893 2.86286e-05 -3.53349e-05)
(0.109688 0.0001249 -0.000396519)
(0.109555 0.000119124 1.50529e-05)
(0.108471 -9.64919e-05 6.18065e-05)
(0.114772 -0.000301812 -0.000127957)
(0.109417 -0.000258747 -0.000436958)
(0.113234 -0.000201371 0.000196226)
(0.113395 0.000341099 -3.85964e-05)
(0.111724 -4.0125e-05 -9.90721e-05)
(0.109949 -8.87914e-07 -3.36314e-05)
(0.114204 -0.000601354 0.000238738)
(0.111953 6.03411e-05 -0.000563562)
(0.110452 9.04369e-05 0.000333866)
(0.114034 0.000237177 -0.000219139)
(0.112738 -0.000178508 -7.71773e-05)
(0.109599 0.000251816 0.000242937)
(0.112368 6.55675e-05 -0.000168419)
(0.109526 0.000130519 4.55056e-05)
(0.113129 0.000343925 -0.00013088)
(0.112726 0.0001447 -4.96478e-05)
(0.109687 0.00021521 0.000499663)
(0.112191 1.90241e-05 -0.000222541)
(0.11214 0.000532734 0.000206241)
(0.107404 0.000128917 -0.000798089)
(0.107837 0.000374398 0.000290309)
(0.113815 -0.000389999 0.00015534)
(0.114365 0.000152946 -2.28617e-05)
(0.114656 -2.17447e-05 -7.49214e-05)
(0.108736 0.000108615 -1.92367e-05)
(0.109636 3.59801e-05 0.000314996)
(0.114316 0.000163834 0.000172578)
(0.110629 -0.000180742 -0.000114341)
(0.110215 0.000557768 -0.000483041)
(0.113873 0.000168422 0.000374335)
(0.114112 -0.000261279 -0.000132193)
(0.111896 -0.000571315 -6.56901e-05)
(0.113982 -0.000814508 -0.000314545)
(0.114712 -4.12592e-05 -0.000246322)
(0.109184 -0.000129133 -0.000151117)
(0.114713 -0.000538721 -0.000281466)
(0.107848 0.00037776 -8.47259e-05)
(0.108452 3.55049e-05 -0.000110052)
(0.114401 -0.000373703 -0.000143122)
(0.113899 -0.000392257 -7.34999e-05)
(0.114782 9.15241e-05 -0.000323955)
(0.114537 0.000487183 -0.000517027)
(0.11346 -1.7626e-05 -0.000277491)
(0.110247 0.000882327 -0.000329704)
(0.111725 -0.000546184 0.000389119)
(0.112806 -0.000156732 0.000108837)
(0.11371 -0.000640847 0.00021995)
(0.114348 0.000658564 0.000303565)
(0.114131 -0.000416636 0.000169324)
(0.112898 0.000216759 -7.73359e-05)
(0.111716 -0.000513116 0.00044687)
(0.112445 -0.000102863 -3.10234e-05)
(0.114367 0.000134886 -0.000226917)
(0.113501 -0.000131257 -0.000675002)
(0.111889 4.89367e-05 -0.000328166)
(0.112889 -0.000218673 -2.70965e-06)
(0.112818 0.000488491 -0.000260171)
(0.112024 -0.000258257 -0.000162703)
(0.113645 -0.000124107 -0.00017612)
(0.11208 -0.000444356 0.000470955)
(0.109376 -6.13399e-05 9.41696e-05)
(0.112604 0.000265702 -0.000268264)
(0.114248 -0.000157419 -0.00021012)
(0.111562 0.00015767 -0.000178759)
(0.113397 0.000110668 -8.47518e-06)
(0.114263 -0.000423264 4.99625e-05)
(0.11327 -1.73035e-05 -2.36869e-08)
(0.109848 0.000537261 -0.000182359)
(0.11286 0.000138528 -0.00035121)
(0.112378 0.000213848 2.49391e-05)
(0.108608 0.000185843 -0.000360938)
(0.113622 -0.000624103 7.23692e-06)
(0.108814 0.000239102 0.00024326)
(0.113022 -6.66053e-05 -0.000298613)
(0.114269 -0.000399299 -6.89724e-05)
(0.109037 -0.000219835 1.02459e-05)
(0.112972 0.000247532 3.64249e-05)
(0.112624 0.000197737 0.000409446)
(0.108963 -0.000155311 0.000158569)
(0.113066 -0.000103078 -7.66822e-05)
(0.109793 -1.68112e-05 -0.000230495)
(0.112186 6.34818e-06 0.000423946)
(0.114078 0.000400091 2.73593e-05)
(0.112972 -2.93372e-05 0.00015199)
(0.108425 0.00028298 -0.000106054)
(0.113551 0.000112189 -5.16882e-05)
(0.109546 0.000164372 -0.000309129)
(0.113564 -0.000159279 -5.79448e-05)
(0.113538 0.000159002 0.000140413)
(0.11363 -0.000385493 -0.000180841)
(0.114147 -0.000162939 -0.000441582)
(0.109175 2.38633e-05 -0.000195988)
(0.113885 -0.000616142 0.00012911)
(0.108962 1.68441e-05 -0.000432729)
(0.112631 0.000187184 -0.000164861)
(0.109142 0.00019569 -5.77106e-05)
(0.114713 -6.2068e-05 -4.62824e-05)
(0.114622 -7.81553e-06 -7.79298e-05)
(0.114833 -0.000167001 6.58122e-05)
(0.114448 -0.00041319 -0.000390056)
(0.11246 -0.000114147 -8.66318e-05)
(0.113544 7.60368e-06 8.91119e-05)
(0.113033 6.63726e-05 1.7643e-05)
(0.112782 1.8541e-05 -0.000114213)
(0.112991 0.000157986 -0.000301019)
(0.109597 0.000130493 -6.37959e-05)
(0.113394 -0.000206343 -0.000146511)
(0.112786 -0.000218041 -4.70442e-05)
(0.113142 -0.000229986 -0.000248873)
(0.114038 0.000108375 -6.46851e-05)
(0.113481 -8.39747e-05 -0.000423778)
(0.113549 3.76785e-05 0.000131593)
(0.112127 -0.000298198 6.30144e-05)
(0.108631 -1.6648e-05 0.000390584)
(0.112065 2.3905e-05 0.000339494)
(0.113752 2.80915e-05 -6.18957e-05)
(0.113577 -9.88009e-05 0.000149241)
(0.108927 -0.00029609 -0.000287005)
(0.11456 8.88803e-05 -0.000262811)
(0.114397 7.46147e-05 -0.00044553)
(0.11231 2.49637e-05 -0.000543905)
(0.114095 -0.000170587 -0.000400126)
(0.114429 -9.50092e-05 -0.000584795)
(0.11312 -3.11168e-05 -0.000235547)
(0.113647 -7.44954e-05 -5.32709e-05)
(0.108723 -8.01782e-05 -0.000111085)
(0.113241 -9.05659e-05 7.51686e-05)
(0.11374 -0.00021882 0.000155309)
(0.107771 6.80039e-05 -0.000157062)
(0.112626 -0.000310782 8.67416e-05)
(0.113484 -0.000325439 -0.000242827)
(0.110466 0.000133929 0.000100257)
(0.108704 -0.000190101 -0.00019148)
(0.108902 -0.000147283 0.000377781)
(0.111543 -0.000632458 2.91522e-05)
(0.108634 5.0658e-05 8.53385e-06)
(0.112448 -1.5756e-05 0.000141809)
(0.113001 -0.000169956 7.6907e-05)
(0.110856 0.000356327 0.000212485)
(0.113445 0.000387959 -0.000204649)
(0.109445 -0.000113767 -0.000108195)
(0.113753 0.0002764 0.000281585)
(0.114862 1.36186e-05 -4.96145e-06)
(0.112863 -7.27097e-05 -9.16818e-05)
(0.11342 1.16096e-05 0.000317778)
(0.112062 -2.87473e-05 -3.82509e-05)
(0.114392 0.000449834 -0.000352132)
(0.113163 0.000388665 -0.000127951)
(0.112375 3.69055e-05 -0.000440364)
(0.114886 6.42781e-06 -0.000243136)
(0.113146 -0.000260469 -0.000250623)
(0.109101 -0.000101239 0.000140863)
(0.112995 -0.000103825 -2.95026e-05)
(0.114977 2.16615e-06 -0.000501902)
(0.114528 0.000190212 -0.00022646)
(0.113602 -6.53568e-05 0.00026939)
(0.114183 0.000263489 -0.000212631)
(0.112856 -0.00041244 6.47919e-05)
(0.11337 -0.000139513 6.46101e-05)
(0.113208 0.000154587 0.000154356)
(0.113835 0.00013288 -0.000219485)
(0.114015 -0.00056234 2.83145e-06)
(0.108539 -0.000148413 -0.00012545)
(0.112267 -0.000280924 0.000139188)
(0.107489 -0.000126947 7.74664e-05)
(0.111521 0.000403873 0.000402851)
(0.112329 0.000197897 -0.000300529)
(0.108984 -0.000354482 0.000311329)
(0.108441 -0.000188446 -0.000359833)
(0.112084 0.000116672 -0.000231705)
(0.113305 -0.000356261 -4.43847e-06)
(0.114048 8.45617e-05 -0.000197931)
(0.109198 3.55186e-05 0.000185487)
(0.113101 -0.000152831 0.000198628)
(0.112074 -0.000108365 3.30512e-05)
(0.112937 -6.9395e-05 -0.000459537)
(0.11316 8.09319e-05 -0.000291545)
(0.111938 0.00157881 0.0017231)
(0.113016 8.16511e-05 -0.000437434)
(0.108984 -6.30362e-05 0.000199377)
(0.112302 -0.000239138 -4.70321e-05)
(0.1139 -4.19259e-05 -4.61406e-05)
(0.114753 0.000730549 0.000378579)
(0.114282 0.000124678 -0.000413519)
(0.112513 0.000638931 -0.000316971)
(0.108865 0.000238178 0.000318428)
(0.113274 -0.000194647 1.97673e-05)
(0.113346 -4.32406e-05 -0.000217847)
(0.114091 -0.00033836 -0.000262462)
(0.1084 6.867e-05 -1.04205e-05)
(0.109785 -1.94877e-05 0.000110598)
(0.112448 0.000244651 0.00021809)
(0.109722 0.000226354 -0.000259833)
(0.108659 -0.000277666 -0.000124562)
(0.113611 0.000217648 -0.000322828)
(0.109436 1.51857e-05 -0.000176528)
(0.11155 0.000534672 5.60342e-05)
(0.109017 -0.000348702 -0.000462589)
(0.113339 6.33606e-05 -8.46467e-05)
(0.109583 0.000213821 -9.35622e-05)
(0.114461 -6.07221e-05 0.000137315)
(0.114057 5.43602e-05 -0.000125985)
(0.114745 -0.000190352 0.000410671)
(0.114512 -3.98795e-05 4.9772e-05)
(0.109245 -2.01942e-05 0.000131746)
(0.114432 5.9436e-05 0.000203966)
(0.114769 -5.02412e-05 -0.000246081)
(0.11269 -0.000269267 9.12294e-05)
(0.113543 0.000225895 -0.000140279)
(0.113561 -0.000124671 -0.0001357)
(0.114733 0.000174296 0.000119742)
(0.113792 0.000373755 0.00037044)
(0.110848 -1.01135e-05 -0.000315399)
(0.115126 -1.87165e-05 7.17568e-06)
(0.114719 -0.000111067 0.000278835)
(0.113255 -1.83511e-05 0.000136896)
(0.1117 -0.000402214 -0.000470175)
(0.114066 -0.000391611 -0.00011309)
(0.113122 0.000365271 -0.000241025)
(0.107801 0.000401818 -0.000201347)
(0.107851 0.000211667 -0.000149769)
(0.112568 5.36131e-05 8.20384e-05)
(0.114072 2.28784e-05 9.80312e-05)
(0.114707 -1.91957e-05 -8.01439e-05)
(0.111438 -0.000159468 -9.02788e-05)
(0.113756 0.000281233 0.000162621)
(0.113149 -0.000138289 0.000152792)
(0.114753 0.000750541 0.00074997)
(0.112715 -5.34258e-06 -7.65211e-06)
(0.111753 0.000409862 -0.000223408)
(0.112389 -0.00122566 0.000740814)
(0.108965 -8.14414e-05 -0.00014237)
(0.11235 4.51525e-05 0.000171075)
(0.112797 2.26582e-05 -8.80644e-05)
(0.114186 7.91829e-05 -0.000126555)
(0.109989 -0.000149943 0.000162238)
(0.109995 0.000158291 -0.000337457)
(0.110579 1.53701e-05 -0.000259453)
(0.111527 -0.000383829 -8.70789e-05)
(0.113013 -6.503e-05 -0.000201553)
(0.108499 -9.94456e-05 -0.000468428)
(0.113831 0.000418033 -0.000411724)
(0.111903 0.000110404 -7.81175e-06)
(0.11336 -6.8887e-05 0.000425239)
(0.112045 -8.54028e-05 -0.000118508)
(0.114878 -0.000293635 -5.98484e-05)
(0.112421 3.95614e-05 -0.000380345)
(0.108739 -2.06377e-05 0.000260172)
(0.113127 0.000526838 7.41722e-05)
(0.11469 -0.000143783 -0.00070799)
(0.109342 0.000166115 0.000611756)
(0.113887 -0.000170695 -0.000318681)
(0.114502 -0.00064447 -0.000182842)
(0.112952 -0.000320188 0.000107064)
(0.112588 0.000194692 0.000198428)
(0.116247 4.56823e-05 -6.22039e-05)
(0.110692 6.72643e-05 -0.000109194)
(0.113007 -0.000355244 -0.000210196)
(0.112877 0.000207424 -0.000114646)
(0.109421 8.04088e-06 -8.59413e-06)
(0.109499 -0.000113444 -0.000868919)
(0.112363 0.000256427 0.000146441)
(0.110839 0.000504169 0.000172435)
(0.113598 -3.96176e-05 -0.000119797)
(0.110422 -0.000203168 0.000244898)
(0.112162 0.000287214 0.00024512)
(0.114639 2.13954e-05 0.000262699)
(0.112652 -4.94855e-05 -0.000143061)
(0.108724 0.000294655 9.03546e-05)
(0.110692 0.000214014 -1.68034e-05)
(0.113426 0.000218468 -7.48177e-05)
(0.114538 -9.55775e-05 2.85209e-05)
(0.108518 0.000376389 0.000323855)
(0.108316 4.80974e-05 0.000163957)
(0.11482 0.000105611 0.00050887)
(0.108822 0.00014458 6.77645e-05)
(0.113564 -0.000134917 -0.000117414)
(0.11353 0.000139878 -0.000145838)
(0.10935 -5.95502e-05 -0.000621699)
(0.113258 0.00016385 6.09433e-05)
(0.114241 2.81858e-05 4.05043e-05)
(0.112399 2.30178e-05 0.000568922)
(0.107687 3.07182e-05 0.000266344)
(0.114685 0.000173193 -2.5359e-05)
(0.112498 -5.0571e-05 -0.000200633)
(0.108774 0.000477916 -5.47464e-05)
(0.114716 -0.000104308 -0.000108554)
(0.112624 -7.99011e-06 -7.14744e-05)
(0.112175 0.000339126 -0.000250039)
(0.113496 -0.000575898 8.93908e-05)
(0.108629 0.000616946 -0.00033383)
(0.111647 -2.47224e-05 -0.000637663)
(0.111788 -0.000301949 5.51113e-05)
(0.112166 0.000174277 -0.000184104)
(0.109324 -8.93591e-05 0.00030605)
(0.110879 2.20573e-05 0.000100356)
(0.113645 0.000499866 0.000143148)
(0.114987 -0.00038245 -0.000744212)
(0.114938 -0.000427513 0.000281932)
(0.114133 -0.000103829 8.43054e-05)
(0.114504 -0.000350401 -0.000115145)
(0.113739 -0.000172424 -0.00066482)
(0.11053 -0.000155146 0.000241111)
(0.114835 -6.73641e-05 -0.000591111)
(0.113589 6.55255e-06 -0.000104185)
(0.114154 0.000413534 0.000407208)
(0.109602 0.000235976 -0.000138029)
(0.113174 -0.000246894 -0.000247463)
(0.113079 0.00018129 0.000164654)
(0.114767 0.000658112 0.000143588)
(0.108988 -6.43185e-05 0.000174452)
(0.108107 -0.000417419 0.000106914)
(0.114361 2.9776e-05 -0.000112582)
(0.110806 -0.000244505 -0.000219157)
(0.114015 0.00013205 -6.86392e-05)
(0.111871 -0.000146012 -0.000198826)
(0.10963 -1.47704e-05 -0.000336316)
(0.113008 1.84437e-05 -0.000425367)
(0.114557 0.000418818 -8.81654e-05)
(0.112432 0.000223078 8.08444e-06)
(0.113913 0.000621135 -9.72335e-05)
(0.109112 3.59718e-05 -0.000966788)
(0.113974 0.000784555 0.000552076)
(0.113533 -6.51755e-05 -0.000293165)
(0.108137 0.000328084 1.8301e-06)
(0.113836 -3.60467e-06 -0.000134876)
(0.114348 -0.000321618 5.79341e-05)
(0.115657 0.000462344 0.000692758)
(0.109356 -0.000535043 -0.000653673)
(0.109007 0.000192197 -0.000421727)
(0.11169 0.000352432 -0.000328639)
(0.112783 -2.41591e-05 0.000407613)
(0.112782 -0.000102151 0.000111865)
(0.112542 0.000197928 6.7424e-05)
(0.11252 0.000188094 0.000140211)
(0.114395 7.28611e-05 -1.46865e-05)
(0.113011 -0.00025267 -9.21036e-06)
(0.113287 0.000179894 4.92677e-06)
(0.109524 -6.01484e-05 0.000399386)
(0.114589 -8.79387e-05 -0.000717127)
(0.108752 -0.000142556 -0.00021299)
(0.113246 0.000520842 -2.36208e-06)
(0.112087 0.000272355 -0.000221772)
(0.111539 -0.00044374 -0.000233288)
(0.11405 0.000171169 -0.000173871)
(0.111964 -0.00038689 -0.000245905)
(0.10983 -0.000419996 -0.000458279)
(0.108503 1.65827e-05 -0.000265291)
(0.109119 -8.39756e-05 -5.74051e-05)
(0.111767 -0.000309809 -0.000190886)
(0.113835 0.000455187 0.000403547)
(0.109678 0.000203027 0.000586828)
(0.113746 -0.000288847 -3.47674e-05)
(0.1117 9.37761e-05 -0.000495669)
(0.114694 -0.000234968 -0.000260587)
(0.108748 -6.01391e-05 -0.000455473)
(0.111952 0.000163095 0.00024973)
(0.114312 -0.000388188 -0.000163176)
(0.114023 -0.000357849 2.81697e-05)
(0.113882 8.36215e-06 -0.000145085)
(0.114603 -0.00010055 -3.19267e-06)
(0.113373 7.58485e-05 0.000256301)
(0.112717 0.000335108 0.000109801)
(0.114138 -5.72844e-05 0.000252353)
(0.113999 0.00018231 1.3232e-05)
(0.114559 0.000115167 0.000140516)
(0.110275 0.000442397 -5.12701e-05)
(0.114529 -0.000465106 -0.000142728)
(0.108665 -0.000162577 0.000288787)
(0.114779 0.00040327 -0.000133215)
(0.112848 0.000201024 6.4537e-06)
(0.112361 9.7766e-06 -0.000273679)
(0.109188 0.000432941 1.2838e-05)
(0.112503 0.00078318 -0.000507102)
(0.107571 -0.000759749 -0.0001498)
(0.113695 -4.03771e-05 -9.73909e-05)
(0.112356 0.000138572 -0.000216696)
(0.114453 -1.35725e-05 -0.000188229)
(0.112101 0.000404547 -0.000158479)
(0.112504 0.000748426 -0.000185214)
(0.109214 -0.000263536 0.000235003)
(0.114381 0.000101103 9.97206e-05)
(0.109383 -0.000415208 0.000130224)
(0.107684 -0.000214968 -0.000160545)
(0.10935 -0.000194862 6.60095e-05)
(0.109897 0.000123164 0.000124071)
(0.10973 0.000554366 6.31756e-05)
(0.112666 -0.000300963 5.77214e-07)
(0.10859 0.000157879 -1.4864e-05)
(0.113762 -0.000626645 -3.84652e-05)
(0.113403 4.99649e-05 -0.000325683)
(0.107492 -6.12698e-05 9.82788e-05)
(0.113606 0.000127788 -2.00638e-05)
(0.109164 0.000316615 -0.000433583)
(0.111728 0.000567949 0.000132634)
(0.112739 5.89118e-05 0.000145354)
(0.112102 -0.00017063 -0.000638788)
(0.113581 -9.46461e-05 -0.000107431)
(0.114957 6.97349e-05 -0.000446172)
(0.11392 7.42667e-05 0.000387631)
(0.113243 5.87867e-05 -0.000176301)
(0.113213 -0.000394434 -0.000485029)
(0.113827 0.000416032 7.39988e-05)
(0.111506 0.000141753 2.15529e-05)
(0.112009 0.000113781 4.7898e-05)
(0.10838 0.000425919 -0.000422133)
(0.109967 0.00201237 0.00256514)
(0.114426 7.67611e-05 2.89507e-06)
(0.112932 -0.000140736 -0.000114809)
(0.11346 -0.000197529 -2.58658e-05)
(0.113996 7.13694e-05 1.45489e-05)
(0.108714 -0.000271016 -0.000114605)
(0.114242 -3.31524e-05 -0.000314574)
(0.1144 0.000466625 -0.000149818)
(0.114449 6.24886e-06 0.000224226)
(0.114329 -2.89248e-05 5.51104e-05)
(0.113717 0.000220435 0.000120535)
(0.113258 -0.000268234 -0.000232345)
(0.114474 -0.000140065 1.83381e-05)
(0.114581 -0.000172479 0.000318951)
(0.113495 0.000126284 0.000231672)
(0.114336 3.24411e-06 -6.25316e-05)
(0.11361 -0.000268988 -0.000263562)
(0.110029 -0.000196305 -0.000269543)
(0.114174 -4.88045e-05 0.00013137)
(0.110759 6.52039e-05 0.00039218)
(0.112776 -8.84344e-05 5.89056e-06)
(0.113026 -0.000378831 -0.000224866)
(0.112786 -0.000491851 6.08228e-05)
(0.11146 0.000455695 -1.73052e-07)
(0.113727 0.000260245 -0.000112945)
(0.111846 0.00031862 0.000386749)
(0.113408 -9.83432e-05 -7.62388e-05)
(0.111911 0.000551706 -0.000225448)
(0.108734 0.000312885 -0.000318756)
(0.115028 0.000233614 -0.000186056)
(0.113246 0.000313905 -0.000107825)
(0.111216 -8.64465e-05 0.000495911)
(0.108674 -0.000403809 -5.07059e-06)
(0.114306 -0.000507175 -6.92056e-05)
(0.108443 -0.00056016 -0.00038748)
(0.114626 -9.9556e-05 -7.67584e-05)
(0.113189 -2.08251e-05 0.000289565)
(0.112146 0.000585353 -0.000220498)
(0.113574 -0.00018385 0.000305962)
(0.114523 -0.000115951 -0.000400037)
(0.113396 -0.0002429 0.000117801)
(0.108808 -8.27405e-05 7.73813e-06)
(0.112378 -0.000201951 -0.000261087)
(0.110498 0.000158881 -0.000234256)
(0.112703 4.11078e-05 -5.29079e-05)
(0.108698 -0.000519592 -0.000622657)
(0.113313 -0.000157433 -0.000365318)
(0.113771 -0.000283391 0.000281159)
(0.111289 0.000163116 -0.000304465)
(0.112641 3.03076e-05 1.26642e-05)
(0.111393 2.44618e-05 0.000198813)
(0.11362 -6.66356e-05 -0.000169358)
(0.111246 -0.000482005 0.000212183)
(0.112585 0.000235117 2.17336e-05)
(0.108758 -0.000228138 0.000204273)
(0.114535 -6.30984e-05 0.000125225)
(0.112864 -0.000328413 -0.000211267)
(0.114359 0.000372422 0.000272571)
(0.110615 0.000350779 -0.000197767)
(0.113275 -3.52792e-05 -7.22731e-05)
(0.113422 0.000144812 -0.000106832)
(0.112153 0.000147318 0.00051773)
(0.11235 -3.4258e-05 -1.85258e-05)
(0.112501 0.000238296 0.000251216)
(0.114459 -0.00031036 6.10616e-05)
(0.112708 -0.000155167 -0.000136807)
(0.108948 9.39322e-06 -9.5866e-05)
(0.108166 -0.000292599 -0.000354286)
(0.113718 -0.000231138 -0.000120301)
(0.108473 0.00032152 -0.000453579)
(0.110836 -0.000463051 -0.000689389)
(0.112649 0.000269763 -0.000171622)
(0.112859 0.000233734 -0.000137382)
(0.11452 0.0003802 -0.000226666)
(0.108401 -0.000251255 -4.9138e-05)
(0.113001 -6.1445e-05 -0.000408778)
(0.114713 -1.58563e-05 -0.000136326)
(0.109763 0.000605575 -0.00128645)
(0.109509 0.000880038 0.000354001)
(0.112918 -0.000276509 -0.000398183)
(0.109689 -5.55683e-05 5.43365e-05)
(0.11293 -8.51797e-05 -0.000173332)
(0.109347 -0.000263346 8.0912e-05)
(0.114207 -0.000556492 -0.000238755)
(0.1105 0.000124129 0.000428502)
(0.111243 0.000177377 0.000195995)
(0.114816 0.000179522 0.000364485)
(0.108165 -9.00419e-05 0.000184977)
(0.112032 0.000106218 0.000197191)
(0.111923 -8.09605e-05 0.000291073)
(0.114611 -3.6003e-05 -0.000468527)
(0.114511 5.94683e-05 0.000156126)
(0.114031 0.000121427 -0.000164416)
(0.109504 0.00050666 0.000420822)
(0.11355 -0.000168311 -0.000408337)
(0.114095 0.000109437 0.000461894)
(0.110922 -0.000395491 -9.02329e-05)
(0.114377 4.89935e-05 -0.00020526)
(0.113863 4.77163e-05 -3.44504e-06)
(0.113576 0.000246321 8.73562e-06)
(0.113857 -2.11884e-05 -0.000312233)
(0.113234 3.46028e-05 -0.000217461)
(0.114781 0.000229049 0.000178053)
(0.114291 0.000482056 0.000572983)
(0.1147 -0.00018106 0.000162302)
(0.113426 0.000246595 0.000154721)
(0.112219 -4.70863e-05 -0.000313772)
(0.113351 1.16508e-05 7.60854e-05)
(0.113054 0.000159664 -9.42305e-05)
(0.109006 -0.000627078 -9.80729e-05)
(0.112578 -0.000461185 0.000113547)
(0.113292 -3.57381e-07 0.000266385)
(0.114237 -0.000119561 -9.24741e-05)
(0.114258 -0.000228241 -0.000389107)
(0.112849 -0.000213684 0.000141621)
(0.11506 0.000545763 0.000167475)
(0.114333 0.000193723 -0.000133231)
(0.11184 -0.000445875 0.000634424)
(0.11304 0.000163059 -0.000363876)