/*--------------------------------*- C++ -*----------------------------------*\
| =========                 |                                                 |
| \\      /  F ield         | OpenFOAM: The Open Source CFD Toolbox           |
|  \\    /   O peration     | Version:  2212                                  |
|   \\  /    A nd           | Website:  www.openfoam.com                      |
|    \\/     M anipulation  |                                                 |
\*---------------------------------------------------------------------------*/
FoamFile
{
    version     2.0;
    format      ascii;
    arch        "LSB;label=32;scalar=64";
    class       surfaceVectorField;
    location    "0.012";
    object      Uf;
}
// * * * * * * * * * * * * * * * * * * * * * * * * * * * * * * * * * * * * * //

dimensions      [0 1 -1 0 0 0 0];

internalField   nonuniform List<vector> 
68568
(
(0.113302 0.000409616 -0.000226434)
(0.112861 0.000638206 -0.000226401)
(0.11262 0.000397003 -0.000101075)
(0.114257 0.000763987 -0.000261439)
(0.113267 -0.000218139 -5.58616e-05)
(0.113221 -0.000302136 -0.000213353)
(0.112632 -0.0002152 5.17527e-05)
(0.109845 -8.06346e-05 -1.42223e-06)
(0.113775 0.000162104 5.12783e-05)
(0.113559 -0.000346908 0.000412587)
(0.112956 -0.000135239 -1.16094e-05)
(0.111434 -0.000473924 0.000419353)
(0.11463 -0.000108847 -5.49276e-05)
(0.113856 0.000124129 -0.00011446)
(0.114778 6.87993e-05 -2.71451e-05)
(0.114828 2.30006e-05 -5.17708e-05)
(0.111394 -0.000168621 -2.7297e-05)
(0.113255 -0.00035579 3.96338e-06)
(0.110965 -0.000172278 -0.000179748)
(0.112903 -0.000378078 -0.000201725)
(0.113532 4.23417e-05 -7.94885e-05)
(0.112841 0.000160135 6.05121e-06)
(0.113527 0.000157567 -1.31189e-05)
(0.110528 0.000113874 -0.00031915)
(0.112151 -3.9699e-05 -0.000248352)
(0.109152 -2.54788e-05 -4.45295e-05)
(0.110368 0.000126743 -0.000379374)
(0.112183 1.73571e-06 -0.000286956)
(0.112265 0.000136376 0.000322907)
(0.113662 0.000130295 -0.000133748)
(0.112781 -8.65977e-05 -4.4502e-05)
(0.1132 -9.45061e-05 -0.000194631)
(0.112443 7.93452e-05 -0.000217605)
(0.112479 0.000161731 -0.000453898)
(0.113846 -0.000184697 -5.20826e-05)
(0.113573 -0.000175074 -0.00023645)
(0.114208 5.10269e-05 -0.000392887)
(0.114438 -0.000231595 -0.000194066)
(0.114289 0.000410039 -0.000155139)
(0.113752 0.000273297 -0.000195053)
(0.114171 0.000195029 -0.000169701)
(0.112591 2.49591e-05 -0.000275345)
(0.114565 -0.000244796 -0.000449331)
(0.114322 -0.00030372 -0.000358913)
(0.113302 -6.10481e-05 3.17812e-05)
(0.112782 -0.00018183 6.63451e-05)
(0.110151 6.41567e-05 -0.000176801)
(0.114183 -8.93794e-05 -0.000210025)
(0.114172 -5.23939e-05 8.97702e-05)
(0.113854 -2.07553e-05 1.38097e-05)
(0.112292 -4.19859e-05 1.34231e-05)
(0.112033 -0.000233232 -7.77111e-05)
(0.112913 -0.000260783 -0.000170786)
(0.112621 -0.000221016 -3.17643e-05)
(0.109687 -0.000272153 -8.28772e-05)
(0.112161 -0.000200883 0.000495493)
(0.109193 -0.000121949 0.000239355)
(0.110362 -0.000126066 0.000443181)
(0.112198 -0.000101917 0.000190062)
(0.112069 5.64861e-05 6.05534e-06)
(0.112553 0.000163326 3.94098e-05)
(0.112364 5.53779e-05 -7.50289e-05)
(0.113207 -9.00832e-05 -0.000108283)
(0.10983 0.000229942 0.000218682)
(0.109899 -0.000310698 0.00045772)
(0.112191 -9.89667e-05 0.000106385)
(0.112016 0.000119495 -0.000435671)
(0.110605 -0.000174821 -5.57924e-05)
(0.109549 0.000173574 -0.000490224)
(0.112348 -1.9235e-05 -0.00029298)
(0.11302 -1.78581e-05 -7.865e-05)
(0.113693 -0.000230264 -5.24854e-05)
(0.113508 -0.000296905 -7.88451e-05)
(0.110936 -0.000114384 -3.3862e-05)
(0.109346 -0.00011276 -0.000140082)
(0.110481 6.48025e-05 -3.45297e-05)
(0.109553 0.000234757 -8.65132e-05)
(0.10323 -4.41776e-05 -0.000188703)
(0.113327 -0.000184977 -0.000188192)
(0.114321 0.000102951 -0.000246653)
(0.113508 -4.11987e-06 -0.0002268)
(0.113844 -1.59536e-05 -0.000306368)
(0.113993 0.000235093 -7.55278e-05)
(0.113831 0.000268137 9.64086e-05)
(0.112322 0.000332544 0.000132311)
(0.114342 0.000370119 -4.10616e-05)
(0.110459 0.000187704 -0.000175367)
(0.110745 2.31065e-05 -0.000161386)
(0.112448 0.000274904 -0.000231826)
(0.112695 0.000137591 -2.76143e-05)
(0.109096 1.04072e-05 2.51073e-05)
(0.111735 -7.14531e-05 -0.0001216)
(0.110307 0.00022464 -0.000350012)
(0.111861 -1.49705e-05 0.000113877)
(0.112409 0.000215983 -0.000118865)
(0.112419 -4.00646e-05 1.92188e-05)
(0.113778 6.58904e-05 0.000408183)
(0.112989 1.57314e-05 -6.91314e-05)
(0.113585 -0.000142035 -5.69116e-06)
(0.110805 -6.61926e-05 0.000263199)
(0.11583 0.000209912 0.00034033)
(0.114507 0.000293965 0.000209109)
(0.116184 8.96538e-05 -1.38722e-05)
(0.115351 -0.000118651 -0.000442489)
(0.112811 0.000252083 0.000349813)
(0.109122 0.000359745 1.31443e-05)
(0.110257 0.000253651 0.000188338)
(0.113876 0.000227125 0.000132767)
(0.113321 6.6966e-05 0.000353911)
(0.113871 0.000265532 0.000109034)
(0.114395 -0.000195413 -0.000113728)
(0.113729 5.01643e-05 -2.31926e-05)
(0.114478 -0.000141485 -0.000108133)
(0.113438 -8.75912e-05 -5.17653e-05)
(0.112008 -0.00021868 -9.50932e-05)
(0.112009 -7.42569e-05 -0.00015969)
(0.10984 0.000157043 2.14123e-05)
(0.109563 -0.000232222 0.000222029)
(0.114118 0.000127622 -0.00022074)
(0.113794 5.83574e-05 -0.000230307)
(0.113891 5.72334e-06 -0.000370611)
(0.114232 -1.71455e-05 -0.000349741)
(0.110481 4.24723e-05 -0.000279774)
(0.109718 -0.00011146 -6.22683e-05)
(0.112633 -2.58168e-05 -7.6954e-05)
(0.11266 0.000121131 -4.82573e-05)
(0.110583 4.60424e-05 2.28635e-05)
(0.109107 -2.04061e-05 -8.58499e-06)
(0.109067 -0.000190076 -0.000141111)
(0.103797 -0.000142121 4.17912e-06)
(0.114147 0.000385507 -0.000298647)
(0.108974 0.000110451 4.20339e-05)
(0.109032 -0.000249235 -7.93034e-05)
(0.107574 -0.000108105 4.47096e-05)
(0.103195 -0.000131803 1.01392e-05)
(0.114463 -0.000169756 0.000179008)
(0.114317 -0.000390233 0.000239688)
(0.114464 -9.26323e-05 0.000316881)
(0.113991 -0.000254136 0.000214469)
(0.113555 -0.000143628 0.000166732)
(0.113506 -6.46601e-05 0.000247818)
(0.11433 -5.75595e-05 0.000346894)
(0.108187 0.000382969 -0.00027435)
(0.109067 -0.000194465 -2.2785e-06)
(0.103822 8.89935e-05 -9.51705e-05)
(0.111246 -5.82593e-05 -8.48651e-05)
(0.109617 -9.82359e-06 -0.000229884)
(0.104021 0.000111905 -0.000228138)
(0.110096 1.47766e-05 0.000136304)
(0.110058 -0.000183887 -3.73728e-05)
(0.110722 -0.000206021 -1.78404e-05)
(0.103361 -0.000101484 0.000131168)
(0.114178 -9.94018e-05 8.38317e-05)
(0.113303 -0.000101067 2.56764e-05)
(0.113378 -0.000182093 -0.000185555)
(0.114104 -0.000662448 -0.000314606)
(0.113285 -0.000564337 -0.00053046)
(0.114174 -0.00038281 -0.000684454)
(0.113765 -0.000336292 0.000367423)
(0.113908 -0.000459554 0.000131643)
(0.113461 -0.000133665 0.000158807)
(0.114555 -0.000408838 -9.03141e-05)
(0.114014 -0.000395618 -4.92838e-05)
(0.113702 -0.000262556 -0.000244555)
(0.114524 -6.66082e-05 -0.000370817)
(0.112652 0.000108779 -0.000181685)
(0.111917 0.0003288 -0.00025302)
(0.109279 9.01811e-05 -0.000112277)
(0.112544 0.000324028 -0.000386476)
(0.112789 9.67412e-05 -0.000297535)
(0.111229 0.000228347 -0.000576026)
(0.110241 0.000230161 -0.000234534)
(0.112097 -6.40607e-05 0.000184985)
(0.111831 3.17766e-05 7.38773e-05)
(0.113284 0.00010924 -0.000195957)
(0.112629 -4.37289e-05 0.000128049)
(0.113739 -5.31032e-05 -0.00027377)
(0.113808 -7.57497e-05 -0.000202398)
(0.113923 0.000190636 -0.000172793)
(0.11458 0.000266245 -0.000387363)
(0.114859 5.86468e-05 -0.000131875)
(0.110377 2.67574e-05 -0.00035212)
(0.108882 0.000165814 -0.000128651)
(0.109316 5.62203e-05 -5.72093e-05)
(0.102638 0.000151611 -0.000140475)
(0.113741 0.000317961 5.62758e-05)
(0.113089 0.000241496 1.99857e-05)
(0.114345 0.000175881 3.81925e-05)
(0.113974 6.44389e-05 0.000115211)
(0.108311 -0.000109149 -1.0442e-05)
(0.103321 -8.60916e-07 9.89966e-05)
(0.111089 2.73588e-05 -0.000247984)
(0.110911 -0.000150995 -1.89906e-05)
(0.113008 1.57809e-05 -0.000197364)
(0.113027 -0.000110995 -8.32109e-05)
(0.11139 0.000133452 0.000178172)
(0.111751 9.21583e-05 0.000145664)
(0.112999 -0.000176876 -6.37161e-06)
(0.110334 0.000133189 -0.000393077)
(0.109439 0.000101949 -0.000166525)
(0.110465 0.000205024 1.06197e-05)
(0.103621 0.000379421 -0.000105168)
(0.113644 0.00014322 0.000395677)
(0.113535 -5.24049e-05 0.000130629)
(0.112908 9.42742e-05 0.000272182)
(0.11083 0.00011019 0.000348544)
(0.113685 -0.000296887 0.000184469)
(0.112994 -7.07088e-05 0.000311122)
(0.113618 -0.000168519 6.65009e-05)
(0.110481 -2.39891e-05 0.000240176)
(0.108903 9.96304e-07 -0.000141475)
(0.109025 0.000286099 -6.7672e-05)
(0.104099 5.79722e-05 -0.000107569)
(0.112198 -0.000205347 -0.000268936)
(0.111996 0.000111332 -0.000135119)
(0.1122 0.00011936 -4.01385e-06)
(0.113363 0.000316255 -4.07516e-05)
(0.112706 0.000286118 5.0108e-05)
(0.113985 0.000130751 -0.000189972)
(0.113033 0.000257296 -0.000273981)
(0.112018 -8.31059e-05 -0.000263885)
(0.11026 -9.50962e-05 -0.00032317)
(0.11031 -0.000128118 -0.000216394)
(0.103951 -0.000197642 -0.000187451)
(0.113656 3.08842e-05 -5.63158e-05)
(0.113718 0.000166658 0.000110912)
(0.110249 0.000118976 -0.000118905)
(0.112163 -1.54318e-05 -8.63758e-05)
(0.112288 0.000178906 6.80067e-06)
(0.113419 0.000185551 6.2858e-05)
(0.11242 0.000170395 0.000194176)
(0.114628 8.32453e-05 -0.00039163)
(0.114698 -2.62141e-05 -0.000361774)
(0.114621 -6.41572e-05 -0.000266174)
(0.114118 3.76944e-05 -0.000251814)
(0.111545 0.000288367 -0.000670573)
(0.113121 0.000104096 -0.000611891)
(0.113454 -0.000196465 -0.000470422)
(0.112772 -0.000145296 3.6626e-05)
(0.113445 -0.000138765 -3.22853e-05)
(0.11279 -6.6267e-05 9.43704e-05)
(0.110555 2.06069e-05 -0.00016425)
(0.110593 -0.000571685 -7.61444e-05)
(0.110832 0.000193804 -7.39768e-05)
(0.103536 -1.31863e-05 -0.000172177)
(0.114465 0.000345191 -1.11933e-05)
(0.114641 0.000271162 -0.000201077)
(0.11415 0.000150095 -8.54082e-05)
(0.114547 0.000192042 -0.000351794)
(0.114185 0.000208133 -2.3501e-06)
(0.113341 5.89477e-05 -1.00275e-05)
(0.11395 -0.000124609 -0.000148558)
(0.113588 0.000156855 -0.000214001)
(0.111561 -0.000294914 -0.000515196)
(0.111411 4.62782e-05 -9.98644e-05)
(0.112393 -0.000212375 -0.000508679)
(0.107562 -0.000582694 -0.000420281)
(0.113474 -0.000123685 -0.000334667)
(0.113482 -0.000294255 -0.000515166)
(0.1143 -0.000207301 -0.000234902)
(0.114293 -0.000111456 -0.000268873)
(0.113831 -5.14422e-05 -0.000201274)
(0.113073 -0.000116822 -0.000144828)
(0.112988 2.91169e-05 -8.52168e-05)
(0.110772 0.000113084 -0.000372839)
(0.113832 0.000134219 0.000145416)
(0.113576 0.000146783 -3.73954e-05)
(0.112361 -2.34833e-05 -0.000152383)
(0.109247 -0.000108006 -0.000426186)
(0.10893 -8.48034e-05 -0.000251888)
(0.109946 4.1042e-05 -0.0004333)
(0.10322 0.00017504 -0.000195757)
(0.11409 -0.000372063 -1.47199e-05)
(0.114087 -0.000443699 0.000136868)
(0.114673 -0.000438399 0.000106228)
(0.110959 0.000667831 -0.000384168)
(0.112998 8.57694e-05 -0.000199385)
(0.112765 0.00026583 -0.000151595)
(0.112944 -0.00017828 0.000304146)
(0.113271 2.31749e-06 0.000141681)
(0.113567 8.53124e-05 0.000252879)
(0.110279 -7.89528e-05 0.00025109)
(0.110537 -0.000211457 -7.22995e-05)
(0.114051 -4.57848e-05 4.69541e-05)
(0.112547 0.000131366 -1.66806e-05)
(0.114122 0.000256728 5.61805e-05)
(0.109316 0.000406937 -0.000234055)
(0.111782 1.53527e-05 -7.46542e-05)
(0.111913 6.16899e-05 5.2344e-05)
(0.107491 0.000113035 -0.000176275)
(0.108279 0.000214285 0.000197437)
(0.107933 1.73033e-06 0.000127876)
(0.103505 6.09969e-05 9.97046e-05)
(0.114457 9.67665e-05 -1.61669e-05)
(0.113575 5.98739e-05 -0.000235649)
(0.114478 -2.92937e-05 -7.79271e-05)
(0.114135 -0.0002421 5.16045e-05)
(0.114337 -0.000282246 -0.000241583)
(0.113993 2.82833e-05 -6.24916e-05)
(0.114059 -4.85017e-05 -0.0001967)
(0.110604 -0.000101698 5.413e-05)
(0.1126 -0.000117475 -9.62152e-05)
(0.113515 -0.000187468 -8.51803e-05)
(0.113714 -5.52038e-05 -0.000119623)
(0.1126 -3.06586e-05 0.000132007)
(0.114443 -0.000115655 -0.000121048)
(0.113523 -3.07882e-05 -0.000324109)
(0.113682 1.69201e-05 7.4003e-05)
(0.114438 -0.000104939 -0.000117717)
(0.114588 -5.54265e-05 0.000118168)
(0.114056 -0.000111045 -1.88697e-05)
(0.114564 -6.47702e-05 -0.000166804)
(0.113879 2.16452e-05 -0.000154442)
(0.113792 -9.62794e-05 -0.000167928)
(0.114439 8.10163e-05 -0.000372544)
(0.109315 0.000945551 -0.00068036)
(0.11127 0.000195768 -0.000872927)
(0.110526 0.000521334 -0.000676294)
(0.102115 0.000200685 -0.000421893)
(0.113815 6.36359e-06 -0.000133595)
(0.114005 -0.000125825 -0.000104464)
(0.114575 4.89519e-05 -0.000320237)
(0.113213 -9.86366e-05 0.000179438)
(0.114038 5.34643e-06 1.14026e-05)
(0.11046 8.99924e-05 -5.05474e-05)
(0.110849 -2.76504e-05 -7.23769e-05)
(0.110615 -5.7973e-05 -5.82404e-05)
(0.112715 -0.000143596 8.5991e-05)
(0.112441 -0.000205234 -7.96147e-05)
(0.109954 -0.000185134 -0.000642195)
(0.110318 -0.000241522 -6.27728e-05)
(0.103029 -0.000202368 -9.84669e-05)
(0.112199 0.000352677 -0.00039436)
(0.113131 0.000175642 -0.0005148)
(0.109973 -0.000116735 -0.000229399)
(0.109753 -0.000341554 -6.71199e-05)
(0.111824 -0.000446022 -0.000126418)
(0.109419 -0.000327555 -0.000210523)
(0.111691 -0.000346828 -0.000124607)
(0.112911 0.000544764 -9.66516e-05)
(0.112865 0.000632588 -0.0001127)
(0.112095 0.00064308 0.000163374)
(0.11043 0.000593298 0.000124397)
(0.111674 0.000331183 -8.80915e-05)
(0.112221 7.28579e-05 -0.00020469)
(0.113592 0.000348829 -3.86597e-07)
(0.114041 -0.000169675 9.57363e-05)
(0.113856 -0.000120872 0.000169925)
(0.110259 -5.40664e-05 0.000205277)
(0.112851 0.000115133 0.000114929)
(0.112732 0.000180693 4.24144e-05)
(0.113445 7.42323e-05 -1.31412e-05)
(0.110258 1.38258e-05 -0.00021976)
(0.109948 -0.000383397 -6.06453e-05)
(0.110388 -3.23388e-05 -0.000146822)
(0.109545 -0.00049581 -0.000298549)
(0.103456 -0.0002946 -3.67032e-05)
(0.113375 0.000210823 8.77177e-05)
(0.113496 4.00791e-06 4.51542e-05)
(0.111967 -2.25227e-06 -0.000284756)
(0.113533 -4.52288e-05 -0.000172097)
(0.113334 6.50316e-05 0.000163602)
(0.112609 2.65002e-05 0.000173874)
(0.112603 0.000289013 9.09565e-05)
(0.11202 -0.000212055 -0.000242224)
(0.109792 2.56758e-06 -0.00013398)
(0.10879 -1.85239e-05 -0.00018128)
(0.109996 -0.000319821 -0.000211732)
(0.109361 1.80354e-05 -0.000280904)
(0.103271 -8.34429e-05 1.12056e-05)
(0.110515 6.62089e-05 -0.000272384)
(0.103105 7.95269e-05 -0.000299075)
(0.113941 -0.000216177 -8.19745e-05)
(0.11483 2.86613e-05 0.000165229)
(0.11489 -0.000102654 -0.000119903)
(0.10418 0.00013727 0.000180685)
(0.109378 -0.000188368 -0.00045247)
(0.110152 -6.1426e-05 -0.000144159)
(0.109819 -0.000286208 -0.00038464)
(0.102669 -4.49517e-05 -0.000623243)
(0.109426 0.000476139 -2.42326e-05)
(0.111774 0.000417468 3.2247e-05)
(0.109086 -5.38147e-05 0.000277404)
(0.108418 0.000146096 5.94957e-05)
(0.109533 0.000349363 0.000255228)
(0.103383 -1.99161e-05 5.98707e-05)
(0.114103 -0.000463285 6.44812e-05)
(0.113035 -0.000458333 0.000256184)
(0.113245 -0.00030363 0.000167622)
(0.114132 -0.000426683 5.94143e-05)
(0.111245 -5.55813e-05 -0.000455621)
(0.11051 -0.000132221 -0.000219055)
(0.110091 -6.80715e-05 -0.000165783)
(0.103142 0.000156124 -0.000202828)
(0.113414 4.94684e-05 -0.000298267)
(0.112865 9.2659e-05 -0.000260719)
(0.11315 -0.000372985 -0.00020076)
(0.110806 -4.43642e-05 -0.000385275)
(0.110397 -0.000239357 -0.000306789)
(0.110373 -0.000245575 -0.000370832)
(0.11214 -0.000255957 -0.000353744)
(0.113911 2.26887e-05 -0.000240536)
(0.113841 0.000109156 -0.000272165)
(0.113268 0.000135871 -0.000181379)
(0.110345 0.000267747 -0.000370915)
(0.110317 0.00011241 -1.80834e-05)
(0.109064 -0.00019497 9.5481e-05)
(0.10975 -0.00023147 0.000289014)
(0.103432 -0.00019058 -3.79617e-05)
(0.113115 0.000199716 1.72056e-05)
(0.110398 0.000185155 -0.000331384)
(0.110224 -1.48699e-05 6.10535e-05)
(0.112724 -0.00048625 9.95425e-05)
(0.110431 -0.00029356 0.000132046)
(0.112586 -0.000323393 0.000263982)
(0.113732 -0.000110759 -9.97944e-05)
(0.112252 -0.000163593 -0.000198557)
(0.113617 -0.000143789 -0.000156113)
(0.113477 0.000215382 0.000160202)
(0.113481 -5.55966e-05 6.70356e-05)
(0.110487 -0.000104687 0.000110993)
(0.112328 -0.000313746 -0.000106804)
(0.112655 -0.000136637 -0.000249642)
(0.113426 -2.41541e-05 -0.000150485)
(0.113357 -0.000219311 4.62924e-06)
(0.11354 -0.000220739 0.000171891)
(0.114319 -9.16971e-05 0.000108652)
(0.114577 -0.000198524 0.000203973)
(0.113692 3.23993e-05 -0.000225317)
(0.11366 3.45302e-05 -0.000403709)
(0.114652 6.04259e-05 -0.000322697)
(0.111979 0.000312426 -0.000289899)
(0.113083 0.000185035 -0.000245839)
(0.113324 3.69792e-05 -0.000452368)
(0.111348 -0.000452593 -0.000130992)
(0.113949 0.000341414 -0.000471849)
(0.11271 -0.000153376 4.43742e-05)
(0.113858 0.000182273 0.000196609)
(0.113839 9.99292e-05 2.44291e-05)
(0.113959 -0.000106443 7.15302e-05)
(0.11326 0.000128616 7.33683e-05)
(0.113684 3.5682e-05 0.0001804)
(0.110088 2.68717e-05 7.51462e-05)
(0.109244 7.39192e-05 -0.000297609)
(0.109278 -3.23108e-05 -0.000190704)
(0.109835 -0.000515817 -0.000197906)
(0.11201 -0.000399868 -0.00014618)
(0.112139 -0.00039096 -0.000217293)
(0.113426 -0.000339825 7.76922e-05)
(0.113247 -0.00016751 -3.98007e-05)
(0.114294 -0.00017696 -0.000267897)
(0.114361 -0.000124145 -1.01626e-05)
(0.113962 -0.000135997 -0.00017337)
(0.113043 -0.00031653 -0.000231272)
(0.113014 9.79879e-06 -0.00015882)
(0.11383 6.26432e-05 -8.42946e-06)
(0.113849 0.000247379 -0.000208681)
(0.114411 5.81439e-05 -0.000462757)
(0.11399 0.000170933 -0.000154382)
(0.114419 -0.000109059 -0.000296692)
(0.113812 -0.000129511 -1.20358e-05)
(0.11352 2.56432e-05 5.8416e-05)
(0.112973 -0.000350368 9.30644e-05)
(0.114168 -0.000269496 2.71207e-05)
(0.113167 6.86111e-06 4.4075e-05)
(0.110904 -4.86337e-05 -0.000277532)
(0.113803 -6.02345e-06 4.58867e-05)
(0.110719 0.000143969 -0.000513509)
(0.113724 1.6305e-05 -0.000125136)
(0.114359 -1.22441e-06 -0.000297242)
(0.113573 7.5873e-05 -0.000269523)
(0.113903 7.20305e-05 0.000261018)
(0.110265 6.10354e-05 -7.65428e-05)
(0.108906 -2.70104e-05 -0.000324829)
(0.103848 -5.14896e-06 -0.000236943)
(0.10939 -0.000502746 -0.00057174)
(0.103073 -0.000358105 -0.000139524)
(0.114606 0.000295333 0.0004915)
(0.11372 0.000288563 0.000123269)
(0.113077 -0.000164457 -0.000198953)
(0.11028 -0.000146482 -0.000118928)
(0.113817 1.10174e-05 -0.000380403)
(0.113681 -2.25396e-06 -0.000216466)
(0.113022 -7.77871e-05 -0.0001515)
(0.110139 -8.29184e-05 -8.01576e-05)
(0.114456 0.000154323 0.000398304)
(0.114544 5.13902e-06 0.000426013)
(0.114537 1.97122e-05 0.000398098)
(0.113802 9.47577e-05 0.000391611)
(0.113687 0.000413775 6.5699e-05)
(0.11362 0.00027194 1.20141e-05)
(0.114257 0.000326137 -4.24415e-05)
(0.108711 -8.32275e-06 -0.000176024)
(0.109915 0.000118611 -1.91358e-05)
(0.102686 -8.17716e-05 -0.000247982)
(0.110558 0.000246022 -0.000324409)
(0.109874 -0.000112723 -0.000291124)
(0.109289 8.52275e-05 -0.000354512)
(0.103305 -0.000103866 -0.000551673)
(0.114056 -7.50717e-05 -2.97494e-06)
(0.112884 -0.000161709 -0.000293337)
(0.114134 -0.000247109 -0.000100805)
(0.112214 -0.000157244 -0.000204135)
(0.11352 -0.000176219 -0.00028636)
(0.109577 -8.94986e-05 -0.000326699)
(0.109994 -5.01407e-05 -0.000417465)
(0.10324 -0.000166228 -0.000243166)
(0.110631 -0.000189024 -0.000149386)
(0.109282 4.43086e-05 -3.35094e-05)
(0.109019 -1.35138e-05 0.000102738)
(0.104124 -6.00064e-05 3.50157e-05)
(0.113999 -0.000296811 -1.47667e-05)
(0.113321 -0.000155723 6.43685e-05)
(0.113236 -0.000123359 -0.000179841)
(0.114057 -5.24087e-05 -0.000189652)
(0.110449 -7.61667e-05 -0.000670523)
(0.110274 0.000207299 -0.000424554)
(0.112082 -3.9699e-05 -0.000400757)
(0.103666 -0.00012188 -0.000609791)
(0.112689 0.00019292 9.88951e-05)
(0.112931 -0.000242358 -3.27564e-06)
(0.11276 -6.7229e-05 6.08988e-05)
(0.110061 -1.27889e-06 0.00019382)
(0.110628 -0.000222493 -0.000200644)
(0.112625 -5.3927e-06 -0.00038489)
(0.112451 8.45178e-05 -0.000492405)
(0.112937 -1.82304e-05 -0.000161534)
(0.114101 -8.71346e-05 -7.66127e-05)
(0.113433 0.000121999 9.61724e-05)
(0.11096 0.000228439 -0.00053071)
(0.109441 0.000360903 -0.00036816)
(0.110591 0.000688643 -0.000427859)
(0.102517 -0.000133909 -0.000430004)
(0.114769 -5.5804e-05 6.13337e-05)
(0.114747 -0.000138033 0.000105212)
(0.11354 -1.79123e-05 3.36633e-05)
(0.114747 3.03762e-05 3.86351e-05)
(0.113572 -3.14979e-05 -0.000244853)
(0.111786 -1.9807e-05 -0.000202591)
(0.111504 7.47923e-05 -0.00040846)
(0.113392 -2.99247e-05 -8.70922e-05)
(0.11131 -0.00069096 -6.16765e-05)
(0.111577 -0.000526583 0.000127022)
(0.103694 -0.000150265 -0.000141737)
(0.110834 -0.00052559 0.000673842)
(0.109988 -0.000245341 0.000595625)
(0.111138 -0.00043436 0.000400039)
(0.103017 -1.5855e-05 0.000114253)
(0.112428 -0.000186438 -8.95474e-05)
(0.109363 -0.000175698 -4.47846e-05)
(0.110808 -0.000206661 -0.000585762)
(0.114783 -6.67804e-05 -0.000138963)
(0.114104 -4.13956e-05 -0.000229078)
(0.109704 0.000231457 0.000245746)
(0.109113 9.46217e-05 0.000163632)
(0.110263 -0.000133003 -7.70489e-05)
(0.102965 -5.05171e-05 0.000176301)
(0.111184 -0.000169725 -0.000478291)
(0.111126 0.000280341 -0.000171433)
(0.103694 -0.000317161 -0.000545034)
(0.109116 -6.72819e-05 0.000196791)
(0.110749 0.000113395 0.000136673)
(0.109367 -0.000189486 3.83236e-05)
(0.103698 -9.88337e-05 2.69126e-05)
(0.109358 -0.000505313 -3.64493e-05)
(0.110919 -0.00045091 0.00040033)
(0.110208 -0.000689925 -7.69902e-05)
(0.102832 -0.000278626 -0.000138101)
(0.111773 0.00012447 -0.000161041)
(0.112484 0.000132483 8.24123e-05)
(0.112707 -9.74559e-05 2.4006e-05)
(0.109483 2.50574e-05 3.72753e-05)
(0.10982 0.000457091 0.000169476)
(0.109291 0.000243268 0.000262187)
(0.103656 0.000204077 0.000204773)
(0.114067 -0.000395994 -8.30536e-06)
(0.113729 -0.000298699 6.83099e-05)
(0.114108 -0.000296476 -7.09605e-05)
(0.113871 -0.000403105 2.24205e-05)
(0.113699 -0.000181084 0.000150346)
(0.113758 -0.000128071 -9.41922e-05)
(0.114565 -0.000224891 7.44878e-05)
(0.114758 -0.00017675 0.000142919)
(0.108129 0.000123547 -0.000640792)
(0.108242 4.02082e-05 -0.000179679)
(0.109615 8.27074e-05 -0.000260897)
(0.103893 -0.000259579 -0.000257016)
(0.111283 -0.000183923 0.000209152)
(0.111926 -0.000575151 3.83856e-05)
(0.111859 -0.000210691 8.20711e-05)
(0.107055 -0.000157101 0.00014281)
(0.112304 0.000467036 -0.000240957)
(0.11324 0.000292904 -0.000427042)
(0.113336 0.000275282 -0.000469498)
(0.110636 0.000128672 -0.000633104)
(0.110609 -4.76718e-05 -3.13992e-05)
(0.108905 -3.95005e-05 -9.91584e-05)
(0.108582 -0.000198409 -0.000129679)
(0.103808 7.1473e-05 -5.4776e-05)
(0.113754 -0.000119289 0.000273317)
(0.110729 -1.71729e-05 7.97772e-06)
(0.11331 -0.00030625 -0.000330107)
(0.114397 -7.8097e-05 -0.000291525)
(0.114006 -0.00013337 -6.66669e-05)
(0.113736 1.01857e-05 -0.000116642)
(0.113289 0.000279491 -5.89403e-05)
(0.112472 0.000251775 -6.61148e-05)
(0.110591 0.000369044 0.000164099)
(0.113885 8.00478e-05 -6.58117e-05)
(0.113356 0.000165023 0.000114235)
(0.113881 9.80476e-05 0.000247727)
(0.113888 0.000121814 0.000108518)
(0.113959 -3.71696e-05 -2.76041e-05)
(0.113903 -0.000172818 -3.39243e-05)
(0.110464 -0.000153414 -8.77415e-05)
(0.113255 -5.04694e-05 -0.00023279)
(0.112598 -0.000131415 -5.69958e-05)
(0.113258 -0.000124481 -4.12462e-05)
(0.109682 2.70996e-05 -0.000301366)
(0.113439 -5.04261e-05 -0.000119662)
(0.113639 0.000180505 -2.59753e-05)
(0.110492 0.000105883 2.92324e-06)
(0.11055 -0.000355602 0.000438599)
(0.112801 -0.000400972 0.00035589)
(0.112881 -0.000497025 0.000379585)
(0.112081 7.05063e-05 0.000140094)
(0.113084 -9.51007e-05 -0.000104497)
(0.113137 2.36247e-05 -3.56306e-05)
(0.110224 0.000189735 0.000176976)
(0.110237 0.000356658 0.000155618)
(0.108403 0.000337196 -0.000226491)
(0.103043 0.000659002 -0.000191772)
(0.113315 -3.14768e-05 0.00014101)
(0.114114 0.000164956 -0.00026508)
(0.114387 0.000624987 -0.000230472)
(0.112924 -0.000202553 8.07407e-05)
(0.112917 -0.000205374 0.000237443)
(0.109194 -0.000363891 0.000312448)
(0.11334 0.000254848 8.45504e-05)
(0.113964 -2.19466e-05 8.29835e-05)
(0.113898 0.000166705 -0.000130804)
(0.11397 0.000247814 -8.22731e-05)
(0.110164 -2.15601e-05 -9.77225e-05)
(0.110808 -0.000121675 3.55228e-05)
(0.110353 -0.000235638 -7.07072e-05)
(0.102891 0.000111592 1.92853e-05)
(0.109137 0.000111548 0.00027024)
(0.108999 -9.51203e-05 0.000261778)
(0.110053 -4.11765e-05 0.000448735)
(0.103345 -0.000149568 0.000258267)
(0.112898 -0.000103235 -0.000371057)
(0.113534 4.08189e-05 1.50168e-05)
(0.1142 -0.000138274 -0.000121292)
(0.113939 0.000152572 -4.58157e-05)
(0.113259 -0.000229052 1.28187e-05)
(0.114122 1.40614e-06 -7.62732e-06)
(0.112986 0.000135869 2.42054e-05)
(0.111644 -0.000113575 0.000560021)
(0.113072 -0.000126405 0.000147196)
(0.112869 -0.000176102 0.000332131)
(0.112063 -0.000171961 0.000546833)
(0.112839 -7.3533e-05 6.91129e-05)
(0.11369 -0.0001933 4.26972e-05)
(0.110476 -8.03199e-06 0.000195289)
(0.113928 -8.85432e-05 -0.000294784)
(0.114007 8.14313e-05 -0.000193358)
(0.113009 -6.58087e-05 -1.86935e-05)
(0.11045 0.000172367 -0.000151955)
(0.112707 3.74568e-05 -0.00025594)
(0.110574 2.14994e-05 -0.000255665)
(0.112708 0.000152571 -0.000137833)
(0.110383 0.000300545 0.000158962)
(0.112573 0.000421054 0.000273972)
(0.110922 0.000198284 0.000451622)
(0.112796 0.000327689 0.000267667)
(0.114341 8.7657e-05 -8.6896e-05)
(0.113095 0.000291678 -0.000222272)
(0.113378 -0.000177263 -0.00038545)
(0.110393 8.61999e-05 5.8073e-05)
(0.103302 1.91733e-05 -0.000146196)
(0.110561 0.000152243 -9.34682e-05)
(0.112512 5.97197e-05 -8.05066e-05)
(0.114431 0.000199978 -5.64017e-05)
(0.11432 -1.40403e-05 -3.05807e-05)
(0.113872 4.55e-05 2.66143e-05)
(0.114407 3.39155e-06 9.09789e-05)
(0.113953 -0.000283273 3.97908e-05)
(0.113875 -0.000335408 -0.000146038)
(0.113911 -0.000340432 -8.92134e-05)
(0.113935 -0.000319467 -0.000245611)
(0.114011 -0.000369743 -4.37402e-06)
(0.113922 -0.000380274 -3.6743e-05)
(0.112899 -0.000298905 6.92645e-05)
(0.112554 -0.000657065 0.000234647)
(0.113652 -0.000643325 -3.18118e-05)
(0.113412 -0.000628813 -0.000170031)
(0.112545 -8.27687e-05 -0.000201115)
(0.112501 1.85574e-05 -0.000384965)
(0.110486 -1.21287e-05 0.000128963)
(0.113924 0.000121247 -9.80502e-05)
(0.110781 -9.38022e-05 -7.56538e-05)
(0.112656 0.000331515 -0.00013992)
(0.112704 0.000351849 -0.0002419)
(0.113349 -9.84378e-05 -0.000133327)
(0.11025 -0.000142502 -0.000116334)
(0.11392 6.33528e-05 -0.000216973)
(0.112986 0.000153778 -0.000279192)
(0.113471 -5.96268e-05 -0.000329211)
(0.103467 3.87988e-05 -0.000215192)
(0.113062 8.77366e-05 -0.000168234)
(0.110619 -2.31507e-06 -0.00013555)
(0.110798 0.000141134 -0.000186554)
(0.112682 0.000208005 4.13893e-05)
(0.110653 0.000237615 -0.000185705)
(0.112872 0.000446274 -0.000131426)
(0.113136 -3.87626e-05 -0.00011494)
(0.112833 -1.28952e-05 -0.000185083)
(0.112722 9.73152e-05 -1.12195e-06)
(0.110725 0.000107287 -0.000216354)
(0.113958 6.76587e-06 -0.000228164)
(0.11286 -5.82451e-05 -0.000408537)
(0.113612 -0.000148752 -0.000331025)
(0.112622 -0.000251083 -0.000370852)
(0.11253 -0.000323691 -0.000304151)
(0.113788 -0.000217999 -0.000167361)
(0.11321 -0.000275959 -3.67602e-05)
(0.113834 0.00012055 -0.000307894)
(0.114013 -1.22252e-05 -0.000219456)
(0.109892 -0.000492628 -0.000179628)
(0.110526 -0.000650238 -0.000285969)
(0.103182 -7.06036e-05 -0.000225878)
(0.112035 -0.000351748 2.32948e-05)
(0.113278 -0.00032839 -4.05451e-05)
(0.114047 -0.000198306 -0.000204084)
(0.113015 -2.62565e-05 -0.000219717)
(0.114174 -0.000272788 -0.000167539)
(0.11434 -7.41316e-05 4.46505e-05)
(0.114056 1.47833e-05 -0.000107064)
(0.113523 8.157e-05 0.000110466)
(0.110899 -0.000158606 -0.000363545)
(0.113479 -0.000198551 -0.000388766)
(0.107752 0.00030865 0.000216727)
(0.109081 -8.4953e-05 0.000607292)
(0.108912 -0.000155249 0.000398665)
(0.102062 -0.000190734 0.000465883)
(0.113454 -0.000346628 -3.69903e-05)
(0.11302 -0.000449947 0.000115838)
(0.11088 -0.000371272 0.000504903)
(0.108758 -0.000534637 -0.000281284)
(0.103689 -0.000191484 -0.000158801)
(0.112313 0.000135827 -0.00018895)
(0.112416 0.000180636 -2.21616e-05)
(0.101555 -2.21319e-05 -0.000226094)
(0.113128 -0.000169227 0.000180414)
(0.114151 -0.000247949 0.000185659)
(0.109444 -9.7379e-07 0.000212125)
(0.111204 0.000369606 0.000265856)
(0.111633 5.13103e-06 8.22117e-05)
(0.110105 0.000246463 -0.000131187)
(0.110157 0.000124892 -0.000190903)
(0.11042 0.000238409 -0.000408796)
(0.102965 4.72065e-05 -4.109e-05)
(0.112835 -9.01611e-05 2.02805e-05)
(0.112505 -6.95585e-05 -1.95719e-05)
(0.112081 -3.54005e-05 3.89907e-05)
(0.113478 0.000401371 -0.000149157)
(0.114091 0.000315216 -0.000181003)
(0.112186 -3.5983e-05 -0.000154223)
(0.112857 -0.000134972 -0.000240904)
(0.113972 -0.000481149 -0.000225784)
(0.113657 0.00011874 0.000230826)
(0.110712 -0.000161571 -0.000104188)
(0.110612 -3.21148e-05 -0.000146478)
(0.10268 -3.12388e-05 -2.64625e-05)
(0.109499 -0.000423305 3.4471e-05)
(0.108593 -0.00021028 0.00029147)
(0.103499 -0.000189725 6.37176e-05)
(0.113672 -0.000448092 0.000159105)
(0.112536 -7.39687e-05 0.000303968)
(0.113262 -0.000260112 0.000311015)
(0.112434 -0.000176998 1.16243e-05)
(0.11374 8.94714e-05 -0.000310984)
(0.114383 1.28008e-06 -0.000309811)
(0.112927 0.000157738 -0.000297812)
(0.110015 0.000366654 9.05495e-05)
(0.110621 0.000156377 4.5491e-05)
(0.102275 0.000274481 -0.000373021)
(0.114055 -0.000523055 7.29478e-05)
(0.114109 -0.000528055 0.000156935)
(0.113924 -0.000478262 0.000149661)
(0.111566 -6.73079e-05 -0.000107934)
(0.110089 0.000107536 -0.000321237)
(0.103589 8.18843e-06 -0.000265355)
(0.108863 -4.69154e-05 0.000159465)
(0.108855 -0.000227756 0.000135993)
(0.103875 -8.25669e-05 -1.9588e-05)
(0.112902 0.000178003 -0.000124588)
(0.11276 0.000167678 -0.000110367)
(0.113556 0.000212592 9.81564e-05)
(0.110528 -0.000111926 -0.000103241)
(0.112522 -0.00015743 -0.000267172)
(0.113795 -0.000246592 5.82935e-06)
(0.112427 -0.000156333 0.000291674)
(0.113399 -8.21824e-05 -2.32445e-05)
(0.11191 -0.000564021 0.000261627)
(0.112826 -0.000440622 0.000102106)
(0.112896 -0.000462837 7.29967e-05)
(0.109171 -0.000377504 5.467e-05)
(0.109294 -7.40768e-05 0.000393716)
(0.111708 0.000181149 0.000282279)
(0.110559 -1.52185e-05 2.32651e-05)