/*--------------------------------*- C++ -*----------------------------------*\
| =========                 |                                                 |
| \\      /  F ield         | OpenFOAM: The Open Source CFD Toolbox           |
|  \\    /   O peration     | Version:  2212                                  |
|   \\  /    A nd           | Website:  www.openfoam.com                      |
|    \\/     M anipulation  |                                                 |
\*---------------------------------------------------------------------------*/
FoamFile
{
    version     2.0;
    format      ascii;
    arch        "LSB;label=32;scalar=64";
    class       volScalarField;
    location    "0.058";
    object      epsilon;
}
// * * * * * * * * * * * * * * * * * * * * * * * * * * * * * * * * * * * * * //

dimensions      [0 2 -3 0 0 0 0];

internalField   nonuniform List<scalar> 
31639
(
0.218102
0.219254
0.220259
0.213412
0.223943
0.223847
0.229422
0.219895
0.220229
0.215002
0.217325
0.215421
0.217419
0.213719
0.219363
0.231715
0.219408
0.226779
0.227587
0.221701
0.244965
0.216674
0.214799
0.227131
0.2322
0.221139
0.220802
0.179659
0.227799
0.215835
0.214266
0.229011
0.21318
0.231526
0.240749
0.215746
0.247046
0.215079
0.21543
0.256658
0.23806
0.243504
0.214044
0.218108
0.218676
0.214866
0.221066
0.224058
0.218008
0.213807
0.215172
0.250317
0.215395
0.250244
0.225212
0.22162
0.246354
0.220374
0.218858
0.243704
0.220097
0.219713
0.234414
0.221772
0.218171
0.213379
0.219323
0.21865
0.238991
0.213609
0.215172
0.222231
0.21503
0.219299
0.215384
0.242329
0.21421
0.225753
0.218956
0.217756
0.23219
0.257069
0.214664
0.217889
0.215489
0.215219
0.213818
0.214041
0.236584
0.213695
0.21868
0.22215
0.241845
0.21979
0.231158
0.221428
0.221732
0.219379
0.218647
0.24416
0.21498
0.216225
0.218627
0.244559
0.242684
0.214557
0.246375
0.251049
0.231582
0.249417
0.214587
0.244029
0.221935
0.226674
0.218165
0.249157
0.225964
0.226944
0.219824
0.219613
0.218201
0.215644
0.215195
0.219435
0.222567
0.215824
0.220273
0.23138
0.232465
0.214559
0.213017
0.214109
0.214787
0.227831
0.217052
0.21836
0.242328
0.246934
0.215121
0.219213
0.219554
0.214927
0.215195
0.246615
0.252865
0.214626
0.216749
0.241964
0.24127
0.214866
0.237669
0.223011
0.227758
0.218074
0.242048
0.213892
0.221773
0.240661
0.24054
0.228964
0.214694
0.243231
0.236806
0.247109
0.24694
0.219628
0.243501
0.215121
0.215546
0.243177
0.221171
0.222357
0.24227
0.217645
0.213767
0.216533
0.218496
0.215555
0.217757
0.217305
0.219953
0.225015
0.219904
0.253359
0.222481
0.214483
0.219061
0.214747
0.246051
0.246232
0.218243
0.217876
0.21875
0.220049
0.219257
0.226647
0.227861
0.214535
0.243742
0.225466
0.216116
0.215104
0.214726
0.214848
0.224837
0.219879
0.220807
0.218869
0.216709
0.254286
0.22026
0.226355
0.21865
0.21692
0.221988
0.213964
0.24133
0.23002
0.218799
0.216074
0.215159
0.224376
0.243986
0.225695
0.244865
0.22675
0.217247
0.233183
0.242305
0.219398
0.217849
0.214976
0.239344
0.248753
0.219148
0.217473
0.24354
0.214218
0.236774
0.245989
0.2198
0.218798
0.22065
0.233453
0.235102
0.220307
0.219038
0.220593
0.242096
0.219499
0.219938
0.244076
0.233448
0.215589
0.21706
0.228272
0.241201
0.215593
0.21652
0.228489
0.213276
0.214455
0.221963
0.21496
0.220374
0.226117
0.243591
0.229396
0.213203
0.220035
0.207176
0.229208
0.223667
0.220712
0.213719
0.223414
0.244408
0.225898
0.234481
0.215139
0.225352
0.215951
0.214492
0.227443
0.240839
0.238832
0.240664
0.250554
0.214718
0.237206
0.220023
0.219802
0.228778
0.238905
0.215865
0.228572
0.237406
0.216713
0.222791
0.237296
0.220279
0.237412
0.219661
0.219985
0.243162
0.226043
0.22096
0.252947
0.249264
0.214978
0.213835
0.207265
0.245336
0.242162
0.215556
0.236728
0.23201
0.215816
0.218014
0.220916
0.216083
0.213779
0.241115
0.213799
0.249577
0.250598
0.218325
0.215409
0.214841
0.213957
0.217698
0.238231
0.218551
0.219531
0.216016
0.216492
0.213395
0.220249
0.22134
0.219854
0.215103
0.21733
0.220446
0.22251
0.219195
0.223534
0.217872
0.219743
0.241893
0.2223
0.213977
0.225793
0.217726
0.213853
0.220166
0.24359
0.220285
0.220069
0.245578
0.216903
0.239965
0.221753
0.209709
0.251465
0.219836
0.220605
0.242994
0.220579
0.240181
0.223276
0.216051
0.221279
0.250082
0.218927
0.239559
0.218952
0.214985
0.216597
0.218296
0.240073
0.215376
0.244655
0.220025
0.249873
0.214075
0.214758
0.214324
0.214186
0.229638
0.218227
0.219453
0.219093
0.220259
0.245187
0.222088
0.217185
0.216144
0.21644
0.221511
0.216118
0.224873
0.243055
0.226132
0.218073
0.216421
0.250892
0.214812
0.215009
0.220505
0.215813
0.215123
0.223679
0.214358
0.233466
0.21875
0.21593
0.248217
0.221291
0.218871
0.240217
0.244213
0.243871
0.230342
0.247117
0.221566
0.211622
0.229557
0.21795
0.243322
0.215559
0.214046
0.219896
0.216951
0.225381
0.216222
0.221699
0.225676
0.213825
0.2187
0.243506
0.219803
0.215777
0.214622
0.218642
0.214348
0.221044
0.21816
0.218014
0.215672
0.218223
0.241587
0.222019
0.251822
0.231602
0.220059
0.245343
0.251723
0.227769
0.21715
0.216296
0.243195
0.218378
0.23149
0.219465
0.218613
0.20112
0.220103
0.251121
0.220269
0.21462
0.214774
0.216317
0.225527
0.243898
0.219626
0.218367
0.215083
0.248154
0.244426
0.220058
0.244735
0.238887
0.219815
0.248259
0.225676
0.235896
0.220004
0.243223
0.213928
0.21566
0.21512
0.215162
0.236145
0.214574
0.215145
0.220082
0.217594
0.218608
0.214298
0.219439
0.230913
0.21627
0.214392
0.21943
0.228886
0.213943
0.219453
0.250766
0.251863
0.219969
0.217415
0.213944
0.222165
0.218888
0.220231
0.215352
0.219899
0.226513
0.223398
0.240331
0.22012
0.221681
0.214848
0.239321
0.236008
0.237226
0.221672
0.219668
0.250115
0.21942
0.231598
0.218004
0.223588
0.214909
0.224873
0.241919
0.217462
0.213159
0.236707
0.215839
0.208841
0.21149
0.22096
0.180187
0.237416
0.219579
0.219826
0.240485
0.241699
0.219486
0.218825
0.218139
0.237283
0.224525
0.215053
0.22012
0.242476
0.234577
0.219251
0.214368
0.244945
0.252047
0.216951
0.246043
0.218211
0.21506
0.244701
0.21902
0.219174
0.225771
0.248873
0.214485
0.225684
0.239413
0.214272
0.217964
0.220896
0.215868
0.250541
0.229676
0.221808
0.22777
0.237895
0.228598
0.221298
0.214384
0.216383
0.216271
0.214322
0.216183
0.232552
0.215373
0.216477
0.216921
0.235796
0.219373
0.221785
0.21471
0.240773
0.250834
0.213609
0.234563
0.213554
0.221795
0.24059
0.221413
0.21506
0.224045
0.21935
0.243493
0.215433
0.219076
0.250882
0.215122
0.216148
0.187452
0.242692
0.243034
0.229099
0.21846
0.220369
0.221834
0.218838
0.215567
0.220421
0.221746
0.243431
0.213386
0.248853
0.218742
0.226579
0.221233
0.214365
0.218528
0.235094
0.246069
0.245192
0.225665
0.214673
0.233833
0.213926
0.227138
0.214737
0.242777
0.221577
0.217381
0.212809
0.215083
0.214313
0.218173
0.22284
0.214247
0.215102
0.216128
0.235927
0.215391
0.241261
0.216082
0.22405
0.221144
0.239398
0.221225
0.250251
0.214254
0.224182
0.216054
0.220282
0.221494
0.239601
0.204984
0.244549
0.255973
0.242458
0.240152
0.242403
0.222684
0.249342
0.213972
0.22072
0.252545
0.216029
0.242071
0.22809
0.220125
0.226571
0.218794
0.213658
0.212317
0.216616
0.223361
0.217538
0.228155
0.226135
0.245778
0.217436
0.214456
0.22046
0.217252
0.215629
0.243917
0.215578
0.215856
0.215747
0.215258
0.215602
0.218401
0.214627
0.214242
0.221379
0.216309
0.216191
0.240149
0.215759
0.227975
0.220868
0.220192
0.218662
0.230476
0.216114
0.220921
0.22053
0.226359
0.241784
0.214152
0.220911
0.229589
0.245191
0.215434
0.245347
0.213247
0.218626
0.220847
0.220288
0.214111
0.218231
0.246133
0.218346
0.228312
0.223681
0.238135
0.214885
0.215705
0.222297
0.221045
0.220504
0.219833
0.227928
0.223009
0.248588
0.2149
0.219369
0.213614
0.237776
0.218848
0.218087
0.221407
0.231051
0.217417
0.215229
0.222149
0.246338
0.247601
0.220562
0.246804
0.234861
0.220915
0.219198
0.213735
0.247534
0.219398
0.214464
0.238422
0.242908
0.217001
0.23887
0.222404
0.239215
0.217614
0.233727
0.229381
0.215008
0.247017
0.221119
0.220997
0.21587
0.2164
0.213327
0.242778
0.215134
0.217393
0.228798
0.214029
0.216621
0.220269
0.208674
0.218706
0.216336
0.214676
0.215998
0.216713
0.226001
0.219196
0.218882
0.240825
0.220573
0.220282
0.215187
0.218675
0.222623
0.214076
0.215821
0.21787
0.217237
0.215072
0.216534
0.219426
0.243487
0.22496
0.215236
0.253481
0.222237
0.221706
0.226593
0.222014
0.214147
0.216531
0.214375
0.222395
0.217524
0.219425
0.217809
0.219401
0.228312
0.242912
0.215901
0.246323
0.223709
0.2255
0.222251
0.219448
0.213417
0.24409
0.216451
0.239757
0.217679
0.230017
0.220922
0.221395
0.213861
0.242851
0.215446
0.21511
0.220149
0.221749
0.222219
0.249793
0.215193
0.217325
0.218627
0.214164
0.214408
0.2178
0.223948
0.216008
0.237753
0.225428
0.214381
0.242964
0.235415
0.216122
0.214295
0.228944
0.226433
0.223965
0.230989
0.220331
0.234461
0.215891
0.217412
0.253746
0.22098
0.213215
0.218657
0.22046
0.218363
0.214994
0.239066
0.23915
0.213049
0.215236
0.218536
0.237345
0.215855
0.215842
0.237032
0.217305
0.214911
0.215194
0.219705
0.215198
0.22196
0.216934
0.218479
0.227549
0.242238
0.219008
0.218298
0.237001
0.214053
0.24713
0.222148
0.224092
0.242736
0.222939
0.227347
0.217228
0.222517
0.217729
0.245628
0.246603
0.224597
0.242525
0.221565
0.214341
0.220927
0.21516
0.228109
0.219461
0.217597
0.22794
0.224305
0.218773
0.220339
0.221312
0.240392
0.220661
0.218425
0.213083
0.21435
0.247767
0.243749
0.220798
0.213905
0.233909
0.222544
0.221924
0.219296
0.21538
0.224579
0.220958
0.221699
0.242191
0.215259
0.22003
0.240732
0.23196
0.218609
0.228136
0.215413
0.216322
0.222904
0.240943
0.21482
0.24271
0.223814
0.219974
0.233291
0.21801
0.246767
0.220036
0.218112
0.222147
0.250979
0.243376
0.213553
0.216452
0.228356
0.213709
0.220362
0.219635
0.245694
0.239645
0.221866
0.22197
0.221289
0.215394
0.213071
0.217163
0.21341
0.22073
0.221943
0.215745
0.246599
0.218598
0.216942
0.21847
0.221088
0.217432
0.227198
0.214135
0.222215
0.249396
0.214853
0.234615
0.215217
0.227399
0.213648
0.242736
0.216505
0.214661
0.222293
0.219175
0.2472
0.214428
0.215786
0.214809
0.243541
0.213256
0.222569
0.214799
0.218074
0.216815
0.216403
0.219288
0.228174
0.217787
0.241926
0.242723
0.243332
0.233561
0.219394
0.24552
0.214636
0.216044
0.219934
0.223103
0.220337
0.220457
0.216601
0.220212
0.227695
0.215492
0.221873
0.230138
0.214206
0.218524
0.221708
0.216701
0.230279
0.216637
0.215896
0.213774
0.216839
0.216727
0.229625
0.215349
0.222753
0.220936
0.22
0.219628
0.213702
0.219437
0.21626
0.226377
0.221634
0.21847
0.240887
0.248922
0.216733
0.230528
0.218266
0.228937
0.245579
0.221491
0.216108
0.235386
0.228331
0.219098
0.214335
0.21544
0.221475
0.23892
0.220542
0.221107
0.227331
0.220398
0.220622
0.250812
0.231262
0.230678
0.220467
0.218431
0.22106
0.217977
0.219887
0.220293
0.22134
0.236247
0.231035
0.253048
0.220648
0.219937
0.217096
0.21515
0.213918
0.243546
0.219533
0.227005
0.220944
0.219107
0.215603
0.245482
0.21272
0.242221
0.21876
0.221119
0.222503
0.217742
0.226511
0.22067
0.23636
0.221777
0.225962
0.219315
0.227672
0.242069
0.214555
0.217506
0.220388
0.21616
0.216425
0.241242
0.228039
0.222557
0.238185
0.215196
0.217912
0.214176
0.213687
0.214057
0.242922
0.24604
0.240475
0.2148
0.247153
0.215055
0.219164
0.239521
0.227835
0.217394
0.215723
0.231471
0.228017
0.220803
0.219134
0.216837
0.221352
0.237125
0.220781
0.218685
0.217226
0.218844
0.214761
0.214657
0.214645
0.219723
0.242702
0.247258
0.220505
0.230405
0.218781
0.248963
0.217581
0.222255
0.213716
0.241306
0.221111
0.217291
0.22107
0.228736
0.242546
0.216434
0.235123
0.219727
0.222298
0.213444
0.213021
0.219831
0.248611
0.244588
0.221637
0.223642
0.22739
0.217517
0.246824
0.20768
0.216206
0.229532
0.216961
0.211741
0.2175
0.214052
0.216021
0.219714
0.219171
0.247683
0.227648
0.214928
0.24259
0.21804
0.222761
0.236269
0.2193
0.196171
0.220432
0.215652
0.215836
0.246413
0.221892
0.220543
0.242976
0.227452
0.220488
0.226516
0.217608
0.240058
0.241019
0.221147
0.226402
0.213191
0.214843
0.214065
0.219699
0.219806
0.218642
0.218731
0.2149
0.236904
0.21954
0.223774
0.215473
0.219399
0.228416
0.224124
0.217864
0.244366
0.221635
0.216314
0.222536
0.256852
0.221875
0.246218
0.219047
0.251063
0.2171
0.215559
0.219417
0.218825
0.237116
0.240892
0.216363
0.217625
0.21868
0.219776
0.22796
0.214696
0.216991
0.215616
0.244109
0.231229
0.216454
0.216589
0.222371
0.221477
0.243517
0.216868
0.215303
0.218131
0.218914
0.21868
0.21979
0.214715
0.217091
0.239843
0.220021
0.218099
0.220293
0.221186
0.21883
0.251784
0.234356
0.215323
0.218272
0.217875
0.217191
0.21749
0.214524
0.219703
0.221957
0.216403
0.2155
0.229722
0.22515
0.220711
0.219675
0.215959
0.249067
0.2205
0.243154
0.215545
0.244034
0.240925
0.218867
0.247541
0.228832
0.218696
0.214885
0.214885
0.229164
0.224092
0.213142
0.235977
0.239336
0.228277
0.232254
0.215152
0.218479
0.220385
0.245386
0.218346
0.215327
0.214457
0.241472
0.238774
0.222105
0.218961
0.217931
0.234015
0.241432
0.223601
0.227887
0.21428
0.217109
0.247128
0.218926
0.217322
0.239807
0.250257
0.215398
0.234191
0.235305
0.213523
0.218032
0.214199
0.214274
0.217427
0.227205
0.215708
0.229908
0.214064
0.229704
0.213917
0.216737
0.219881
0.241105
0.21393
0.212646
0.224227
0.220874
0.220819
0.235757
0.190082
0.218915
0.225615
0.213504
0.22657
0.210403
0.242977
0.216557
0.215765
0.246417
0.216256
0.221462
0.25257
0.242123
0.21985
0.218819
0.216963
0.228699
0.24001
0.215049
0.215868
0.216313
0.219115
0.213183
0.243731
0.216433
0.22069
0.242414
0.241771
0.257358
0.237328
0.215112
0.228299
0.220513
0.216441
0.230325
0.228574
0.248914
0.248981
0.215003
0.21503
0.240153
0.216894
0.21968
0.242367
0.222554
0.223891
0.238024
0.224718
0.212384
0.238666
0.249801
0.213571
0.216261
0.234047
0.218038
0.231156
0.234954
0.241867
0.217693
0.238359
0.2445
0.22088
0.214199
0.221753
0.220587
0.216609
0.221219
0.212896
0.192098
0.218294
0.240894
0.213868
0.21697
0.219597
0.228724
0.218479
0.237886
0.217142
0.220421
0.226777
0.244354
0.2465
0.25319
0.228046
0.243094
0.223755
0.238034
0.226102
0.214695
0.217272
0.225795
0.21904
0.219419
0.222574
0.214936
0.247911
0.219968
0.213961
0.213858
0.220245
0.213727
0.235568
0.220912
0.221467
0.244044
0.220013
0.213444
0.215563
0.210173
0.216698
0.220791
0.250334
0.243977
0.220791
0.214413
0.221392
0.214517
0.22896
0.225771
0.237839
0.246423
0.245846
0.249692
0.217156
0.219536
0.211064
0.220486
0.226537
0.21597
0.250821
0.215877
0.218426
0.216019
0.221667
0.220918
0.215382
0.214836
0.216697
0.197902
0.223298
0.21668
0.214257
0.216594
0.215781
0.218528
0.214663
0.217166
0.231041
0.217053
0.217804
0.215575
0.216634
0.245879
0.214165
0.216564
0.21777
0.214266
0.242048
0.252037
0.220391
0.217329
0.229853
0.215795
0.213992
0.213117
0.21306
0.22822
0.21858
0.221808
0.217017
0.248353
0.248023
0.223145
0.21972
0.238646
0.215436
0.241833
0.224833
0.220869
0.219766
0.226177
0.21286
0.22038
0.218686
0.218743
0.218446
0.219096
0.228534
0.25037
0.215286
0.256524
0.254546
0.19462
0.242304
0.247363
0.223531
0.221064
0.241029
0.228351
0.255135
0.239824
0.217398
0.218062
0.246089
0.24613
0.21492
0.245903
0.219163
0.214681
0.224077
0.215616
0.238264
0.242229
0.224048
0.21681
0.236293
0.241154
0.223771
0.230979
0.219655
0.219668
0.244752
0.216357
0.246299
0.24669
0.225789
0.216999
0.230191
0.227271
0.226203
0.214817
0.249417
0.237849
0.22188
0.208481
0.217468
0.248825
0.252292
0.225729
0.212413
0.219404
0.222079
0.222502
0.218057
0.218431
0.239865
0.214274
0.229761
0.241422
0.251681
0.214471
0.219396
0.214654
0.218183
0.215757
0.242722
0.225527
0.249147
0.259246
0.221326
0.242085
0.230144
0.219653
0.197765
0.242858
0.214826
0.216225
0.214081
0.218476
0.260311
0.218566
0.244051
0.215845
0.245616
0.21468
0.25293
0.220552
0.223437
0.231002
0.227443
0.251071
0.23164
0.218904
0.215578
0.217565
0.216805
0.216064
0.243872
0.215018
0.186449
0.219169
0.218081
0.216451
0.218452
0.208277
0.216794
0.225516
0.229264
0.229178
0.215986
0.215793
0.229262
0.233448
0.218882
0.223774
0.216515
0.210234
0.218896
0.222697
0.221956
0.214144
0.215648
0.215535
0.223107
0.216678
0.219373
0.204642
0.218678
0.227947
0.217545
0.221851
0.213346
0.238436
0.238684
0.219813
0.209948
0.212327
0.206775
0.215072
0.219524
0.216602
0.23853
0.229026
0.21538
0.216239
0.215098
0.214123
0.227813
0.212922
0.241137
0.214124
0.228642
0.219409
0.225895
0.219947
0.218029
0.215468
0.242164
0.216121
0.212859
0.222553
0.2395
0.215021
0.21418
0.215832
0.219258
0.219267
0.218987
0.242574
0.213707
0.226593
0.21975
0.23281
0.23033
0.23802
0.246403
0.228843
0.215707
0.221811
0.238756
0.223796
0.243799
0.221748
0.220973
0.250859
0.241364
0.232058
0.220949
0.218809
0.227139
0.199362
0.224921
0.198861
0.233397
0.213561
0.21473
0.216419
0.204145
0.221423
0.247477
0.238631
0.217683
0.229951
0.225548
0.215823
0.213824
0.218526
0.211582
0.247077
0.207917
0.214583
0.225134
0.212358
0.211707
0.219335
0.211381
0.214327
0.228722
0.239725
0.221612
0.245541
0.249873
0.22408
0.22089
0.221002
0.220022
0.219565
0.219114
0.252701
0.228115
0.21186
0.216654
0.246306
0.224959
0.233823
0.21935
0.214709
0.227079
0.217928
0.216329
0.217549
0.246144
0.215744
0.245535
0.212773
0.214852
0.217245
0.212621
0.218553
0.21308
0.242469
0.209242
0.215168
0.232242
0.216569
0.221742
0.227445
0.216835
0.223227
0.215993
0.215073
0.212115
0.218902
0.214297
0.222693
0.21407
0.238046
0.220841
0.244042
0.243173
0.220928
0.219828
0.220118
0.216649
0.208968
0.214996
0.245726
0.218054
0.214615
0.220192
0.213597
0.241836
0.248684
0.220618
0.249269
0.214331
0.218284
0.250759
0.223556
0.217244
0.221708
0.244174
0.234647
0.248243
0.215511
0.248621
0.21688
0.218913
0.247857
0.217488
0.21617
0.215337
0.213666
0.234878
0.215315
0.216538
0.235859
0.218199
0.214606
0.219631
0.239189
0.209914
0.221107
0.214494
0.227145
0.218063
0.225518
0.226199
0.227818
0.226423
0.207921
0.216113
0.215568
0.23363
0.220899
0.21829
0.213033
0.218196
0.25036
0.213279
0.236112
0.217796
0.214283
0.211978
0.227938
0.219056
0.218214
0.220411
0.2182
0.223898
0.243136
0.240911
0.220661
0.215388
0.20008
0.228431
0.214411
0.240671
0.218526
0.244753
0.216553
0.214994
0.216671
0.243508
0.21553
0.242027
0.218665
0.219902
0.232848
0.218949
0.235187
0.229728
0.217863
0.242782
0.229888
0.220743
0.252455
0.220432
0.216086
0.25231
0.229792
0.207878
0.223319
0.221109
0.214891
0.216851
0.212942
0.230852
0.24648
0.250477
0.178314
0.21377
0.205195
0.215817
0.216962
0.239626
0.239579
0.219731
0.218964
0.249326
0.218665
0.217172
0.229006
0.214844
0.222191
0.211767
0.236485
0.224348
0.216615
0.256996
0.213284
0.205239
0.215626
0.214294
0.215147
0.22029
0.245783
0.215666
0.218681
0.217371
0.215123
0.208947
0.212662
0.217142
0.219556
0.213256
0.220634
0.21718
0.241464
0.223515
0.213574
0.203487
0.21555
0.219928
0.221087
0.214405
0.240921
0.215361
0.241546
0.217036
0.217833
0.224561
0.217286
0.227019
0.2231
0.214103
0.224273
0.205353
0.199657
0.216659
0.246859
0.219747
0.219634
0.231192
0.214525
0.218921
0.215143
0.214628
0.244078
0.21533
0.215649
0.214034
0.222389
0.220172
0.248449
0.238025
0.209412
0.24221
0.216797
0.216753
0.237458
0.221673
0.212453
0.229827
0.231111
0.232971
0.226653
0.223744
0.209769
0.227626
0.213041
0.205268
0.215759
0.246578
0.217036
0.215564
0.213371
0.240327
0.231466
0.22203
0.18101
0.240412
0.219367
0.222558
0.215921
0.207993
0.215649
0.216819
0.222286
0.215941
0.220472
0.225782
0.227079
0.214642
0.216256
0.220285
0.208703
0.212328
0.236639
0.24421
0.222184
0.191643
0.219397
0.214328
0.217032
0.213104
0.216878
0.207006
0.217464
0.211984
0.235438
0.223318
0.225556
0.212118
0.216997
0.212681
0.216977
0.221362
0.224172
0.217182
0.219025
0.219371
0.214273
0.219789
0.22936
0.229081
0.238409
0.224831
0.217777
0.239148
0.215161
0.222522
0.214661
0.219547
0.215654
0.217855
0.206887
0.205752
0.219518
0.219603
0.214004
0.228015
0.244952
0.218467
0.22399
0.217774
0.219807
0.219771
0.214482
0.220436
0.247558
0.230226
0.243405
0.218251
0.221318
0.240176
0.214898
0.22304
0.226756
0.218119
0.233939
0.237953
0.213865
0.23597
0.241144
0.183268
0.191575
0.216289
0.233495
0.216735
0.216367
0.230619
0.217197
0.21179
0.208494
0.215186
0.246045
0.214805
0.191956
0.211458
0.236256
0.235321
0.213588
0.246253
0.228209
0.223081
0.2155
0.21238
0.212736
0.225289
0.221772
0.200982
0.221133
0.22004
0.215486
0.223602
0.239258
0.206689
0.220184
0.210793
0.180629
0.238592
0.219327
0.245216
0.24225
0.219489
0.214094
0.227433
0.222711
0.215303
0.211639
0.218021
0.207178
0.249817
0.21256
0.244701
0.216404
0.241825
0.21893
0.212779
0.214417
0.241159
0.225076
0.214529
0.215046
0.219742
0.210999
0.222368
0.216396
0.220405
0.240901
0.220067
0.230131
0.207064
0.210187
0.215068
0.222699
0.213602
0.22353
0.228035
0.242244
0.212744
0.212628
0.250614
0.216505
0.219976
0.218487
0.240468
0.219184
0.225377
0.219885
0.19856
0.226696
0.219431
0.255112
0.218342
0.245703
0.240864
0.221684
0.21641
0.248575
0.217347
0.217526
0.187286
0.250087
0.210009
0.21416
0.254364
0.221543
0.255239
0.247174
0.216198
0.214966
0.222544
0.206913
0.216457
0.219394
0.227546
0.207256
0.22182
0.221183
0.224683
0.210353
0.23908
0.20316
0.224907
0.225887
0.216152
0.212671
0.221192
0.215549
0.222513
0.212034
0.216147
0.223653
0.220994
0.215735
0.222
0.220755
0.214814
0.216511
0.21854
0.197351
0.203141
0.210786
0.222882
0.230661
0.20673
0.208949
0.231457
0.218995
0.201076
0.24154
0.239422
0.210776
0.214791
0.222115
0.216415
0.214923
0.235155
0.217733
0.219195
0.235954
0.226769
0.243354
0.2085
0.219333
0.219274
0.213934
0.243186
0.221449
0.219099
0.215474
0.212254
0.186313
0.22023
0.217196
0.216127
0.205228
0.218345
0.19356
0.21188
0.213061
0.231906
0.250852
0.229412
0.210237
0.216259
0.235439
0.231599
0.216496
0.217183
0.220565
0.228197
0.254175
0.231699
0.231574
0.220061
0.222808
0.221699
0.215922
0.2122
0.195603
0.216464
0.212952
0.220713
0.228299
0.216503
0.20338
0.239937
0.22901
0.219673
0.195083
0.198566
0.217727
0.221128
0.212464
0.246941
0.223417
0.21847
0.205147
0.205566
0.209383
0.213406
0.21626
0.213786
0.219355
0.224657
0.210346
0.213708
0.215327
0.216931
0.212818
0.212065
0.239761
0.230279
0.247922
0.222562
0.199096
0.224767
0.238702
0.217116
0.230426
0.232291
0.223651
0.21155
0.221342
0.207111
0.219407
0.222427
0.210602
0.239463
0.211247
0.236385
0.217501
0.207192
0.221249
0.220575
0.213537
0.206671
0.235096
0.235203
0.225998
0.226628
0.222111
0.190068
0.217694
0.225993
0.21223
0.222595
0.228809
0.229734
0.19124
0.214449
0.219905
0.248571
0.241833
0.228113
0.208292
0.213892
0.237017
0.188623
0.21259
0.244779
0.215525
0.217836
0.21509
0.244693
0.215105
0.236638
0.234209
0.240441
0.211203
0.221069
0.222448
0.216484
0.217512
0.219299
0.240782
0.254775
0.216346
0.22203
0.217728
0.209538
0.238523
0.212296
0.226758
0.198222
0.220174
0.229125
0.230847
0.216238
0.212376
0.233217
0.239124
0.203144
0.208165
0.211502
0.226395
0.236796
0.241332
0.214158
0.21849
0.204889
0.209571
0.2262
0.218531
0.21134
0.203533
0.219511
0.211816
0.225754
0.218568
0.207067
0.214366
0.225229
0.201147
0.216547
0.206605
0.198532
0.211113
0.212972
0.223175
0.208452
0.213141
0.194076
0.231142
0.239793
0.214961
0.228906
0.227383
0.219454
0.201334
0.215336
0.200102
0.240618
0.238714
0.215275
0.186437
0.21552
0.243162
0.229092
0.217377
0.239216
0.217564
0.224593
0.251167
0.222057
0.213329
0.21542
0.216509
0.213181
0.214198
0.214226
0.212965
0.214947
0.221404
0.209329
0.225699
0.213529
0.208608
0.216502
0.215701
0.218965
0.199766
0.216491
0.216383
0.220271
0.228533
0.22211
0.247439
0.210627
0.218264
0.217086
0.21501
0.203388
0.221203
0.246548
0.216886
0.226044
0.228374
0.197315
0.242422
0.2117
0.222568
0.214968
0.216736
0.202188
0.241317
0.222397
0.206751
0.236262
0.207548
0.210408
0.195999
0.219499
0.231279
0.22995
0.201696
0.196068
0.19871
0.236595
0.221955
0.198416
0.213771
0.242433
0.219462
0.208334
0.209551
0.201029
0.217935
0.205721
0.223298
0.22032
0.207228
0.206151
0.232104
0.231649
0.217244
0.226766
0.245078
0.191606
0.214562
0.235727
0.224453
0.23848
0.215121
0.213817
0.218551
0.184537
0.215923
0.216582
0.218963
0.213617
0.219596
0.21764
0.20726
0.224043
0.221436
0.211397
0.221304
0.227991
0.228294
0.216749
0.195244
0.232025
0.198721
0.204572
0.20991
0.199855
0.215682
0.217334
0.216514
0.221575
0.217926
0.203872
0.198588
0.177775
0.219751
0.208762
0.225089
0.22787
0.24037
0.209532
0.214123
0.214053
0.203847
0.202777
0.206733
0.21339
0.230728
0.221176
0.219316
0.199655
0.240531
0.232255
0.240541
0.20131
0.212876
0.194057
0.184458
0.220428
0.196328
0.245586
0.218691
0.243011
0.236186
0.201214
0.232702
0.232406
0.198698
0.190638
0.214448
0.243913
0.216503
0.219047
0.222674
0.209757
0.211164
0.198208
0.201245
0.241613
0.228439
0.218995
0.224735
0.212989
0.223047
0.204528
0.225752
0.218898
0.219902
0.206421
0.17993
0.179536
0.203718
0.211856
0.213146
0.221079
0.20744
0.240571
0.216748
0.223436
0.200422
0.244399
0.20904
0.204661
0.220356
0.244392
0.198316
0.215392
0.178731
0.197967
0.184318
0.215909
0.239724
0.231615
0.209328
0.231853
0.2092
0.240365
0.183787
0.215599
0.229774
0.216592
0.195628
0.25164
0.197125
0.213238
0.192541
0.215372
0.215993
0.202892
0.251307
0.205314
0.221924
0.211193
0.214999
0.219376
0.200017
0.231232
0.244474
0.208464
0.244708
0.190307
0.24418
0.23339
0.201333
0.218398
0.216539
0.22241
0.194197
0.236311
0.21407
0.197737
0.209794
0.236576
0.219583
0.212349
0.18941
0.211383
0.22
0.214141
0.216282
0.210658
0.213073
0.237179
0.212944
0.217998
0.230895
0.185412
0.203412
0.212424
0.223939
0.217882
0.191396
0.210165
0.203034
0.202774
0.184986
0.177595
0.177777
0.217278
0.224688
0.217564
0.213951
0.231423
0.222763
0.21732
0.220248
0.206748
0.208544
0.217363
0.205689
0.216892
0.237249
0.241069
0.204107
0.217072
0.213345
0.203377
0.219415
0.211348
0.231158
0.20002
0.219722
0.203779
0.205879
0.199584
0.23562
0.197748
0.215457
0.200403
0.208034
0.193879
0.19261
0.210898
0.23723
0.193992
0.246012
0.222766
0.232519
0.185912
0.219349
0.204781
0.202692
0.20457
0.22075
0.211908
0.174962
0.20772
0.192857
0.21861
0.227205
0.220944
0.200668
0.216536
0.214984
0.212331
0.19558
0.20419
0.211407
0.206763
0.185477
0.182256
0.216316
0.192299
0.189687
0.200262
0.210602
0.215351
0.205133
0.193441
0.194973
0.221715
0.203472
0.191446
0.179454
0.210466
0.201802
0.225279
0.232213
0.215864
0.224983
0.204898
0.203435
0.197238
0.179615
0.178464
0.215588
0.228331
0.207253
0.217227
0.212292
0.21111
0.205754
0.189331
0.196409
0.239467
0.2106
0.227944
0.187934
0.217634
0.217576
0.237173
0.237768
0.203987
0.193169
0.19425
0.222715
0.209343
0.215867
0.216125
0.194451
0.194738
0.248052
0.195561
0.176894
0.194163
0.206961
0.19721
0.208911
0.195218
0.206716
0.207152
0.180424
0.231471
0.229845
0.209161
0.210534
0.197288
0.205961
0.21316
0.19512
0.240477
0.199083
0.215114
0.227866
0.202147
0.202315
0.217359
0.206109
0.205588
0.214736
0.22639
0.206595
0.213672
0.197256
0.203045
0.19052
0.200923
0.214805
0.207294
0.205305
0.207951
0.220432
0.195259
0.188192
0.189813
0.216369
0.232955
0.183937
0.206721
0.225498
0.220143
0.220674
0.236031
0.188399
0.20184
0.196329
0.191633
0.220569
0.228648
0.227153
0.229398
0.207019
0.212428
0.205173
0.218084
0.198428
0.19218
0.20977
0.187589
0.237839
0.203053
0.207829
0.198435
0.199771
0.23241
0.194417
0.187581
0.196308
0.191697
0.221595
0.211387
0.199257
0.185579
0.198851
0.185865
0.213686
0.222318
0.223384
0.215946
0.201931
0.221772
0.219012
0.238839
0.206253
0.214466
0.194838
0.214171
0.203627
0.197566
0.197209
0.238437
0.197507
0.214455
0.197709
0.212279
0.174955
0.180876
0.194328
0.210687
0.197677
0.190964
0.203442
0.223441
0.215662
0.206736
0.206933
0.221752
0.214051
0.213114
0.186521
0.196532
0.216398
0.192275
0.227477
0.196954
0.184666
0.219813
0.195913
0.20946
0.199697
0.194338
0.19264
0.188301
0.22866
0.226913
0.216243
0.201326
0.196517
0.197821
0.195881
0.209265
0.196046
0.213092
0.195229
0.222431
0.185267
0.224161
0.197843
0.194978
0.218933
0.216255
0.20162
0.205961
0.178586
0.195909
0.197634
0.185493
0.198742
0.212301
0.230556
0.223523
0.221071
0.20343
0.202478
0.195127
0.192519
0.207058
0.210366
0.234802
0.206286
0.206779
0.218148
0.190018
0.197338
0.233908
0.229588
0.242543
0.216182
0.178019
0.188927
0.241801
0.211512
0.194295
0.213724
0.232786
0.238947
0.19909
0.1985
0.21385
0.18738
0.175132
0.220345
0.177217
0.222357
0.1961
0.186071
0.209986
0.194127
0.222244
0.219516
0.183383
0.182999
0.212569
0.189002
0.200436
0.184308
0.192557
0.201111
0.223683
0.189628
0.202858
0.226747
0.203776
0.20107
0.188457
0.212323
0.204111
0.201299
0.189598
0.198473
0.208051
0.212131
0.199351
0.227091
0.198523
0.215915
0.183045
0.200786
0.193621
0.22117
0.203045
0.218327
0.234387
0.201014
0.226863
0.216904
0.204842
0.211932
0.189563
0.195192
0.205303
0.203776
0.215746
0.199632
0.193133
0.212757
0.1958
0.191689
0.183126
0.200011
0.200836
0.221275
0.183171
0.203926
0.216424
0.186844
0.18672
0.22255
0.188116
0.201883
0.200723
0.199574
0.176597
0.181031
0.199363
0.192953
0.210299
0.198838
0.20758
0.184197
0.205338
0.21118
0.200172
0.188583
0.203303
0.228437
0.20399
0.200764
0.221924
0.176328
0.180912
0.206559
0.173614
0.233741
0.209268
0.204973
0.210534
0.201817
0.187977
0.230403
0.215697
0.183589
0.218109
0.20975
0.197478
0.203432
0.194057
0.189984
0.197006
0.213606
0.230522
0.186094
0.215886
0.204669
0.186576
0.238459
0.189566
0.18247
0.185802
0.196261
0.19904
0.197865
0.208201
0.210829
0.212996
0.19177
0.193182
0.186876
0.221174
0.191842
0.174661
0.190881
0.190499
0.184714
0.206516
0.192686
0.21294
0.220284
0.201637
0.220814
0.203851
0.214786
0.20943
0.201664
0.229548
0.216805
0.187373
0.185538
0.205475
0.178843
0.17346
0.182734
0.210896
0.178674
0.175629
0.199643
0.212117
0.211855
0.213917
0.188813
0.179112
0.20001
0.196238
0.186737
0.212101
0.192235
0.216091
0.18571
0.180046
0.186374
0.18484
0.239776
0.196411
0.209768
0.21097
0.207638
0.198894
0.189655
0.207644
0.184723
0.195521
0.215681
0.188172
0.213298
0.177065
0.175744
0.204351
0.193811
0.195696
0.192035
0.208322
0.20574
0.227545
0.239825
0.221229
0.182493
0.175777
0.193039
0.194671
0.177104
0.175786
0.180882
0.194064
0.206348
0.217443
0.207121
0.199156
0.215745
0.175067
0.190989
0.196075
0.211877
0.208579
0.185626
0.196208
0.196473
0.21045
0.220622
0.188702
0.19041
0.213865
0.229419
0.220858
0.194377
0.215389
0.206167
0.207704
0.219667