/*--------------------------------*- C++ -*----------------------------------*\
| =========                 |                                                 |
| \\      /  F ield         | OpenFOAM: The Open Source CFD Toolbox           |
|  \\    /   O peration     | Version:  2212                                  |
|   \\  /    A nd           | Website:  www.openfoam.com                      |
|    \\/     M anipulation  |                                                 |
\*---------------------------------------------------------------------------*/
FoamFile
{
    version     2.0;
    format      ascii;
    arch        "LSB;label=32;scalar=64";
    class       volScalarField;
    location    "0.058";
    object      k;
}
// * * * * * * * * * * * * * * * * * * * * * * * * * * * * * * * * * * * * * //

dimensions      [0 2 -2 0 0 0 0];

internalField   nonuniform List<scalar> 
31639
(
0.00853758
0.00842453
0.00850544
0.00878279
0.00848165
0.00837339
0.00832586
0.0086021
0.00849478
0.00868109
0.00865326
0.00867355
0.00847941
0.00871327
0.00829508
0.00820817
0.00859658
0.00835956
0.00813336
0.00852775
0.00775676
0.00870992
0.00871638
0.008132
0.00811695
0.00846698
0.00848173
0.00698119
0.00832071
0.00876381
0.00868033
0.00827128
0.00871901
0.00809676
0.00795039
0.00874307
0.00752342
0.00887405
0.00872962
0.00752364
0.00787508
0.00797073
0.00863693
0.00869648
0.00864474
0.00868304
0.00833461
0.00833832
0.00858108
0.00875586
0.00867878
0.00753672
0.00874217
0.00773019
0.00827254
0.00854113
0.00777565
0.00849541
0.00838629
0.00777981
0.00844829
0.00870084
0.00818685
0.00848416
0.00849834
0.00877064
0.00840784
0.00845289
0.00809369
0.00874753
0.00866543
0.00815355
0.0086004
0.00849223
0.00866121
0.00799229
0.00862674
0.00833121
0.00828383
0.00856487
0.00817327
0.00745867
0.00873044
0.00852509
0.00851238
0.00865865
0.00873253
0.00870427
0.0080261
0.00877846
0.00851426
0.00852867
0.00781057
0.00833488
0.00800373
0.00838048
0.00831388
0.00846799
0.00849698
0.00782712
0.00869261
0.00860928
0.00832468
0.00772553
0.00776629
0.00869887
0.0077669
0.00762411
0.008005
0.00774389
0.00861084
0.00785411
0.00838281
0.00824394
0.00845672
0.00769974
0.00841772
0.00847216
0.00858029
0.00839276
0.00865732
0.00864078
0.00863281
0.00849514
0.00853068
0.00871601
0.00847269
0.00804907
0.00793614
0.0085939
0.00865261
0.00863691
0.00869671
0.00834508
0.0086433
0.00844513
0.00778008
0.00764334
0.00862825
0.00846475
0.00845915
0.00864804
0.00867826
0.0076747
0.00757548
0.00870734
0.00857696
0.00789276
0.00789185
0.00864808
0.00814836
0.0086698
0.00815439
0.0085805
0.00805979
0.00876558
0.00844161
0.00802279
0.00797492
0.00814773
0.00871832
0.00809129
0.00816954
0.00779349
0.00789409
0.008373
0.00804329
0.00878409
0.00866667
0.00768536
0.00829929
0.00821777
0.00792059
0.00844583
0.00878115
0.00854409
0.00850111
0.00877754
0.00845149
0.00844453
0.00831435
0.00835935
0.00825433
0.00756257
0.0085215
0.00882783
0.00842879
0.0087587
0.00789548
0.0078924
0.00898582
0.00864436
0.00861297
0.00841107
0.00848558
0.00834703
0.00832946
0.00860521
0.00774526
0.00830339
0.00873054
0.00879987
0.00861697
0.008556
0.00845244
0.0083779
0.00838154
0.00823455
0.00872386
0.00756757
0.00842397
0.00835642
0.00855973
0.00867318
0.00874791
0.00871698
0.00793125
0.00818983
0.0087201
0.00857897
0.00853501
0.00844125
0.00774612
0.00842433
0.00779812
0.00832664
0.00865111
0.00825131
0.00791647
0.00858874
0.00853445
0.00880752
0.00802329
0.00791347
0.00856875
0.0085829
0.00773662
0.00875043
0.00817909
0.00774925
0.00832852
0.0085746
0.0084287
0.00827094
0.00822972
0.0086202
0.00831541
0.00826798
0.00792595
0.00838891
0.00828282
0.00798944
0.00828807
0.00878076
0.00862808
0.00829469
0.00798582
0.00859205
0.00862394
0.00860682
0.00875632
0.00869509
0.00845033
0.00870807
0.00831807
0.00838099
0.00764277
0.00812211
0.00869623
0.00827285
0.00832701
0.00826129
0.00848501
0.00890845
0.00879093
0.00861341
0.007834
0.00837957
0.00812746
0.00869732
0.00841752
0.00878879
0.00874961
0.008331
0.00788192
0.00820315
0.00801436
0.00784268
0.00868898
0.00804252
0.00864835
0.00836423
0.00820942
0.00799469
0.00885772
0.00829626
0.00839953
0.00870168
0.00852543
0.00821891
0.00835134
0.00808606
0.00846008
0.00835495
0.00793316
0.00825286
0.0082562
0.00739391
0.00762374
0.00869393
0.00871058
0.00838614
0.00773999
0.00806606
0.00860251
0.00806153
0.00793543
0.00873111
0.00890062
0.00836769
0.00868603
0.00874746
0.00795442
0.0086368
0.00773256
0.00775099
0.00881017
0.00869253
0.00870337
0.0087817
0.00863702
0.00798874
0.00840369
0.00837091
0.00872747
0.0088273
0.00881398
0.00837318
0.00825094
0.00865346
0.00858482
0.00849205
0.00833582
0.00835828
0.00831174
0.00843716
0.00852247
0.00835998
0.00795499
0.00854608
0.00875815
0.00829995
0.00868174
0.00873848
0.00842485
0.00793446
0.00841083
0.0083906
0.00773343
0.00892509
0.00807238
0.00853983
0.00850343
0.00769353
0.00843471
0.00842133
0.00783039
0.00846921
0.00798011
0.00844243
0.00875254
0.00861716
0.00763179
0.00850112
0.0079897
0.00851701
0.0086801
0.00876263
0.00874708
0.00806832
0.00863739
0.0077702
0.00832516
0.00777849
0.008739
0.00862558
0.00869791
0.00865492
0.00804974
0.00880079
0.00839455
0.00862151
0.00837718
0.00819189
0.00839713
0.00857328
0.00857101
0.00860169
0.00847299
0.00859143
0.00836443
0.00799799
0.00843742
0.00853491
0.00856507
0.00766125
0.00868988
0.0086797
0.00838184
0.00850912
0.00855641
0.00851597
0.00875472
0.00760313
0.0085287
0.00869943
0.00766076
0.00842918
0.00854833
0.00800879
0.00781937
0.00780557
0.00828281
0.00784809
0.00839084
0.00816338
0.00826829
0.00877194
0.00788779
0.00863601
0.00872472
0.00842475
0.00866281
0.00829765
0.00873109
0.0084049
0.00856909
0.00877452
0.00839058
0.00788113
0.00845238
0.00869579
0.00866837
0.00860134
0.00871425
0.00833369
0.00849511
0.00867969
0.00879629
0.00870366
0.00795897
0.00839655
0.00753091
0.0085091
0.00834832
0.00791145
0.00787962
0.00826591
0.00861852
0.00864831
0.00782718
0.00861854
0.00824614
0.00838706
0.00863646
0.00699786
0.00836585
0.00776637
0.00829124
0.00868433
0.00875959
0.00863753
0.00841697
0.00767423
0.00859894
0.0084515
0.00854246
0.00778365
0.00798846
0.00838967
0.00785027
0.00797326
0.00845531
0.00775508
0.00831971
0.00756712
0.00860713
0.00790622
0.00876161
0.0086697
0.0086379
0.00870192
0.00826188
0.00861482
0.00869322
0.00844876
0.00866255
0.00844405
0.0086335
0.00879892
0.00824882
0.0086884
0.00871207
0.00839756
0.00813063
0.00877702
0.00844961
0.00765153
0.00775077
0.00843441
0.00881999
0.00871756
0.00844582
0.00893324
0.00885367
0.00857925
0.00848191
0.00834418
0.00828051
0.00797386
0.00842731
0.00858894
0.00874895
0.00819895
0.00809573
0.00803436
0.00831459
0.00835978
0.00756091
0.00857717
0.00824012
0.00856434
0.00843005
0.00867168
0.00842855
0.00800032
0.00858036
0.0087068
0.00811214
0.00865322
0.00862817
0.00817205
0.0084051
0.00699643
0.00806727
0.00839862
0.00844551
0.00801449
0.0079492
0.00845462
0.0077979
0.00856667
0.00819191
0.0083527
0.0087045
0.00840893
0.00773182
0.00830002
0.00845602
0.00872221
0.00790322
0.00749222
0.0086803
0.00778532
0.00848989
0.00880642
0.00795728
0.00840005
0.00872335
0.00849341
0.00789909
0.00866528
0.00849615
0.00782167
0.00862495
0.00847764
0.00837455
0.00854098
0.00765724
0.0081305
0.00859321
0.00827955
0.00845443
0.00846618
0.00878826
0.00863628
0.00854002
0.00868632
0.00872083
0.00861602
0.00810125
0.00863341
0.00872722
0.0088039
0.00810801
0.00846273
0.00847634
0.00891451
0.00803572
0.00762339
0.00872861
0.00797444
0.00885049
0.00833209
0.00794325
0.0084778
0.00868737
0.00860259
0.00853099
0.00765823
0.0085624
0.0084245
0.00772083
0.00871878
0.00866119
0.00707777
0.0079034
0.00812865
0.00825878
0.00851587
0.00848943
0.0084322
0.00843225
0.0086927
0.00842698
0.00840715
0.00795
0.00878436
0.00778226
0.00839517
0.00835955
0.00810859
0.00877942
0.00839956
0.00812131
0.0077827
0.00790432
0.00833391
0.00868197
0.00805172
0.00876755
0.00851287
0.00867051
0.00795142
0.00831068
0.00861033
0.00878156
0.00874521
0.0086111
0.00844072
0.0084687
0.00876103
0.00877236
0.00870149
0.00817807
0.00866951
0.00792708
0.00873932
0.00860596
0.00842634
0.00804054
0.00835727
0.00747591
0.00873123
0.00855292
0.00882564
0.00836398
0.00818906
0.00784433
0.00846306
0.00776721
0.00768107
0.00800106
0.00829085
0.00790946
0.00841779
0.00784316
0.00864124
0.00855599
0.00765779
0.00877159
0.00802493
0.00806104
0.00830168
0.00819314
0.008603
0.00873682
0.00877572
0.0086654
0.00841347
0.00848324
0.00832796
0.00830837
0.0077958
0.00636682
0.00875231
0.00835586
0.00860039
0.0086765
0.00784646
0.00870731
0.00871452
0.0086204
0.00863546
0.00858519
0.00850995
0.0087945
0.00880952
0.00848689
0.00868043
0.00866585
0.00803561
0.00869115
0.00818689
0.0085349
0.00821997
0.00835377
0.0081505
0.0088196
0.00839126
0.00846464
0.00842124
0.00808313
0.00878919
0.00850416
0.00829113
0.00802318
0.00860663
0.00772219
0.00867576
0.00861077
0.0081948
0.00872922
0.00883754
0.0087247
0.00780253
0.00849099
0.00843724
0.00852096
0.00799354
0.00867375
0.00868272
0.00828139
0.00845075
0.00826268
0.00861359
0.00823546
0.00836155
0.00774594
0.00861746
0.00852922
0.00859452
0.00826837
0.00840956
0.00854574
0.00845347
0.00825141
0.00863451
0.00862963
0.00837306
0.00772668
0.00770278
0.00839374
0.00752561
0.00783317
0.00850129
0.0085111
0.00866252
0.00769387
0.00836112
0.00872843
0.00808219
0.00776036
0.00845924
0.00797794
0.00860837
0.00812889
0.00868328
0.0081371
0.00823111
0.0087913
0.00770284
0.00827928
0.00834884
0.00865981
0.00875592
0.0087044
0.00803458
0.00854556
0.00873658
0.00824695
0.00876122
0.0086848
0.00853644
0.00850526
0.00845842
0.00879078
0.00884397
0.00879847
0.00857381
0.00821437
0.00857487
0.00842264
0.00773357
0.00831393
0.00867348
0.00869866
0.00879413
0.00842015
0.00872767
0.00870494
0.00826254
0.00868883
0.00865723
0.00853831
0.0086779
0.0078779
0.00828833
0.00856245
0.0076422
0.00850072
0.00837627
0.00840636
0.00834695
0.0087823
0.00859845
0.00866403
0.00830007
0.00860394
0.00844059
0.00875062
0.00850023
0.0083489
0.00799357
0.0086904
0.00812183
0.0083229
0.00840973
0.00834722
0.00851641
0.00875066
0.00792925
0.00871798
0.00798955
0.00854714
0.00831933
0.00832704
0.00838676
0.00871342
0.0078474
0.00855858
0.0087013
0.00877013
0.00854533
0.00840713
0.00756196
0.00863205
0.00867662
0.00851634
0.00859931
0.00868086
0.00851817
0.00868935
0.00839385
0.00802238
0.00836247
0.00875089
0.00772782
0.00804545
0.00888992
0.00864873
0.00818758
0.00835674
0.00847677
0.00814949
0.00839157
0.00809012
0.00867347
0.00875002
0.00762652
0.00851007
0.00871327
0.00869928
0.00888058
0.00835525
0.00868031
0.00805438
0.0080334
0.00871279
0.00865496
0.00843602
0.00807621
0.00864724
0.0086642
0.00821035
0.00878469
0.0086992
0.00871621
0.00857743
0.00862971
0.00854114
0.00850578
0.00834498
0.00819098
0.00784976
0.00847697
0.00845808
0.00801128
0.0087088
0.00782542
0.00832402
0.00838713
0.00796507
0.00837106
0.00823672
0.00848379
0.00843163
0.00866341
0.00796589
0.00795907
0.00833268
0.00784416
0.0082165
0.00866155
0.00838049
0.00869483
0.00854831
0.00834332
0.00878142
0.0082558
0.0085361
0.00835314
0.00836064
0.00851631
0.0080327
0.00846032
0.00864352
0.00872245
0.0087877
0.00802831
0.00783768
0.00846168
0.00867569
0.00805591
0.00828992
0.0086537
0.0083759
0.00892243
0.00835935
0.00832245
0.00866227
0.0079146
0.00867348
0.00884013
0.00800847
0.00817439
0.00841491
0.00827313
0.00876887
0.00880695
0.00864467
0.00806919
0.00866076
0.0078775
0.00834114
0.00872789
0.0083314
0.00891478
0.0077082
0.00847109
0.00854277
0.00851016
0.00778758
0.00783112
0.00863224
0.00880198
0.00827774
0.00875238
0.00857569
0.00841518
0.00791544
0.0082001
0.00857289
0.0083936
0.00842867
0.0088077
0.00873721
0.00885292
0.00876129
0.00854954
0.00854168
0.00859816
0.00807974
0.00870616
0.00858216
0.00851597
0.00854224
0.00879121
0.00841917
0.00874514
0.0083424
0.00760614
0.00882636
0.00821924
0.0086569
0.00820646
0.00869735
0.0080794
0.00857119
0.0088297
0.00836394
0.00843464
0.00776563
0.00863285
0.00867152
0.00850107
0.00785052
0.00886152
0.0083788
0.00849182
0.00871989
0.00874652
0.00864635
0.00839316
0.00848881
0.00886107
0.00807455
0.00812857
0.00800432
0.00809919
0.00852054
0.00784757
0.00876417
0.00873015
0.00887718
0.00832579
0.00826742
0.00845615
0.00864573
0.00845879
0.00850669
0.008727
0.00878033
0.00848623
0.00870097
0.00852196
0.00830778
0.00852354
0.00822066
0.00876056
0.00873734
0.00879218
0.00885193
0.00868216
0.0081869
0.00884089
0.00852197
0.00846884
0.00832486
0.00856468
0.00873589
0.00841682
0.00865554
0.00830176
0.00844325
0.00855214
0.00810318
0.00783175
0.00828475
0.0083666
0.00878648
0.00820603
0.00782074
0.00851124
0.0086901
0.00820559
0.00822126
0.00846067
0.00877507
0.00865857
0.00833
0.00826843
0.00845747
0.00871745
0.00826492
0.00839815
0.00843266
0.00781823
0.00829887
0.00834322
0.00861714
0.00867905
0.00840533
0.00871156
0.00861864
0.00840554
0.00844211
0.0079081
0.00809437
0.00784294
0.00873607
0.00855609
0.00885598
0.00901349
0.00853351
0.00782363
0.0087264
0.00827018
0.00854689
0.0085543
0.00867082
0.00785573
0.00870843
0.00796995
0.00847997
0.00844277
0.00841215
0.00889406
0.00834875
0.00863089
0.00806628
0.00835206
0.0084073
0.00874355
0.0081404
0.00823604
0.00860724
0.0086569
0.00861561
0.00862036
0.00874843
0.00802659
0.00846904
0.00831041
0.00821441
0.00860337
0.00882498
0.00877659
0.00867081
0.00882147
0.0080081
0.00798982
0.00803049
0.00870986
0.00784874
0.0086752
0.00855442
0.00793724
0.00827609
0.00862881
0.00871095
0.00818817
0.00825905
0.00826333
0.00852878
0.00880581
0.00838988
0.00796403
0.00850835
0.00887174
0.00866526
0.00888603
0.00876371
0.0089405
0.00878258
0.0087391
0.00810873
0.00782959
0.00847023
0.00817292
0.00880634
0.00799897
0.00855212
0.00837101
0.00880574
0.00815925
0.00866318
0.00863869
0.0085507
0.00840452
0.00797529
0.0087087
0.00829658
0.00885249
0.00843131
0.00879271
0.00876537
0.0084863
0.0078478
0.00794748
0.00838621
0.00862789
0.00814707
0.00893571
0.00803895
0.0085903
0.00860969
0.00825472
0.00857933
0.00859085
0.00876973
0.00876728
0.0087394
0.008508
0.00852785
0.00782504
0.00819845
0.00881146
0.00810972
0.00861489
0.00840026
0.00804608
0.00838859
0.00815566
0.00839816
0.00857024
0.00866281
0.00806961
0.00839152
0.00848575
0.00801075
0.00819842
0.0084244
0.00850071
0.00861395
0.00795674
0.00792263
0.00842535
0.00832828
0.0088247
0.00886933
0.00877079
0.00826271
0.00832024
0.00851848
0.00821415
0.0085924
0.0078916
0.00846394
0.00839543
0.0088184
0.00867316
0.00846094
0.00854849
0.00878391
0.00796773
0.00854384
0.0088188
0.00828568
0.0075005
0.00841848
0.00807151
0.00848646
0.00777247
0.00873686
0.00888765
0.00879742
0.00848767
0.00789718
0.00793514
0.00869708
0.00877362
0.00875482
0.0085144
0.00847465
0.00860202
0.00877712
0.00866553
0.00775278
0.00842039
0.00861794
0.0085688
0.00819081
0.00857617
0.00774786
0.00879228
0.00870381
0.00843028
0.00852382
0.00860053
0.00841401
0.00882605
0.00862017
0.00804243
0.00836629
0.00869325
0.00834378
0.00842997
0.00857708
0.00779305
0.00798806
0.00876151
0.00885152
0.00875646
0.008857
0.00854868
0.00870716
0.00851208
0.00854609
0.00857286
0.00872811
0.00824334
0.00841693
0.00824733
0.00843411
0.00868895
0.00768493
0.00850444
0.00779721
0.00871532
0.0078258
0.00774659
0.00837146
0.00773124
0.0085676
0.00852165
0.00869471
0.00873625
0.00824278
0.0081266
0.0088095
0.00829336
0.00799431
0.00848174
0.00813561
0.00877619
0.00860115
0.00850967
0.00802293
0.00867521
0.00863362
0.00875773
0.00783563
0.00825477
0.00855472
0.00858439
0.00891608
0.00796398
0.00791578
0.00871118
0.00858775
0.0087897
0.00845192
0.00768003
0.00857067
0.00868355
0.00785321
0.00776817
0.00873892
0.00802339
0.00803756
0.00871429
0.00884213
0.00865069
0.00889114
0.00840722
0.00832561
0.00876522
0.00812313
0.00874968
0.00823973
0.00842412
0.00870747
0.00838356
0.00785867
0.00866827
0.00866971
0.00826669
0.00842224
0.00845691
0.00820423
0.00763375
0.00847455
0.00853981
0.00866778
0.00827451
0.00845903
0.00788256
0.00864499
0.00883152
0.00775778
0.00860319
0.00855312
0.0075871
0.0078703
0.00850691
0.00842163
0.00869917
0.00833819
0.00803079
0.00865549
0.00877456
0.00870952
0.00858508
0.00876718
0.00792676
0.00877807
0.00845502
0.00800737
0.00790838
0.00747359
0.00797469
0.00853481
0.00836998
0.00858769
0.00841481
0.00806402
0.00818416
0.00777496
0.00773165
0.00882681
0.00879871
0.00808072
0.00877428
0.00877839
0.00803295
0.00843711
0.00850404
0.00820276
0.00826703
0.00874404
0.00818157
0.00771244
0.00875488
0.00877342
0.00828224
0.00880725
0.00828047
0.00809398
0.00802187
0.00829986
0.00778144
0.00802483
0.0085637
0.00853484
0.00835499
0.00873337
0.00878788
0.00840695
0.00861567
0.00593888
0.00831878
0.00792199
0.008341
0.00869283
0.00840028
0.00817607
0.00836165
0.00803814
0.00856933
0.00840492
0.00818077
0.00794495
0.00764151
0.00766339
0.00832812
0.00796567
0.00839044
0.007953
0.00830993
0.00872073
0.00846471
0.00830785
0.00847723
0.00862095
0.00843652
0.00863165
0.00779155
0.00848612
0.00873557
0.00877409
0.00831899
0.00888493
0.00814018
0.00861136
0.00839523
0.00784821
0.00873147
0.0087521
0.00855816
0.00847967
0.0086548
0.00852947
0.00763632
0.00771156
0.00834146
0.00881927
0.00845322
0.00871702
0.00824022
0.0083381
0.00805722
0.00789538
0.00791282
0.00786416
0.00858523
0.00854077
0.0086601
0.00827642
0.00826233
0.00889689
0.00801356
0.00839728
0.00883705
0.00869435
0.00816594
0.00834748
0.00863201
0.00870745
0.00872464
0.00730349
0.0085705
0.00868745
0.00845275
0.00839397
0.00877802
0.00862719
0.00876083
0.00854788
0.00815687
0.00851262
0.00873581
0.00855469
0.0083326
0.00795761
0.00872891
0.00873686
0.00867245
0.00868733
0.00772435
0.00750525
0.00833999
0.00862396
0.00832826
0.00854208
0.0086298
0.00865785
0.0086667
0.00827257
0.00865336
0.0084556
0.00869159
0.00804498
0.00802969
0.0083427
0.0088278
0.00802081
0.00866838
0.00795295
0.00836219
0.00845547
0.00887134
0.00842212
0.00871471
0.00883066
0.00866525
0.00849035
0.00865334
0.00843452
0.0082564
0.00768425
0.00885653
0.00741954
0.00791594
0.00731821
0.007681
0.00778559
0.00834996
0.00854398
0.00796967
0.00822176
0.0075555
0.00800946
0.00813324
0.00879314
0.00781749
0.00786562
0.00863229
0.00782589
0.00824984
0.00849097
0.00865306
0.00828587
0.00788951
0.0076691
0.00816407
0.00887113
0.00811672
0.0077909
0.00859259
0.00823054
0.00850544
0.00842451
0.00802554
0.00868586
0.00766466
0.00785328
0.00830022
0.00870269
0.00827313
0.0083604
0.00837825
0.00841083
0.00763239
0.00806748
0.00832662
0.00860809
0.00864322
0.00789192
0.00754166
0.00831163
0.00881175
0.00838619
0.00847124
0.00805808
0.00834023
0.00842446
0.00788477
0.00875563
0.00820637
0.00784863
0.00756255
0.00859337
0.00843258
0.00874884
0.00845538
0.00869622
0.00792576
0.00831453
0.00768393
0.00756963
0.00869455
0.00802164
0.0084344
0.00846754
0.00809559
0.00785302
0.00876474
0.00867571
0.00879801
0.00853145
0.00737776
0.00838911
0.00763297
0.00874224
0.00799267
0.00872152
0.00755474
0.00859884
0.00861694
0.00819087
0.00822457
0.00767365
0.00815752
0.00841218
0.00859773
0.00856719
0.0088015
0.00863405
0.00800496
0.0087808
0.00759753
0.00850985
0.00858063
0.00872481
0.00868181
0.00820519
0.00880704
0.00837286
0.00822623
0.00819225
0.00846804
0.00864631
0.00814936
0.00789813
0.00876195
0.00859924
0.0083157
0.00871354
0.00854222
0.00856955
0.00859629
0.00864426
0.00865016
0.00835159
0.00835589
0.00870258
0.00863387
0.00758031
0.00841766
0.00803497
0.00880208
0.00858076
0.00872848
0.00786375
0.00784625
0.00846254
0.00848736
0.00848998
0.0085701
0.00867139
0.00839034
0.00858883
0.00797105
0.00854605
0.00832231
0.00876303
0.00867612
0.00874047
0.00852831
0.00875475
0.00817691
0.00871913
0.00808928
0.00833522
0.00826604
0.00849221
0.00833614
0.00859833
0.00777589
0.00872009
0.00855981
0.00832086
0.00789199
0.00872808
0.00851364
0.00866475
0.00836278
0.00843396
0.00868655
0.00785736
0.00872253
0.00841917
0.00846992
0.00808357
0.00816772
0.00824316
0.00782947
0.00826786
0.00887622
0.0085125
0.00752349
0.00847686
0.00780875
0.00853163
0.00857555
0.00770206
0.00773949
0.00819675
0.00847681
0.00867757
0.00824333
0.00829253
0.00840458
0.00758355
0.0082886
0.00873146
0.0086803
0.00872485
0.00838322
0.00861338
0.00797303
0.00800171
0.00885748
0.0084379
0.00857052
0.00859512
0.00880048
0.00846904
0.00844874
0.00770118
0.00847872
0.00870219
0.00817918
0.00868191
0.0086115
0.00852874
0.00799246
0.00852156
0.00830797
0.0074702
0.00853065
0.00811944
0.00789753
0.00853591
0.00845095
0.00865419
0.008657
0.00852341
0.00886572
0.00747881
0.00822812
0.00866938
0.00876477
0.00765278
0.00858314
0.00797808
0.00811187
0.00877479
0.00807687
0.00854744
0.00884757
0.00860843
0.00764104
0.00860276
0.00797663
0.00868384
0.00857786
0.0085598
0.00871979
0.00851339
0.00866837
0.00787066
0.00853259
0.0086731
0.00792738
0.00854213
0.00845709
0.00826257
0.00867104
0.00825398
0.00870714
0.00877593
0.00876817
0.00837823
0.00863124
0.00849751
0.00855915
0.00818026
0.00811261
0.00783596
0.00771833
0.00855228
0.00864274
0.00843245
0.00880914
0.00807291
0.00878474
0.00770814
0.00885206
0.00880857
0.00864285
0.00878258
0.00815909
0.00767385
0.00836947
0.0079194
0.00873009
0.00840953
0.00773797
0.00831057
0.00888723
0.00854964
0.00784071
0.00811839
0.00768056
0.00887719
0.00786134
0.00867873
0.00807319
0.00804744
0.00874349
0.00874232
0.00873089
0.00857299
0.00769174
0.00844169
0.00875357
0.00797403
0.00881955
0.00834899
0.00887208
0.00748724
0.00851263
0.00809394
0.00843858
0.00818214
0.00830944
0.00825665
0.00811322
0.0083473
0.0083742
0.00838997
0.00828212
0.00882475
0.00791956
0.00840904
0.00838262
0.00855749
0.00878306
0.00802605
0.00864828
0.00791308
0.00835958
0.0087049
0.00861893
0.00835648
0.00855458
0.00857294
0.00809073
0.00840792
0.00833424
0.007806
0.00779736
0.00860416
0.00864016
0.00798679
0.00831954
0.00863377
0.00793428
0.00851543
0.00804943
0.00859476
0.00878716
0.00839083
0.00788594
0.00864797
0.00771889
0.00853788
0.00881931
0.00744415
0.0089342
0.00793345
0.00828285
0.00815372
0.00789311
0.008324
0.00820706
0.00771433
0.00874826
0.00871734
0.00740552
0.0082547
0.00840776
0.00844682
0.00858225
0.00882047
0.00867024
0.00816367
0.00809274
0.00770221
0.00761968
0.00702553
0.00877732
0.0084615
0.0085563
0.00862434
0.00786935
0.00776822
0.00836143
0.008693
0.00771318
0.0086332
0.00840647
0.00840447
0.00855395
0.00819312
0.00852636
0.00829248
0.00840619
0.00876087
0.00738819
0.00844119
0.00842532
0.0086958
0.00848992
0.00867952
0.00845511
0.00793229
0.00881453
0.00900532
0.00843176
0.00831992
0.00791038
0.00824696
0.00855097
0.00872474
0.00831623
0.00833582
0.00823817
0.00764255
0.00819838
0.00875742
0.00825761
0.0089538
0.00842828
0.00822448
0.00873909
0.00785811
0.00858504
0.0078434
0.00876245
0.00855942
0.00824268
0.00891903
0.00821929
0.00841659
0.0087291
0.0083129
0.00854829
0.00825407
0.00860345
0.00787
0.00842714
0.00839446
0.00796154
0.00865368
0.00823747
0.00815579
0.00874919
0.00795464
0.00876542
0.00833196
0.00867771
0.00805917
0.00850362
0.00791209
0.0078834
0.00869213
0.00795305
0.00833451
0.0086357
0.00764933
0.00832415
0.00859707
0.00824038
0.00780512
0.00815493
0.00836794
0.00825459
0.00848103
0.00837256
0.00860477
0.00818099
0.00867564
0.00756077
0.0077255
0.00877409
0.00819665
0.00764684
0.00779677
0.00841748
0.00689414
0.00781904
0.0084149
0.0084053
0.00888782
0.00798838
0.00869829
0.00869202
0.00872631
0.00871574
0.00881398
0.00829928
0.00821526
0.00866842
0.00824298
0.00821344
0.00855506
0.00825776
0.00756102
0.00783342
0.00830518
0.00723542
0.00858042
0.00861571
0.00824387
0.00864881
0.00869995
0.00842211
0.00896702
0.00809048
0.00773548
0.00828033
0.00832092
0.00855979
0.00821841
0.0084664
0.00874318
0.00828226
0.00815217
0.00841883
0.00884867
0.00863814
0.00890793
0.00864465
0.00835313
0.00844369
0.00809929
0.00813495
0.0088325
0.00816566
0.00882229
0.00824277
0.0086626
0.00741365
0.00854894
0.00841159
0.0084565
0.00808573
0.00858848
0.00838236
0.00866649
0.00747212
0.00814177
0.00841217
0.00821572
0.00845317
0.00841591
0.00845748
0.00870355
0.00843873
0.00767585
0.00810444
0.00785096
0.00844744
0.008406
0.00789563
0.0089061
0.00849807
0.00845199
0.0086831
0.00805921
0.00789572
0.00880023
0.00786901
0.0077306
0.00756723
0.00764433
0.00752259
0.00821202
0.00880617
0.00872639
0.00834872
0.00843771
0.00857537
0.00817393
0.00857702
0.00772202
0.00871805
0.00586867
0.00856272
0.00780997
0.00766622
0.00861373
0.00784228
0.00852355
0.00857936
0.00866217
0.00795228
0.00852477
0.00836086
0.00842771
0.00783832
0.00868115
0.00851271
0.00870273
0.00853606
0.00789946
0.00839769
0.00842357
0.00819434
0.00754831
0.0080846
0.00805006
0.00774018
0.0078325
0.00842821
0.00814782
0.00780992
0.00815196
0.0086202
0.00870877
0.00877816
0.00610454
0.00773804
0.00866842
0.00779335
0.00854813
0.00765368
0.00880045
0.00856003
0.00863277
0.00788809
0.00838937
0.00874854
0.00873716
0.00850654
0.00866164
0.00843332
0.00839865
0.00839141
0.00781357
0.00844149
0.00817318
0.00815511
0.00816364
0.00762421
0.00838431
0.00871361
0.00794833
0.00811487
0.00782098
0.00860754
0.00855894
0.00764272
0.00828449
0.00842485
0.0085197
0.0078403
0.0084227
0.00847798
0.00896399
0.00705791
0.00845752
0.00833174
0.00776134
0.00876558
0.00807404
0.00797233
0.00852246
0.00881493
0.00778647
0.00870835
0.00852786
0.00779158
0.00772608
0.0086467
0.00876781
0.00781625
0.00848893
0.00769489
0.00813095
0.00877142
0.00806301
0.00852517
0.00842984
0.00885748
0.00826006
0.00823438
0.0080699
0.00830239
0.00847306
0.00818031
0.00863942
0.00788649
0.00785357
0.00848745
0.00830203
0.00864686
0.00819282
0.00865693
0.0085409
0.00851575
0.00869219
0.00855836
0.00826004
0.00793772
0.00859903
0.00833413
0.00819537
0.00849277
0.00882134
0.00862939
0.00821045
0.00780863
0.00846282
0.00799779
0.00761988
0.00811926
0.00829441
0.00756819
0.00854612
0.00796838
0.00727536
0.00777925
0.00845984
0.00736413
0.00828714
0.00860563
0.00842708
0.00767784
0.00844696
0.00894887
0.00786497
0.00757788
0.00796823
0.00857234
0.00839821
0.0082902
0.00863479
0.00781699
0.00866484
0.00844891
0.00879158
0.00870725
0.00599252
0.00846442
0.00851497
0.00854697
0.00812569
0.00834286
0.00727963
0.00832487
0.00876856
0.00819095
0.0077115
0.00830727
0.00859043
0.00854389
0.00758845
0.00847376
0.00866983
0.00878365
0.00838151
0.00846876
0.00767017
0.00769581
0.00767513
0.00842767
0.00832151
0.00853454
0.0088578
0.00862556
0.00743718
0.00871529
0.00865954
0.00866932
0.00823653
0.00872354
0.00795472
0.00799807
0.00823593
0.00836207
0.00804892
0.00764422
0.00852263
0.00810896
0.00862501
0.00805497
0.00725152
0.0082129
0.00853986
0.00834955
0.00785583
0.00803841
0.0086029
0.00868004
0.00808585
0.00830648
0.00857023
0.00877443
0.00856206
0.00882399
0.00854672
0.00855424
0.00758979
0.00842356
0.00792575
0.00865089
0.00836454
0.0081483
0.00774187
0.00879528
0.00758795
0.00817632
0.00768727
0.0081571
0.00737276
0.00832178
0.00838009
0.00838621
0.00818197
0.00809509
0.00865752
0.00782676
0.00855895
0.00813702
0.00832101
0.00741825
0.00858643
0.0083065
0.007946
0.00809035
0.00835901
0.00829797
0.00836299
0.00684752
0.00846377
0.00825362
0.00829782
0.00799951
0.0081653
0.00814827
0.00695251
0.00858253
0.00837949
0.00492315
0.00798119
0.00864574
0.00856425
0.00858241
0.00801725
0.00713597
0.00867518
0.00792689
0.00865322
0.00882962
0.00834104
0.00802222
0.00872369
0.00766734
0.00738925
0.00746292
0.00841743
0.00835456
0.00805362
0.0088191
0.00859894
0.00846341
0.00799636
0.00755007
0.00885315
0.00848438
0.00889156
0.00860264
0.00773593
0.00816249
0.00830996
0.0078481
0.00837091
0.00822391
0.00842512
0.00897154
0.00829668
0.00839895
0.00788084
0.00817888
0.00809993
0.00841658
0.00826339
0.00766621
0.00791555
0.00840715
0.00858516
0.00780785
0.00847335
0.00806826
0.00862007
0.00783077
0.00786625
0.00697338
0.00870757
0.00868234
0.00852732
0.00853265
0.00818707
0.00779799
0.00769903
0.00714313
0.00830659
0.00769788
0.00824455
0.00815164
0.00857749
0.00818836
0.00858848
0.00790978
0.00507733
0.00786988
0.00862398
0.00559864
0.00841557
0.00887434
0.008246
0.00883055
0.00777674
0.00793922
0.00793848
0.00877568
0.00668821
0.00870156
0.00789573
0.00721224
0.00865664
0.00796359
0.00871145
0.00531447
0.0075371
0.00839515
0.00858849
0.00878083
0.00854924
0.00871985
0.00856136
0.00856853
0.00869693
0.00856543
0.00838691
0.00807713
0.00694183
0.00858193
0.00806455
0.00813405
0.00867849
0.00865778
0.00833655
0.00761264
0.00878663
0.00859726
0.0082797
0.00776668
0.00770973
0.00852507
0.0086329
0.00872496
0.00863185
0.00831132
0.00849198
0.00776171
0.00857425
0.00834461
0.00857436
0.00810571
0.00774044
0.00721689
0.00826357
0.00891998
0.00856986
0.00818637
0.00797072
0.00825237
0.0077953
0.00767499
0.00853596
0.00809983
0.00636162
0.00680614
0.00726953
0.00772607
0.00835479
0.00815093
0.00823458
0.00819579
0.00744506
0.00826013
0.00866107
0.00740184
0.00893491
0.0075641
0.00863628
0.00792389
0.00866247
0.00845227
0.00850178
0.00855796
0.00807152
0.00779408
0.0079901
0.00807073
0.00854598
0.00836025
0.00796949
0.007926
0.00837542
0.00761484
0.00835773
0.00798854
0.00858624
0.00803282
0.00826922
0.00638227
0.00870264
0.00878856
0.00840109
0.00860984
0.00829681
0.00828581
0.00841604
0.00850182
0.00852363
0.00868686
0.00852812
0.00759519
0.00753469
0.00893377
0.00778315
0.00757135
0.00752614
0.00831679
0.00867624
0.00827125
0.00884524
0.00889432
0.00864832
0.00862076
0.00820739
0.00775208
0.00819427
0.0071266
0.00849499
0.00827909
0.00817175
0.00821057
0.00800739
0.00821405
0.00874716
0.00745218
0.00798991
0.00823821
0.00751022
0.00861212
0.00716588
0.0073867
0.00761708
0.00838555
0.00792366
0.00765343
0.00795145
0.00770604
0.00827639
0.00701157
0.00698519
0.00822566
0.00773427
0.00741257
0.00829425
0.00772668
0.00808658
0.00818887
0.00796407
0.00763835
0.00826564
0.00785241
0.0079638
0.00760927
0.00810056
0.00801212
0.00717531
0.00861728
0.00820757
0.00825294
0.00792091
0.00786367
0.0076066
0.00831862
0.00827614
0.00868109
0.00840155
0.00843757
0.00812995
0.00843058
0.00861379
0.00845586
0.00661849
0.0068874
0.00747637
0.00855374
0.0075671
0.00846579
0.00676645
0.00802011
0.00839758
0.00792121
0.00812412
0.00809772
0.00808418
0.00812962
0.00877634
0.00789975