/*--------------------------------*- C++ -*----------------------------------*\
| =========                 |                                                 |
| \\      /  F ield         | OpenFOAM: The Open Source CFD Toolbox           |
|  \\    /   O peration     | Version:  2212                                  |
|   \\  /    A nd           | Website:  www.openfoam.com                      |
|    \\/     M anipulation  |                                                 |
\*---------------------------------------------------------------------------*/
FoamFile
{
    version     2.0;
    format      ascii;
    arch        "LSB;label=32;scalar=64";
    class       volScalarField;
    location    "0.058";
    object      nut;
}
// * * * * * * * * * * * * * * * * * * * * * * * * * * * * * * * * * * * * * //

dimensions      [0 2 -1 0 0 0 0];

internalField   nonuniform List<scalar> 
31639
(
3.00782e-05
2.91331e-05
2.95599e-05
3.25303e-05
2.89112e-05
2.819e-05
2.71935e-05
3.02857e-05
2.94899e-05
3.15463e-05
3.10094e-05
3.14303e-05
2.97629e-05
3.19715e-05
2.82306e-05
2.61685e-05
3.03139e-05
2.77336e-05
2.61599e-05
2.95218e-05
2.21054e-05
3.15112e-05
3.18333e-05
2.62036e-05
2.55368e-05
2.91766e-05
2.93229e-05
2.44148e-05
2.73534e-05
3.20263e-05
3.16492e-05
2.68863e-05
3.20945e-05
2.54839e-05
2.36295e-05
3.1888e-05
2.06203e-05
3.29524e-05
3.18366e-05
1.98492e-05
2.34458e-05
2.34819e-05
3.1366e-05
3.12074e-05
3.07571e-05
3.15805e-05
2.82807e-05
2.7928e-05
3.03986e-05
3.22713e-05
3.15047e-05
2.04229e-05
3.19335e-05
2.14911e-05
2.73482e-05
2.96255e-05
2.2088e-05
2.94748e-05
2.89215e-05
2.23521e-05
2.91854e-05
3.10105e-05
2.57332e-05
2.92115e-05
2.9793e-05
3.24455e-05
2.90086e-05
2.94106e-05
2.46692e-05
3.22399e-05
3.14078e-05
2.69235e-05
3.09585e-05
2.95971e-05
3.13463e-05
2.37235e-05
3.12677e-05
2.76709e-05
2.82064e-05
3.0319e-05
2.58934e-05
1.94767e-05
3.19561e-05
3.00196e-05
3.02635e-05
3.13517e-05
3.2098e-05
3.18574e-05
2.45057e-05
3.24552e-05
2.98351e-05
2.94685e-05
2.27023e-05
2.84467e-05
2.49412e-05
2.85462e-05
2.80557e-05
2.94177e-05
2.97186e-05
2.25825e-05
3.16333e-05
3.08511e-05
2.85282e-05
2.19642e-05
2.2368e-05
3.17414e-05
2.20364e-05
2.08383e-05
2.49035e-05
2.16389e-05
3.10978e-05
2.27507e-05
2.84968e-05
2.69842e-05
2.95026e-05
2.14151e-05
2.82223e-05
2.84651e-05
3.01419e-05
2.88666e-05
3.09138e-05
3.11609e-05
3.11684e-05
2.95991e-05
2.94271e-05
3.16795e-05
2.93307e-05
2.52005e-05
2.43839e-05
3.09796e-05
3.16317e-05
3.13563e-05
3.16917e-05
2.75101e-05
3.09768e-05
2.93956e-05
2.24806e-05
2.12926e-05
3.11462e-05
2.94174e-05
2.93329e-05
3.13176e-05
3.14975e-05
2.14954e-05
2.04255e-05
3.1793e-05
3.05459e-05
2.31713e-05
2.32326e-05
3.13267e-05
2.51426e-05
3.03344e-05
2.62756e-05
3.03854e-05
2.4154e-05
3.23302e-05
2.89191e-05
2.40706e-05
2.37962e-05
2.60945e-05
3.18632e-05
2.42248e-05
2.53656e-05
2.21216e-05
2.2712e-05
2.87288e-05
2.39116e-05
3.22814e-05
3.13623e-05
2.18599e-05
2.80283e-05
2.73338e-05
2.33055e-05
2.94971e-05
3.24642e-05
3.03425e-05
2.9768e-05
3.21684e-05
2.95214e-05
2.9534e-05
2.82858e-05
2.79496e-05
2.78851e-05
2.03163e-05
2.93753e-05
3.27008e-05
2.91882e-05
3.2151e-05
2.2802e-05
2.27676e-05
3.3298e-05
3.08673e-05
3.05211e-05
2.89352e-05
2.95565e-05
2.76666e-05
2.74035e-05
3.10646e-05
2.21505e-05
2.75215e-05
3.17423e-05
3.24001e-05
3.1122e-05
3.06656e-05
2.85983e-05
2.87295e-05
2.86337e-05
2.78829e-05
3.1607e-05
2.0269e-05
2.89962e-05
2.77648e-05
3.01588e-05
3.12104e-05
3.10257e-05
3.1962e-05
2.34593e-05
2.62438e-05
3.12781e-05
3.06556e-05
3.04714e-05
2.85812e-05
2.21333e-05
2.83002e-05
2.2351e-05
2.75192e-05
3.10051e-05
2.6278e-05
2.32778e-05
3.026e-05
3.00912e-05
3.24758e-05
2.42061e-05
2.26573e-05
3.01537e-05
3.04864e-05
2.21195e-05
3.21696e-05
2.54284e-05
2.19708e-05
2.84021e-05
3.02432e-05
2.89775e-05
2.63726e-05
2.59272e-05
3.03563e-05
2.84113e-05
2.78901e-05
2.33538e-05
2.88549e-05
2.80737e-05
2.35369e-05
2.64825e-05
3.2187e-05
3.08668e-05
2.71263e-05
2.37959e-05
3.08177e-05
3.09141e-05
2.91785e-05
3.23552e-05
3.17289e-05
2.89541e-05
3.17489e-05
2.82571e-05
2.79576e-05
2.15816e-05
2.58818e-05
3.19235e-05
2.79937e-05
3.01218e-05
2.67984e-05
2.89698e-05
3.23608e-05
3.25439e-05
2.9887e-05
2.25992e-05
2.79752e-05
2.53538e-05
3.16442e-05
2.82976e-05
3.21918e-05
3.21224e-05
2.7464e-05
2.32156e-05
2.53578e-05
2.40198e-05
2.20938e-05
3.16455e-05
2.45416e-05
3.05943e-05
2.86459e-05
2.65126e-05
2.4078e-05
3.27119e-05
2.7101e-05
2.67461e-05
3.14459e-05
2.93615e-05
2.56201e-05
2.84958e-05
2.47864e-05
2.93251e-05
2.85586e-05
2.32938e-05
2.71182e-05
2.77645e-05
1.94518e-05
2.09855e-05
3.16432e-05
3.19343e-05
3.0538e-05
2.19767e-05
2.41802e-05
3.08981e-05
2.47075e-05
2.44274e-05
3.17905e-05
3.27039e-05
2.8525e-05
3.14243e-05
3.22138e-05
2.36175e-05
3.14009e-05
2.15618e-05
2.15764e-05
3.19969e-05
3.15697e-05
3.17323e-05
3.24395e-05
3.08401e-05
2.41102e-05
2.90825e-05
2.87271e-05
3.17347e-05
3.23933e-05
3.27644e-05
2.8649e-05
2.76815e-05
3.0654e-05
3.0836e-05
2.9864e-05
2.83686e-05
2.82571e-05
2.83658e-05
2.86611e-05
3.00036e-05
2.86245e-05
2.3545e-05
2.9569e-05
3.22627e-05
2.74589e-05
3.11563e-05
3.21365e-05
2.90146e-05
2.32604e-05
2.89025e-05
2.87918e-05
2.19178e-05
3.30524e-05
2.44397e-05
2.95986e-05
3.10323e-05
2.11844e-05
2.91262e-05
2.89327e-05
2.27098e-05
2.92661e-05
2.38629e-05
2.873e-05
3.19121e-05
3.02016e-05
2.0961e-05
2.97095e-05
2.39823e-05
2.98173e-05
3.15417e-05
3.19051e-05
3.15444e-05
2.44042e-05
3.11753e-05
2.22103e-05
2.83502e-05
2.17928e-05
3.2107e-05
3.11796e-05
3.17688e-05
3.14759e-05
2.53959e-05
3.19432e-05
2.88999e-05
3.05338e-05
2.86751e-05
2.46328e-05
2.85745e-05
3.04583e-05
3.05888e-05
3.07661e-05
2.9169e-05
3.07384e-05
2.80013e-05
2.36865e-05
2.83335e-05
3.00634e-05
3.05073e-05
2.1055e-05
3.16382e-05
3.15351e-05
2.86749e-05
3.0195e-05
3.06294e-05
2.918e-05
3.218e-05
2.22845e-05
2.99267e-05
3.15436e-05
2.12792e-05
2.88967e-05
3.0048e-05
2.40311e-05
2.25329e-05
2.24849e-05
2.68056e-05
2.2432e-05
2.8599e-05
2.83415e-05
2.6803e-05
3.17744e-05
2.30129e-05
3.11388e-05
3.20065e-05
2.90496e-05
3.11313e-05
2.74938e-05
3.17307e-05
2.86777e-05
2.92838e-05
3.24064e-05
2.89719e-05
2.29567e-05
2.92528e-05
3.15395e-05
3.15096e-05
3.04538e-05
3.18848e-05
2.82773e-05
2.97719e-05
3.11005e-05
3.22885e-05
3.12425e-05
2.35985e-05
2.85794e-05
2.02695e-05
2.81364e-05
2.85038e-05
2.29605e-05
2.21988e-05
2.69978e-05
3.07857e-05
3.11213e-05
2.26724e-05
3.06126e-05
2.64369e-05
2.88467e-05
3.07071e-05
2.19138e-05
2.86178e-05
2.1617e-05
2.80885e-05
3.16261e-05
3.21536e-05
3.10407e-05
2.8272e-05
2.17322e-05
3.03004e-05
2.9439e-05
3.05353e-05
2.19729e-05
2.34975e-05
2.87869e-05
2.26629e-05
2.39509e-05
2.92714e-05
2.18027e-05
2.76042e-05
2.18465e-05
3.0306e-05
2.31301e-05
3.22955e-05
3.13675e-05
3.12161e-05
3.16742e-05
2.60149e-05
3.11285e-05
3.16135e-05
2.91907e-05
3.10375e-05
2.93547e-05
3.1304e-05
3.17533e-05
2.65202e-05
3.14142e-05
3.18622e-05
2.89236e-05
2.59939e-05
3.2407e-05
2.92802e-05
2.10121e-05
2.14669e-05
2.91066e-05
3.22024e-05
3.19692e-05
2.88969e-05
3.28125e-05
3.2034e-05
3.07605e-05
2.94447e-05
2.76642e-05
2.76234e-05
2.38106e-05
2.90376e-05
2.99497e-05
3.20644e-05
2.52801e-05
2.49936e-05
2.44896e-05
2.80681e-05
2.86329e-05
2.05708e-05
3.01754e-05
2.6386e-05
3.02808e-05
2.86058e-05
3.14915e-05
2.84323e-05
2.38115e-05
3.04699e-05
3.20078e-05
2.50208e-05
3.12225e-05
3.20822e-05
2.84194e-05
2.8775e-05
2.44496e-05
2.46709e-05
2.89113e-05
2.92022e-05
2.40384e-05
2.35296e-05
2.93106e-05
2.50093e-05
3.02784e-05
2.54534e-05
2.79661e-05
3.17091e-05
2.89111e-05
2.2189e-05
2.64311e-05
2.93517e-05
3.194e-05
2.29499e-05
2.00438e-05
3.12572e-05
2.21709e-05
2.97283e-05
3.24551e-05
2.32883e-05
2.8995e-05
3.12479e-05
2.87568e-05
2.25641e-05
3.15072e-05
2.87863e-05
2.29982e-05
3.12457e-05
2.96762e-05
2.85744e-05
3.04137e-05
2.10624e-05
2.59037e-05
2.99624e-05
2.70869e-05
2.70412e-05
2.82192e-05
3.14102e-05
3.13115e-05
3.03345e-05
3.1399e-05
3.19369e-05
3.09055e-05
2.53996e-05
3.11469e-05
3.16652e-05
3.21582e-05
2.5092e-05
2.93819e-05
2.9156e-05
3.33108e-05
2.41371e-05
2.08522e-05
3.21005e-05
2.43996e-05
3.30117e-05
2.81707e-05
2.36027e-05
2.9215e-05
3.15834e-05
2.9728e-05
2.9861e-05
2.16777e-05
3.06282e-05
2.91566e-05
2.13846e-05
3.18031e-05
3.12353e-05
2.40517e-05
2.31641e-05
2.44688e-05
2.67948e-05
2.98764e-05
2.9434e-05
2.88467e-05
2.9242e-05
3.15479e-05
2.89957e-05
2.8687e-05
2.33669e-05
3.25458e-05
2.19034e-05
2.89981e-05
2.7758e-05
2.67474e-05
3.23609e-05
2.90568e-05
2.52496e-05
2.21537e-05
2.29333e-05
2.76998e-05
3.1601e-05
2.49525e-05
3.23396e-05
2.87147e-05
3.15083e-05
2.34382e-05
2.80537e-05
3.06945e-05
3.26133e-05
3.2002e-05
3.11394e-05
2.939e-05
2.89657e-05
3.22432e-05
3.21981e-05
3.15296e-05
2.55133e-05
3.14053e-05
2.34413e-05
3.18111e-05
2.97506e-05
2.88965e-05
2.43048e-05
2.84143e-05
2.01e-05
3.20232e-05
2.93678e-05
3.24469e-05
2.85817e-05
2.72489e-05
2.31135e-05
3.14469e-05
2.22027e-05
2.0744e-05
2.3763e-05
2.57605e-05
2.32273e-05
2.86384e-05
2.22039e-05
3.14078e-05
2.98499e-05
2.08983e-05
3.20543e-05
2.39432e-05
2.564e-05
2.81777e-05
2.66649e-05
3.04444e-05
3.21537e-05
3.26456e-05
3.11981e-05
2.85223e-05
2.97735e-05
2.73584e-05
2.7473e-05
2.22546e-05
1.67786e-05
3.21477e-05
2.85033e-05
3.06419e-05
3.14213e-05
2.27168e-05
3.16524e-05
3.1664e-05
3.09993e-05
3.11783e-05
3.07673e-05
2.9843e-05
3.24325e-05
3.26018e-05
2.92822e-05
3.13509e-05
3.12627e-05
2.41991e-05
3.15086e-05
2.64602e-05
2.96829e-05
2.76173e-05
2.87233e-05
2.59409e-05
3.23935e-05
2.86853e-05
2.92409e-05
2.81966e-05
2.43206e-05
3.24651e-05
2.94638e-05
2.69476e-05
2.36282e-05
3.09453e-05
2.18747e-05
3.17669e-05
3.05229e-05
2.7367e-05
3.11318e-05
3.28297e-05
3.13926e-05
2.22609e-05
2.97176e-05
2.80617e-05
2.9214e-05
2.41489e-05
3.15101e-05
3.14552e-05
2.77661e-05
2.90772e-05
2.78655e-05
3.03751e-05
2.67806e-05
2.82159e-05
2.17225e-05
3.11002e-05
2.98459e-05
3.11212e-05
2.5877e-05
2.90834e-05
3.01378e-05
2.90483e-05
2.65211e-05
3.0862e-05
3.11405e-05
2.84032e-05
2.18121e-05
2.15667e-05
2.87489e-05
2.06525e-05
2.3513e-05
2.94434e-05
2.97425e-05
3.15976e-05
2.15227e-05
2.86773e-05
3.19713e-05
2.46579e-05
2.23134e-05
2.96785e-05
2.39807e-05
2.99876e-05
2.48609e-05
3.11834e-05
2.54961e-05
2.65829e-05
3.23515e-05
2.16181e-05
2.78999e-05
2.83863e-05
3.12655e-05
3.18852e-05
3.1965e-05
2.3931e-05
3.05502e-05
3.15995e-05
2.67533e-05
3.22774e-05
3.13373e-05
2.97743e-05
3.11996e-05
2.94415e-05
3.21491e-05
3.27909e-05
3.22558e-05
3.05284e-05
2.68708e-05
3.01902e-05
2.91696e-05
2.23512e-05
2.82035e-05
3.07362e-05
3.16469e-05
3.18295e-05
2.86623e-05
3.20237e-05
3.15994e-05
2.82014e-05
3.12774e-05
3.1363e-05
3.03012e-05
3.08876e-05
2.29397e-05
2.74835e-05
3.06566e-05
2.07364e-05
2.92643e-05
2.84817e-05
2.8068e-05
2.82434e-05
3.24151e-05
3.073e-05
3.15143e-05
2.78793e-05
3.06289e-05
2.92214e-05
3.16406e-05
2.96391e-05
2.74772e-05
2.36742e-05
3.14824e-05
2.41016e-05
2.78682e-05
2.82267e-05
2.82152e-05
2.97456e-05
3.2292e-05
2.31823e-05
3.1602e-05
2.39616e-05
3.02042e-05
2.70807e-05
2.82478e-05
2.85932e-05
3.19512e-05
2.2822e-05
3.0599e-05
3.16775e-05
3.14439e-05
2.96373e-05
2.86257e-05
2.0603e-05
3.11632e-05
3.1177e-05
2.98569e-05
3.10759e-05
3.16321e-05
2.99832e-05
3.03438e-05
2.93559e-05
2.43625e-05
2.79192e-05
3.21485e-05
2.21215e-05
2.47462e-05
3.29109e-05
3.14149e-05
2.63526e-05
2.77572e-05
2.8875e-05
2.58769e-05
2.87643e-05
2.51236e-05
3.13612e-05
3.1694e-05
2.06298e-05
2.94955e-05
3.2047e-05
3.11491e-05
3.21956e-05
2.87728e-05
3.15417e-05
2.44224e-05
2.42869e-05
3.20684e-05
3.13225e-05
2.93086e-05
2.47331e-05
3.11771e-05
3.13014e-05
2.55952e-05
3.19613e-05
3.16914e-05
3.17737e-05
3.01382e-05
3.11457e-05
2.95802e-05
3.00153e-05
2.86868e-05
2.65363e-05
2.28935e-05
2.95301e-05
2.94942e-05
2.43723e-05
3.18887e-05
2.23014e-05
2.80715e-05
2.82516e-05
2.35227e-05
2.8289e-05
2.68573e-05
2.98199e-05
2.87542e-05
3.10244e-05
2.32506e-05
2.3119e-05
2.78233e-05
2.28338e-05
2.7423e-05
3.15013e-05
2.86109e-05
3.1623e-05
2.88311e-05
2.85471e-05
3.18947e-05
2.69116e-05
2.92363e-05
2.87044e-05
2.85516e-05
2.94945e-05
2.41572e-05
2.91938e-05
3.07837e-05
3.21344e-05
3.24242e-05
2.34125e-05
2.26816e-05
2.91851e-05
3.16687e-05
2.49704e-05
2.77925e-05
3.03698e-05
2.87921e-05
3.32663e-05
2.80039e-05
2.82121e-05
3.04609e-05
2.32778e-05
3.14534e-05
3.19653e-05
2.39778e-05
2.59262e-05
2.91524e-05
2.70015e-05
3.21262e-05
3.22696e-05
3.01731e-05
2.43214e-05
3.14254e-05
2.30108e-05
2.79773e-05
3.11666e-05
2.67782e-05
3.28086e-05
2.16702e-05
2.93513e-05
3.01135e-05
2.93411e-05
2.17476e-05
2.26784e-05
3.1404e-05
3.22138e-05
2.70056e-05
3.22606e-05
3.00361e-05
2.9018e-05
2.29508e-05
2.5253e-05
2.98131e-05
2.85658e-05
2.88935e-05
3.24141e-05
3.2245e-05
3.2481e-05
3.23716e-05
2.98035e-05
2.95861e-05
3.08399e-05
2.38257e-05
3.12068e-05
3.05556e-05
2.98758e-05
2.97045e-05
3.19901e-05
2.80787e-05
3.21431e-05
2.81872e-05
2.08776e-05
3.26335e-05
2.5915e-05
3.13394e-05
2.66542e-05
3.18653e-05
2.42029e-05
3.05391e-05
3.26874e-05
2.83229e-05
2.92137e-05
2.19557e-05
3.12802e-05
3.13625e-05
3.02787e-05
2.27754e-05
3.31404e-05
2.83884e-05
3.02142e-05
3.13805e-05
3.17558e-05
3.10917e-05
2.89121e-05
2.8423e-05
3.24475e-05
2.42547e-05
2.44997e-05
2.36969e-05
2.5277e-05
2.97819e-05
2.25749e-05
3.22079e-05
3.175e-05
3.22478e-05
2.79633e-05
2.79187e-05
2.9192e-05
3.10588e-05
2.92427e-05
2.86029e-05
3.18083e-05
3.12723e-05
2.81634e-05
3.18088e-05
2.99104e-05
2.80176e-05
3.01732e-05
2.6412e-05
3.18841e-05
3.1824e-05
3.25448e-05
3.25223e-05
3.1303e-05
2.62702e-05
3.26656e-05
2.93426e-05
2.92162e-05
2.83513e-05
3.00591e-05
3.21402e-05
2.90554e-05
3.11785e-05
2.74e-05
2.89484e-05
3.01301e-05
2.45324e-05
2.21767e-05
2.85021e-05
2.73285e-05
3.18336e-05
2.64724e-05
2.24154e-05
2.94355e-05
3.145e-05
2.57443e-05
2.66413e-05
2.94045e-05
3.23334e-05
3.1319e-05
2.81972e-05
2.57535e-05
2.91899e-05
3.09328e-05
2.70435e-05
2.88007e-05
2.90084e-05
2.19337e-05
2.68025e-05
2.71583e-05
3.03128e-05
3.10365e-05
2.87636e-05
3.13346e-05
3.04033e-05
2.88651e-05
2.89792e-05
2.38243e-05
2.55229e-05
2.18775e-05
3.11297e-05
2.99567e-05
3.25136e-05
3.39851e-05
3.06373e-05
2.26193e-05
3.12186e-05
2.71167e-05
2.97562e-05
3.00577e-05
3.1384e-05
2.26254e-05
3.2086e-05
2.36016e-05
2.95844e-05
2.90126e-05
2.86233e-05
3.26964e-05
2.76946e-05
3.03816e-05
2.47751e-05
2.83083e-05
2.81528e-05
3.13725e-05
2.61954e-05
2.52197e-05
3.10766e-05
3.10096e-05
3.03129e-05
3.09398e-05
3.18269e-05
2.40354e-05
2.83075e-05
2.79285e-05
2.54965e-05
3.0956e-05
3.21654e-05
3.23687e-05
3.16653e-05
3.27186e-05
2.37593e-05
2.33513e-05
2.41355e-05
3.17856e-05
2.24324e-05
3.14958e-05
3.00506e-05
2.36721e-05
2.70565e-05
3.08246e-05
3.16575e-05
2.60688e-05
2.69238e-05
2.78323e-05
2.98749e-05
3.21846e-05
2.86201e-05
2.4073e-05
2.95101e-05
3.23923e-05
3.11096e-05
3.24731e-05
3.21858e-05
3.35136e-05
3.23419e-05
3.12824e-05
2.43823e-05
2.23136e-05
2.92829e-05
2.60918e-05
3.19024e-05
2.313e-05
3.0253e-05
2.83758e-05
3.2654e-05
2.48299e-05
3.05483e-05
3.09098e-05
2.97658e-05
2.77929e-05
2.36016e-05
3.15373e-05
2.63479e-05
3.20988e-05
2.87805e-05
3.2599e-05
3.24609e-05
2.94843e-05
2.22955e-05
2.32416e-05
2.85583e-05
2.9957e-05
2.62708e-05
3.30376e-05
2.35643e-05
3.1979e-05
3.08568e-05
2.67179e-05
3.05329e-05
3.13696e-05
3.18241e-05
3.23186e-05
3.18208e-05
2.9651e-05
2.98634e-05
2.22495e-05
2.6573e-05
3.25121e-05
2.43995e-05
3.06342e-05
2.85094e-05
2.46606e-05
2.8879e-05
3.05158e-05
2.87963e-05
3.06531e-05
3.12922e-05
2.37839e-05
2.85616e-05
2.93853e-05
2.37698e-05
2.65958e-05
2.89691e-05
2.87113e-05
3.06882e-05
2.37354e-05
2.34385e-05
2.88893e-05
2.75723e-05
3.28757e-05
3.29535e-05
3.23426e-05
2.79679e-05
2.83449e-05
2.98698e-05
2.77624e-05
3.09197e-05
2.36592e-05
2.9368e-05
2.83478e-05
3.2481e-05
3.08576e-05
2.82068e-05
2.9345e-05
3.18736e-05
2.33815e-05
2.96422e-05
3.23576e-05
2.7765e-05
1.97125e-05
2.87477e-05
2.3814e-05
2.9591e-05
2.1656e-05
3.16442e-05
3.29799e-05
3.17455e-05
2.96293e-05
2.36715e-05
2.35249e-05
3.14635e-05
3.1834e-05
3.15448e-05
2.96873e-05
2.83549e-05
3.10185e-05
3.19525e-05
3.13438e-05
2.21602e-05
2.75972e-05
3.08805e-05
3.05103e-05
2.7153e-05
2.98882e-05
2.21859e-05
3.20812e-05
3.16673e-05
2.9323e-05
2.98701e-05
3.04428e-05
2.89895e-05
3.26522e-05
3.08058e-05
2.42712e-05
2.86316e-05
3.11855e-05
2.84424e-05
2.89159e-05
3.02562e-05
2.17084e-05
2.45047e-05
3.20856e-05
3.23057e-05
3.16732e-05
3.25069e-05
3.02414e-05
3.18068e-05
2.9681e-05
2.96148e-05
3.05655e-05
3.18152e-05
2.66223e-05
2.8319e-05
2.77361e-05
2.91433e-05
3.14634e-05
2.13405e-05
2.95205e-05
2.2503e-05
3.17155e-05
2.25865e-05
2.24172e-05
2.88181e-05
2.17317e-05
2.88698e-05
2.98848e-05
3.16626e-05
3.19659e-05
2.66836e-05
2.65236e-05
3.277e-05
2.62322e-05
2.40324e-05
2.83629e-05
2.56483e-05
3.22188e-05
3.04751e-05
2.95723e-05
2.3608e-05
3.10211e-05
3.11551e-05
3.21874e-05
2.28835e-05
2.56842e-05
2.96549e-05
3.02896e-05
3.283e-05
2.43926e-05
2.3358e-05
3.05437e-05
2.91261e-05
3.24496e-05
2.96125e-05
2.14806e-05
3.01977e-05
3.12273e-05
2.31459e-05
2.17017e-05
3.19092e-05
2.47393e-05
2.47092e-05
3.20083e-05
3.22728e-05
3.14432e-05
3.32038e-05
2.92573e-05
2.74573e-05
3.20555e-05
2.58307e-05
3.21872e-05
2.66011e-05
2.9857e-05
3.14843e-05
2.87681e-05
2.30534e-05
3.16109e-05
3.18123e-05
2.74295e-05
2.89037e-05
2.91494e-05
2.56953e-05
2.75917e-05
2.95257e-05
2.90918e-05
3.16703e-05
2.71973e-05
3.06077e-05
2.30151e-05
3.10599e-05
3.25337e-05
2.1981e-05
3.08031e-05
2.97299e-05
2.05122e-05
2.30244e-05
2.96252e-05
2.91709e-05
3.13915e-05
2.73604e-05
2.41841e-05
3.13537e-05
3.20999e-05
3.15609e-05
3.02733e-05
3.24496e-05
2.32019e-05
3.20418e-05
2.91534e-05
2.38048e-05
2.32816e-05
1.95327e-05
2.41169e-05
3.04765e-05
2.76177e-05
3.00996e-05
2.94437e-05
2.541e-05
2.63733e-05
2.18569e-05
2.16083e-05
3.26142e-05
3.24028e-05
2.44712e-05
3.19461e-05
3.15706e-05
2.39618e-05
2.87868e-05
2.90708e-05
2.54414e-05
2.73718e-05
3.24001e-05
2.52421e-05
2.14305e-05
3.22999e-05
3.20334e-05
2.63776e-05
3.20178e-05
2.6696e-05
2.50947e-05
2.39451e-05
2.848e-05
2.28629e-05
2.37047e-05
2.98819e-05
3.06067e-05
2.83312e-05
3.1119e-05
3.20873e-05
2.8754e-05
3.138e-05
1.65245e-05
2.85312e-05
2.34469e-05
2.92774e-05
3.13448e-05
2.89203e-05
2.63038e-05
2.88015e-05
2.44447e-05
3.04363e-05
2.88441e-05
2.65602e-05
2.32491e-05
2.13198e-05
2.08755e-05
2.73725e-05
2.34916e-05
2.83165e-05
2.39147e-05
2.74874e-05
3.18805e-05
2.968e-05
2.7511e-05
2.95275e-05
3.04845e-05
2.87803e-05
3.11977e-05
2.20391e-05
2.94646e-05
3.20989e-05
3.23982e-05
2.82799e-05
3.32424e-05
2.53159e-05
3.02111e-05
2.86417e-05
2.27152e-05
3.11866e-05
3.22985e-05
3.05794e-05
3.0791e-05
3.11101e-05
2.96555e-05
2.09648e-05
2.1937e-05
2.83625e-05
3.2648e-05
2.90485e-05
3.18799e-05
2.66907e-05
2.77146e-05
2.45657e-05
2.27671e-05
2.29215e-05
2.22917e-05
3.05474e-05
2.99042e-05
3.19797e-05
2.79605e-05
2.71212e-05
3.29857e-05
2.30425e-05
2.93977e-05
3.21776e-05
3.14938e-05
2.70741e-05
2.83871e-05
3.11356e-05
3.17627e-05
3.16143e-05
2.42578e-05
2.96054e-05
3.1348e-05
3.00126e-05
2.92773e-05
3.21383e-05
3.06531e-05
3.21792e-05
3.02808e-05
2.5918e-05
3.00471e-05
3.15343e-05
3.05529e-05
2.88454e-05
2.31786e-05
3.20195e-05
3.17225e-05
3.10833e-05
3.17003e-05
2.21853e-05
2.01145e-05
2.8404e-05
3.07991e-05
2.71581e-05
3.04318e-05
3.13219e-05
3.16552e-05
3.17285e-05
2.6988e-05
3.0832e-05
2.90104e-05
3.1329e-05
2.34544e-05
2.33964e-05
2.80716e-05
3.19211e-05
2.42618e-05
3.13906e-05
2.35387e-05
2.79913e-05
2.91329e-05
3.22301e-05
2.82252e-05
3.21111e-05
3.18462e-05
3.09018e-05
2.96592e-05
3.08508e-05
2.92232e-05
2.68456e-05
2.12257e-05
3.2791e-05
1.93138e-05
2.21555e-05
2.47666e-05
2.19138e-05
2.20542e-05
2.8072e-05
2.97198e-05
2.37167e-05
2.66422e-05
2.01372e-05
2.40745e-05
2.73851e-05
3.19117e-05
2.23504e-05
2.26227e-05
3.12045e-05
2.24153e-05
2.7949e-05
3.02249e-05
3.00736e-05
2.86575e-05
2.35117e-05
2.18527e-05
2.67741e-05
3.26679e-05
2.5093e-05
2.26529e-05
2.96953e-05
2.63953e-05
2.96411e-05
2.90781e-05
2.36845e-05
3.13832e-05
2.14667e-05
2.25006e-05
2.74611e-05
3.14116e-05
2.67605e-05
2.76792e-05
2.79287e-05
2.96381e-05
2.10202e-05
2.46273e-05
2.81231e-05
3.19882e-05
3.09171e-05
2.25276e-05
2.02896e-05
2.7544e-05
3.28993e-05
2.88488e-05
2.90823e-05
2.62647e-05
2.87097e-05
2.92423e-05
2.33268e-05
3.21995e-05
2.63797e-05
2.29643e-05
2.04517e-05
3.09886e-05
2.91698e-05
3.20926e-05
2.94908e-05
3.15456e-05
2.32925e-05
2.75879e-05
2.13282e-05
1.98921e-05
3.07401e-05
2.39222e-05
2.78196e-05
2.93778e-05
2.98257e-05
2.28541e-05
3.21834e-05
3.13291e-05
3.25413e-05
2.99837e-05
1.88191e-05
2.89796e-05
2.14857e-05
3.18674e-05
2.34083e-05
3.18885e-05
2.03087e-05
3.01726e-05
2.99084e-05
2.61388e-05
2.67669e-05
2.11082e-05
2.58551e-05
2.90941e-05
3.08607e-05
3.0362e-05
3.21578e-05
3.1052e-05
2.36483e-05
3.22727e-05
2.7863e-05
2.97376e-05
3.03853e-05
3.16515e-05
3.10532e-05
2.90923e-05
3.21999e-05
2.79777e-05
2.65649e-05
2.63558e-05
2.98801e-05
3.11794e-05
2.60709e-05
2.40492e-05
3.15671e-05
2.97408e-05
2.87443e-05
3.25034e-05
3.00016e-05
2.96787e-05
2.99639e-05
3.14046e-05
3.12281e-05
2.91248e-05
2.81654e-05
3.14574e-05
3.05824e-05
2.5271e-05
2.91622e-05
2.54904e-05
3.20526e-05
2.98699e-05
3.21393e-05
2.33415e-05
2.32136e-05
2.93218e-05
3.088e-05
3.05528e-05
3.1968e-05
3.14656e-05
2.88616e-05
3.06513e-05
2.39735e-05
2.87004e-05
2.89417e-05
3.19607e-05
3.14962e-05
3.21106e-05
2.87336e-05
3.23973e-05
2.49549e-05
3.19539e-05
2.57577e-05
2.84986e-05
2.72227e-05
2.95098e-05
2.86852e-05
3.08808e-05
2.24716e-05
3.16655e-05
3.09798e-05
2.79992e-05
2.3405e-05
3.18859e-05
3.04575e-05
3.13068e-05
2.87071e-05
2.91966e-05
3.10112e-05
2.29061e-05
3.20412e-05
2.81536e-05
2.93814e-05
2.52608e-05
2.60672e-05
2.56931e-05
2.23903e-05
2.68838e-05
3.28725e-05
2.94018e-05
2.13367e-05
2.88975e-05
2.25099e-05
2.95425e-05
2.99522e-05
2.12827e-05
2.23354e-05
2.60573e-05
2.92694e-05
3.09722e-05
2.6925e-05
3.10438e-05
2.82647e-05
2.60279e-05
2.64917e-05
3.21288e-05
3.15805e-05
3.16565e-05
3.09832e-05
3.01556e-05
2.31182e-05
2.4148e-05
3.24368e-05
2.78661e-05
2.931e-05
3.08069e-05
3.25986e-05
2.95399e-05
3.03632e-05
2.16035e-05
3.11181e-05
3.17618e-05
2.67436e-05
3.19451e-05
3.15257e-05
2.98472e-05
2.7198e-05
3.04932e-05
2.71597e-05
2.09505e-05
2.95538e-05
2.41641e-05
2.2465e-05
2.92643e-05
2.9099e-05
3.05e-05
3.06557e-05
2.97788e-05
3.2285e-05
1.99205e-05
2.6711e-05
3.19278e-05
3.19122e-05
2.13997e-05
2.94735e-05
2.44992e-05
2.69989e-05
3.2275e-05
2.58555e-05
3.01719e-05
3.25669e-05
3.06573e-05
2.1348e-05
3.0873e-05
2.33221e-05
3.1897e-05
3.08219e-05
3.03543e-05
3.21846e-05
2.98464e-05
3.17376e-05
2.29936e-05
3.13152e-05
3.1464e-05
2.43535e-05
3.03234e-05
2.90294e-05
2.70145e-05
3.12073e-05
2.74678e-05
3.15903e-05
3.22287e-05
3.26205e-05
2.88601e-05
3.12876e-05
2.91822e-05
3.07998e-05
2.52997e-05
2.68215e-05
2.26445e-05
2.20482e-05
2.97959e-05
3.05818e-05
2.90734e-05
3.22369e-05
2.80687e-05
3.23049e-05
2.17616e-05
3.23419e-05
3.25381e-05
3.0532e-05
3.25006e-05
2.47745e-05
2.13119e-05
2.85758e-05
2.26443e-05
3.20033e-05
2.91585e-05
2.14902e-05
2.78047e-05
3.2721e-05
2.96727e-05
2.26597e-05
2.52794e-05
2.13871e-05
3.29098e-05
2.23716e-05
3.12561e-05
2.67955e-05
2.35157e-05
3.16356e-05
3.182e-05
3.18597e-05
3.09579e-05
2.26699e-05
2.9787e-05
3.18477e-05
2.42631e-05
3.20835e-05
2.92327e-05
3.22552e-05
2.10933e-05
3.10691e-05
2.66661e-05
2.9879e-05
2.6526e-05
2.84973e-05
2.72062e-05
2.61901e-05
2.75262e-05
2.78746e-05
3.04695e-05
2.85657e-05
3.25134e-05
2.4161e-05
2.88099e-05
2.89713e-05
3.09377e-05
3.1819e-05
2.3157e-05
3.15612e-05
2.3868e-05
2.88776e-05
3.1826e-05
3.15398e-05
2.75723e-05
3.00666e-05
3.03124e-05
2.67291e-05
2.91584e-05
2.79206e-05
2.25555e-05
2.27133e-05
3.0195e-05
3.11936e-05
2.86936e-05
2.72701e-05
3.12894e-05
2.35415e-05
2.98644e-05
2.38257e-05
3.07004e-05
3.23231e-05
2.9245e-05
2.29846e-05
3.12294e-05
2.21559e-05
3.00029e-05
3.18334e-05
2.14191e-05
3.28103e-05
2.40854e-05
2.68775e-05
2.74644e-05
2.30953e-05
2.71263e-05
2.74619e-05
2.12156e-05
3.12472e-05
3.16508e-05
1.95623e-05
2.66877e-05
3.06052e-05
2.87543e-05
2.99805e-05
3.25842e-05
3.11992e-05
2.81678e-05
2.55329e-05
2.16616e-05
2.08616e-05
2.49124e-05
3.24355e-05
3.1403e-05
3.05302e-05
3.08539e-05
2.32587e-05
2.26692e-05
2.8636e-05
3.10605e-05
2.14754e-05
3.06766e-05
2.92864e-05
2.77598e-05
3.06516e-05
2.71904e-05
3.08967e-05
2.61702e-05
2.83477e-05
3.18895e-05
1.91158e-05
3.00671e-05
3.11283e-05
3.15617e-05
3.02718e-05
3.15137e-05
2.92069e-05
2.30403e-05
3.24235e-05
3.33756e-05
2.9436e-05
2.89596e-05
2.69527e-05
2.87833e-05
3.03061e-05
3.12035e-05
2.91874e-05
2.83444e-05
2.81245e-05
2.17704e-05
2.7064e-05
3.23182e-05
3.01588e-05
3.34742e-05
2.90696e-05
2.75357e-05
3.20583e-05
2.30677e-05
3.08007e-05
2.29219e-05
3.18392e-05
3.02696e-05
2.72299e-05
3.29493e-05
2.67824e-05
2.85769e-05
3.20301e-05
2.77314e-05
3.20258e-05
3.0711e-05
3.07476e-05
2.2581e-05
2.90857e-05
2.88754e-05
2.46754e-05
3.14171e-05
2.7896e-05
2.78257e-05
3.2099e-05
2.33321e-05
3.21131e-05
2.89728e-05
3.16643e-05
2.62851e-05
2.95588e-05
2.26771e-05
2.34988e-05
3.24709e-05
2.35028e-05
2.88369e-05
3.0965e-05
2.2177e-05
2.81325e-05
3.13098e-05
2.65911e-05
2.37236e-05
2.56909e-05
2.78047e-05
2.74083e-05
3.08602e-05
2.77164e-05
3.12793e-05
2.93449e-05
3.13962e-05
2.08651e-05
2.47494e-05
3.21418e-05
2.83387e-05
2.1898e-05
2.36366e-05
2.87208e-05
2.36321e-05
2.28872e-05
2.90515e-05
2.85698e-05
3.2926e-05
2.76129e-05
3.15765e-05
3.13608e-05
3.08313e-05
3.16604e-05
3.17127e-05
2.74558e-05
2.6749e-05
3.15071e-05
2.82776e-05
2.75618e-05
3.15616e-05
2.89041e-05
2.17428e-05
2.26143e-05
2.79401e-05
2.45854e-05
3.02016e-05
3.11705e-05
2.81826e-05
3.1591e-05
3.14095e-05
3.08391e-05
3.32775e-05
2.77899e-05
2.28739e-05
2.76321e-05
2.76268e-05
3.10878e-05
2.80133e-05
3.03328e-05
3.1708e-05
2.78893e-05
2.66813e-05
2.93713e-05
3.21739e-05
3.06129e-05
3.33295e-05
3.06006e-05
2.73794e-05
2.80104e-05
2.47636e-05
2.64908e-05
3.22403e-05
2.50933e-05
3.25568e-05
2.74799e-05
3.1462e-05
2.25309e-05
3.05007e-05
2.92302e-05
3.11093e-05
2.85981e-05
3.02416e-05
2.87962e-05
3.15869e-05
2.20377e-05
2.43556e-05
2.91522e-05
2.7121e-05
2.95308e-05
2.90003e-05
2.92923e-05
3.17866e-05
2.90747e-05
2.142e-05
2.56765e-05
2.27907e-05
2.94264e-05
2.87345e-05
2.33607e-05
3.32188e-05
2.91407e-05
2.83532e-05
3.11098e-05
2.49876e-05
2.35795e-05
3.25906e-05
2.3617e-05
2.23045e-05
2.8121e-05
2.74526e-05
2.35474e-05
2.59935e-05
3.22023e-05
3.16754e-05
2.72012e-05
2.9501e-05
3.12495e-05
2.8841e-05
3.07682e-05
2.18117e-05
3.18447e-05
1.6148e-05
3.12063e-05
2.32358e-05
2.24774e-05
3.12642e-05
2.24773e-05
2.86518e-05
2.96954e-05
3.13364e-05
2.67986e-05
3.07444e-05
2.79257e-05
2.88241e-05
2.75126e-05
3.06722e-05
2.96399e-05
3.16325e-05
2.93279e-05
2.34731e-05
3.07075e-05
2.90034e-05
2.86691e-05
2.83893e-05
2.4655e-05
2.65919e-05
2.19885e-05
2.27918e-05
2.91273e-05
2.79075e-05
2.41369e-05
2.6855e-05
3.10618e-05
3.22523e-05
3.18091e-05
1.61884e-05
2.15716e-05
3.18156e-05
2.23385e-05
3.03891e-05
2.18013e-05
3.18382e-05
3.0993e-05
3.12812e-05
2.32211e-05
2.81432e-05
3.21091e-05
3.19486e-05
2.9637e-05
3.2001e-05
2.87852e-05
2.93368e-05
2.87536e-05
2.28088e-05
2.91424e-05
2.61246e-05
2.89066e-05
2.85367e-05
2.43251e-05
2.84092e-05
3.19914e-05
2.54365e-05
2.59899e-05
2.27254e-05
3.13432e-05
3.10072e-05
2.09765e-05
2.85303e-05
2.90397e-05
2.98996e-05
2.30065e-05
2.91298e-05
2.87024e-05
3.28889e-05
2.25789e-05
2.83978e-05
2.84719e-05
2.12513e-05
3.16714e-05
2.38789e-05
2.37488e-05
2.94875e-05
3.2315e-05
2.19516e-05
3.14023e-05
3.00893e-05
2.91734e-05
2.14817e-05
3.20409e-05
3.23063e-05
2.16164e-05
2.92746e-05
2.08786e-05
2.40726e-05
3.2028e-05
2.72187e-05
2.93923e-05
3.09095e-05
3.26206e-05
2.79888e-05
2.68185e-05
2.82795e-05
2.79671e-05
2.92127e-05
2.68048e-05
3.19347e-05
2.34135e-05
2.73236e-05
2.88266e-05
2.74612e-05
3.11316e-05
2.84055e-05
3.04931e-05
3.04582e-05
2.93314e-05
3.20697e-05
3.04982e-05
2.74556e-05
2.56598e-05
3.08476e-05
2.81585e-05
2.73822e-05
3.02188e-05
3.23468e-05
3.0667e-05
3.07423e-05
2.70143e-05
3.05795e-05
2.5829e-05
2.2655e-05
2.86993e-05
2.96329e-05
2.22719e-05
3.00155e-05
2.84199e-05
1.97225e-05
2.27486e-05
3.05595e-05
2.27232e-05
2.78274e-05
3.07979e-05
2.97381e-05
2.25614e-05
2.94931e-05
3.28812e-05
2.35944e-05
2.27905e-05
2.34816e-05
3.17202e-05
2.89409e-05
2.82088e-05
3.13665e-05
2.26142e-05
3.05133e-05
2.93226e-05
3.22835e-05
3.21477e-05
1.73467e-05
2.92793e-05
3.00439e-05
3.042e-05
2.89551e-05
2.86899e-05
2.46402e-05
2.94379e-05
3.24785e-05
2.60375e-05
2.13355e-05
2.70734e-05
3.15909e-05
3.03795e-05
2.20125e-05
2.79035e-05
3.12475e-05
3.19717e-05
2.86649e-05
2.8286e-05
2.08314e-05
2.30053e-05
2.28941e-05
2.90478e-05
2.79716e-05
2.95692e-05
3.27038e-05
3.15552e-05
2.54497e-05
3.15806e-05
3.16921e-05
3.06468e-05
2.67441e-05
3.16347e-05
2.80017e-05
2.39947e-05
2.66571e-05
2.86479e-05
2.9888e-05
2.64852e-05
3.00246e-05
2.67626e-05
3.15121e-05
2.36471e-05
2.11828e-05
2.77871e-05
3.19947e-05
3.05222e-05
2.65268e-05
2.72505e-05
3.08003e-05
3.17181e-05
2.68254e-05
2.76412e-05
3.14264e-05
3.24235e-05
3.06409e-05
3.23036e-05
3.0891e-05
3.10553e-05
2.16234e-05
2.77319e-05
2.28039e-05
3.02631e-05
3.16274e-05
2.65855e-05
2.25984e-05
3.20664e-05
2.24885e-05
2.59015e-05
2.37803e-05
2.83074e-05
2.21024e-05
3.00935e-05
2.88064e-05
2.84569e-05
2.86085e-05
2.46291e-05
3.1933e-05
2.33231e-05
3.03125e-05
2.87608e-05
2.81653e-05
2.24538e-05
3.10738e-05
3.00469e-05
2.4171e-05
2.50458e-05
2.78259e-05
2.73447e-05
2.83397e-05
2.22024e-05
2.96158e-05
2.71292e-05
2.91988e-05
2.58734e-05
2.62249e-05
2.60105e-05
2.27482e-05
3.09135e-05
2.87371e-05
8.77564e-06
2.37062e-05
2.94915e-05
3.16919e-05
3.09933e-05
2.44069e-05
2.4297e-05
3.18608e-05
2.31033e-05
3.1268e-05
3.22104e-05
2.91114e-05
2.36706e-05
3.18414e-05
2.23588e-05
2.09817e-05
2.08474e-05
3.01927e-05
2.84159e-05
2.62419e-05
3.23345e-05
3.05949e-05
2.93965e-05
2.39003e-05
2.01367e-05
3.26054e-05
2.91791e-05
3.26802e-05
3.17865e-05
2.25807e-05
2.82453e-05
2.74081e-05
2.79654e-05
2.86432e-05
2.6566e-05
2.76739e-05
3.34999e-05
2.91707e-05
2.72228e-05
2.33757e-05
2.96365e-05
2.83659e-05
3.01439e-05
2.71452e-05
2.23373e-05
2.33663e-05
2.97034e-05
3.03604e-05
2.67786e-05
3.08335e-05
2.59007e-05