/*--------------------------------*- C++ -*----------------------------------*\
| =========                 |                                                 |
| \\      /  F ield         | OpenFOAM: The Open Source CFD Toolbox           |
|  \\    /   O peration     | Version:  2212                                  |
|   \\  /    A nd           | Website:  www.openfoam.com                      |
|    \\/     M anipulation  |                                                 |
\*---------------------------------------------------------------------------*/
FoamFile
{
    version     2.0;
    format      ascii;
    arch        "LSB;label=32;scalar=64";
    class       volScalarField;
    location    "0.058";
    object      p;
}
// * * * * * * * * * * * * * * * * * * * * * * * * * * * * * * * * * * * * * //

dimensions      [0 2 -2 0 0 0 0];

internalField   nonuniform List<scalar> 
31639
(
0.0111058
0.00772122
0.0127041
0.00564466
0.00781024
0.0108703
0.0122052
0.0116137
0.00824728
0.00704018
0.0120819
0.00786248
0.00817356
0.0106336
0.00925527
0.0129948
0.0150736
0.0154018
0.00252102
0.0118242
0.00861602
0.00664934
0.0090445
0.00558943
0.00970799
0.0114852
0.0111737
0.0353158
0.0116859
0.0116589
0.00625024
0.0166434
0.0083125
0.00449145
0.0202563
0.0115953
0.00666392
0.0121242
0.0121041
0.00989968
0.00790416
0.0113369
0.00885664
0.0122935
0.012675
0.00527795
0.0079449
0.00626024
0.0136176
0.00570413
0.00526026
0.00420834
0.0206424
0.0125823
0.00411501
0.0153788
0.00675034
0.0112568
0.00773008
0.00538893
0.00590989
0.0113296
0.00941403
0.0115934
0.0204561
0.00333299
0.00204209
0.00647823
0.00804376
0.00501756
0.00712233
0.0151925
0.0069626
0.00300615
0.0207333
0.0164717
0.00714833
0.00661649
0.00766273
0.00728724
0.0110732
0.0106374
0.0104755
0.00581814
0.0103591
0.00958632
0.0088581
0.00626452
0.00205897
0.0083293
0.00474101
0.0151242
0.00552468
0.00736804
0.00353167
0.0111871
0.00600748
0.0042507
0.00807753
0.0107168
0.0190443
0.0190933
0.00975113
0.00740826
0.004107
0.00512074
0.0109127
0.00541345
0.00629841
0.00980495
0.0121636
0.0105761
0.0113283
0.00666437
0.00295846
0.0118203
0.0203796
0.0125489
0.0188098
0.00594423
0.0167991
0.00513469
0.00267092
0.00567029
0.0108265
0.0106503
0.00763794
0.00576305
0.00703081
0.00851605
0.0201092
0.000884976
0.012864
0.00301723
0.00362372
0.00644553
0.00674357
0.00736666
0.00529595
0.005906
0.0058477
0.00870912
0.00950036
0.00543941
0.00792081
0.0103501
0.0193013
0.00674567
0.00999652
0.0206289
0.00603967
0.0138843
0.00431806
0.00389322
0.00505208
0.00384529
0.00284195
0.00708355
0.013498
0.00640732
0.00351808
0.0152421
0.00685457
0.0113051
0.0161388
0.0162106
0.0126345
0.014119
0.00444162
0.00309854
0.0146443
0.0106252
0.0143959
0.00826224
0.0102764
0.00688971
0.00930942
0.0167433
0.00646754
0.00976664
0.00807402
0.0133406
0.0113773
0.0118318
0.0118767
0.0116273
0.0138822
0.00977766
0.0106388
0.0132033
0.0134385
0.00699381
0.0136681
0.00414309
0.00473929
0.00491526
0.00473618
0.00752701
0.0048371
0.0119946
0.0100497
0.0152418
0.0133778
0.0142533
0.00689208
0.00571417
0.00238701
0.00404038
0.0170281
0.00463088
0.00463847
0.00987229
0.0191798
0.0102696
0.0123653
0.0103651
0.0103659
0.0103383
0.0145277
0.00774901
0.00801669
0.00989434
0.0104661
0.0145257
0.0126348
0.00719266
0.0130161
0.0127622
0.00903138
0.0165433
0.00435329
0.0120059
0.0152493
0.0132071
0.0135285
0.00227857
0.00209436
0.0137894
0.0113771
0.004105
0.0058154
0.012423
0.0144243
0.0136045
0.00600325
0.0155817
0.00458477
0.0160819
0.0131692
0.00231281
0.000665517
0.00527146
0.0134935
0.0154721
0.00751219
0.00802764
0.0112778
0.0034455
0.0111303
0.0128476
0.00537777
0.00431663
0.00752917
0.0106354
0.00758653
0.0103145
0.0016935
0.0195586
0.0123026
0.0109674
0.0250607
0.0051405
0.0111884
0.0138652
0.00665841
0.0130466
0.00475638
0.0145654
0.00647669
0.00528904
0.0163138
0.0167497
0.0166274
0.0221083
0.0119324
0.0120065
0.0145751
0.0138947
0.00263122
0.0134766
0.014989
0.0012001
0.00431037
0.00430938
0.0126451
0.00372462
0.0151509
0.00201387
0.00591806
0.00686819
0.00637878
0.0145522
0.00460125
0.00411548
0.0092084
0.00370431
0.0105276
0.00242951
0.00888032
0.014588
0.0061536
0.0244199
0.0195279
0.00865892
0.00794304
0.0112012
0.00214659
0.0168551
0.013082
0.0128812
0.0123549
0.00515489
0.0188634
0.0037917
0.0101657
0.0137539
0.0123631
0.0139126
0.00448241
0.00518081
0.00537201
0.00563447
0.0148652
0.00422417
0.0152756
0.0203061
0.0207962
0.00644239
0.0140895
0.0159638
0.00359717
0.00175846
0.0155223
0.00323816
0.00463742
0.014407
0.00388848
0.0127324
0.0125796
0.018926
0.00713407
0.014531
0.0070787
0.0134312
0.00409048
0.00534561
0.00458684
0.00925408
0.0093876
0.0140265
0.0153073
0.00938021
0.024329
0.00260999
0.0065028
0.00585202
0.00313554
0.00933206
0.00998627
0.0139227
0.00905691
0.0170143
0.0106287
0.00500614
0.00336875
0.00560868
0.0195839
0.0163806
0.0136401
0.0171788
0.0129492
0.00421605
0.00634587
0.0041934
0.00388243
0.0036846
0.00453397
0.00781349
0.000342108
0.0156257
0.00228185
0.0172968
0.00459209
0.0144721
0.00398382
0.0148433
0.0157677
0.0118491
0.0056582
0.0229314
0.015418
0.0121436
0.011567
0.00383867
0.0136634
0.0020722
0.00600455
0.00606838
0.00630693
0.0118731
0.00518917
0.00612022
0.0136166
0.0252021
0.0124395
0.013665
0.0100212
0.0106917
0.00957235
0.0079525
0.00767832
0.0188763
0.00913563
0.000802729
0.0135942
0.024823
0.00878961
0.0184337
0.0106273
0.0127294
0.00554914
0.00460597
0.0145219
0.00523669
0.0115491
0.0115673
0.0140939
0.0034313
0.00423274
0.0150937
0.00638208
0.00223496
0.00270135
0.0103976
0.00360019
0.00647833
0.00683225
0.0158679
0.0155137
0.016779
0.0157696
0.0137333
0.00667751
0.0141026
0.00633845
0.0149848
0.0168272
0.00520264
0.0137696
0.00576842
0.0113189
0.0161663
0.0107053
0.00289944
0.0132665
0.0371385
0.00285939
0.00859117
0.00585079
0.0129057
0.00167654
0.00443332
0.00531279
0.00442197
0.0140546
0.00113088
0.00888173
0.0181476
0.00801082
0.00928239
0.0053611
0.0198325
0.00344766
0.00731524
0.0188937
0.0242911
0.00879259
0.0126178
0.0102481
0.00684803
0.00528621
0.00401225
0.0166538
0.00188839
0.0109137
0.0105086
0.00995311
0.00299071
0.00453289
0.015953
0.0180055
0.00224564
0.0026217
0.00295302
0.00172364
0.0212117
0.00606871
0.00251014
0.0169396
0.0189189
0.0168713
0.00353304
0.0152723
0.0141418
0.0161031
0.00181283
0.0188979
0.0189313
-0.000362124
0.0164125
0.0158602
0.0165143
0.010484
0.0175883
0.000730993
0.00285741
0.016096
0.00235192
0.00287166
0.00488171
0.0118946
0.0080504
0.0148118
0.000983806
0.00522645
0.00846148
0.0177282
0.00113988
0.0141093
0.00216088
0.0245931
0.0248401
0.00583781
0.0355984
0.00601639
0.00598108
0.00973976
0.0100483
0.00696764
0.00951942
0.0255482
0.00698142
0.0137863
0.000555896
0.00624505
0.00969302
0.0054501
0.0157652
0.00122197
0.00376079
0.00949862
0.00338158
0.00857078
0.00873685
0.00472282
0.0199381
0.00345798
0.0024071
0.00033276
0.0110696
0.0181661
0.00271959
0.000539806
0.00335212
0.00369364
0.00290304
0.0168433
-6.37125e-05
0.00110605
0.000749216
0.0152023
0.00188136
0.0158796
0.0162107
0.0169068
0.00493852
3.5056e-05
0.000173271
0.00257013
0.000722513
0.0103884
0.000892391
0.0103865
0.0164443
0.00138337
0.00602656
0.00809107
0.0198432
0.0183065
0.0143525
0.00682709
0.00329089
0.0190366
0.0163801
0.00153139
0.00168368
0.0070445
0.0119759
0.00490408
0.0010087
7.03812e-05
0.000818205
0.0157862
0.0132412
0.00604877
0.0365564
0.0129875
0.0101566
0.00698649
0.0109689
0.0140631
0.0139282
0.00973669
0.00620944
0.00777263
0.00804507
0.0131913
0.00305092
0.00946678
0.00110987
0.0103098
0.0241063
0.0167053
0.0154771
0.0115228
0.00906256
0.0218821
0.0102045
0.0122297
0.0054258
0.0194611
0.0183314
0.00265607
0.0100879
0.0114135
0.000188886
0.0222957
0.00614495
0.00103612
0.00299298
0.00169698
0.0198195
0.0180913
0.0184848
0.00278969
9.09308e-05
0.0156467
0.0105075
0.0165039
0.0169823
0.0170829
0.00110955
-2.58365e-05
0.0161222
0.0140928
0.0145758
0.0170497
0.000946859
0.00607528
0.0250427
0.00352855
0.00201818
0.0175194
0.00993549
0.00415766
0.0159644
0.0157146
0.01284
0.00737349
0.00493322
0.0116285
0.0067197
0.000311852
0.000630796
0.00129101
0.00493733
0.00185582
0.0198195
0.00702168
0.000528836
0.000619483
0.0151928
0.00534638
0.000642714
0.0368507
0.00497774
0.0059236
0.00799495
0.00901952
0.00763109
0.00977754
0.00921173
0.00620058
0.00712791
0.0102655
0.00656603
0.00612154
0.00693846
0.00916182
0.0174794
0.00990474
0.00936169
0.0153391
0.0198372
0.0168433
0.00467108
0.00921845
0.00263712
0.0104036
0.0206866
0.000779811
0.00190546
0.00174896
0.00529517
0.00614516
0.0152368
0.0146253
0.00432223
0.00176417
0.0118944
0.0197551
0.000468675
0.0162232
0.00646363
0.0150149
0.0137367
0.0145614
0.0186731
0.0173446
0.0224628
0.0159407
0.0133127
0.0165217
0.0149464
0.0154597
0.00555945
0.0194807
0.00545732
0.00142739
0.00362857
0.015149
5.3403e-05
0.0124865
0.00295463
0.00410699
0.0125645
0.00751564
0.0188147
0.00348185
0.0131441
0.00424793
0.0216178
0.00623082
0.000502373
0.000890975
0.0176399
0.0117983
0.000799857
0.00192547
0.00109152
0.00372033
0.000510233
0.00024021
0.0148584
0.0143974
0.000137762
0.0144341
0.0127531
0.0154484
0.00844482
0.00833799
0.00674307
0.0108343
0.0113781
0.00526253
0.000847841
0.00995216
0.0136063
0.010075
0.0186067
0.0167598
0.00997183
0.016303
0.00615171
0.0250768
0.00293251
0.0163522
0.00979359
5.81338e-05
0.0111413
0.00285326
0.00598335
0.00245286
0.00244309
0.0125069
0.0177703
0.00433724
0.0156844
0.000757424
0.00072079
0.000803058
0.0206627
0.0208438
0.019807
0.0213215
0.0175495
0.0162132
0.00543847
0.00346222
0.00600244
0.0015857
0.0115863
0.00519095
0.0136451
0.0075439
0.00603982
0.00186691
-0.000122607
0.00441226
0.00235138
0.0184957
0.00801827
0.00432565
0.00416094
0.00769799
0.000726847
0.0130075
0.00420214
0.0162601
0.0031087
0.00209718
0.0106665
0.0106139
0.0166294
0.0196955
0.0172208
0.013106
0.00735158
0.00798683
0.0156389
9.47325e-05
0.00087334
0.0153693
0.0157176
-0.000128618
0.000319167
0.00219059
0.0154849
0.00404502
0.00941058
0.0199158
0.0195106
0.00994842
0.023314
0.00750446
0.00648041
0.00668666
0.00430789
0.00267064
0.0163539
0.00276077
0.00995608
0.0120701
0.0184092
0.00579593
0.00671627
0.00636501
0.0148193
0.015016
0.015032
0.0213564
0.00198084
0.0173508
0.0170669
0.0174343
0.00944665
0.000333638
0.0205446
0.0211426
0.0194661
0.0114825
0.0121721
0.013241
0.0123631
0.0147792
0.0113409
0.000468994
0.0155162
0.00720463
0.00492538
0.0157796
0.00118916
0.000693738
0.00275102
0.00259668
0.0188662
0.00758884
0.00275908
0.00385844
0.00686599
0.0139825
0.00654285
0.00600397
0.0126011
0.00880283
0.000250699
0.0162489
0.0102803
0.0170967
0.00857395
0.00178156
0.0132122
0.0131489
0.000652131
0.00758246
0.00704824
0.000494485
0.000618163
0.0161034
0.018481
0.00743988
0.00966075
0.00110125
0.0171132
0.0213273
0.0178894
0.0123447
0.00575407
0.0168369
0.0126979
0.00666685
0.00932224
0.00516125
0.00525843
0.00830146
0.0158426
0.00284796
0.010379
0.00652975
0.00589482
0.000182757
0.0177456
0.00693257
0.0182938
0.00502876
0.0149888
0.0172822
0.00860375
0.00861536
0.0180454
0.0145949
0.016436
0.00635141
0.00735608
0.0144877
0.0138177
0.0109728
0.0116519
0.0169115
0.017316
0.0227834
0.0133769
0.0151086
0.000941068
0.000600952
0.0154992
0.0141463
0.00727098
0.0168249
0.00239967
0.011806
0.0131762
0.0165715
0.00203502
0.016985
0.0154308
0.0183665
0.0174908
0.0182666
0.0086002
0.01572
0.00696736
0.0121089
0.0117169
0.0111367
0.0190244
0.0176195
0.0170686
0.0144237
0.00780601
0.0101716
0.011228
0.0173109
0.0111019
2.73673e-05
0.0180128
0.0198517
0.00935998
0.00788258
0.00330962
0.00232246
0.00657839
0.0174799
0.00546198
0.00584081
0.0215776
0.00875795
0.00323677
0.00447129
0.000365769
0.00836291
0.00945848
0.0086066
0.0161496
0.000555925
0.0186749
0.0016717
0.0181428
0.0175355
0.0214309
0.00823939
0.00849859
0.00721609
0.0135726
0.0120683
0.0140659
0.0217949
0.0158638
0.0167094
0.0111331
0.0135218
0.00799832
0.0142145
0.0123308
0.00270634
0.00246199
0.00992236
0.000771636
0.00706039
0.0188465
0.019862
0.00358875
0.0182246
0.0118232
0.0191293
0.0105235
0.0107701
0.00143426
0.000791229
0.0139067
0.0125812
0.00605075
0.00797008
0.00753364
0.0116776
0.00806865
0.0157949
0.016912
0.0217049
0.0166912
0.0179976
0.0108975
0.00766435
0.00895425
0.000792377
0.00154024
0.00293448
0.00788459
0.00711948
0.012511
0.00736419
0.0131655
0.0149474
0.0165622
0.00761788
0.00473059
0.0221036
0.0115742
0.0198123
0.0196034
0.00869308
0.0200125
0.00201541
0.0168868
0.00504496
0.00947449
0.00376103
0.00735948
0.00826412
0.0189427
0.0193027
0.000611076
0.0173489
0.0207835
0.0236882
0.00769055
0.0146148
0.0167351
0.0169958
0.00684746
0.00738379
0.0158083
0.0238816
0.0157273
0.00289545
0.013881
0.0233539
0.0135353
0.0132639
0.0129127
0.00643661
0.019595
0.0169342
0.019762
0.00170245
0.0142107
0.00112455
0.0116681
0.0165608
0.00354327
0.0166796
0.00518167
0.0158626
0.0215664
0.00931342
0.000448349
0.0105688
0.0112816
0.00064995
0.00698633
0.00706039
0.0111146
0.00815342
0.0224537
0.0181907
0.00715162
0.00705072
0.017598
0.00989734
0.0167992
0.0218391
0.0170392
0.000563665
0.000557905
0.0180214
0.0156619
0.0109497
0.0122249
0.014004
0.0116026
0.0120662
0.0197331
0.0172881
0.0207712
0.0155997
0.0136492
0.00191147
0.0199734
0.0026356
0.00754966
0.0186578
0.0199781
0.0161381
0.00843827
0.00754869
0.000401276
0.0174867
0.0107877
0.0185463
0.0101733
0.019636
0.0207604
0.0131037
0.0140018
0.00835081
0.00406314
0.0226709
0.0107977
0.013858
0.010785
0.00994719
0.0144505
0.0229342
0.0132807
0.012409
0.0246064
0.00213483
0.0193985
0.011961
0.0238495
0.0123621
0.00993974
0.0192538
0.0197392
0.00352479
0.0073438
0.00408476
0.00505305
0.0170607
0.00902626
0.00980867
0.00038718
0.00783528
0.0285021
0.00805305
0.00842265
0.0116344
0.0119999
0.0113401
0.0179361
0.0184627
0.0133183
0.00713337
0.0182243
0.0102242
0.0188767
0.0168704
0.0170385
0.018793
0.0191992
0.0176085
0.00671616
0.000510139
0.020235
0.00609582
0.0212228
0.0236535
0.0221955
0.00806158
0.0202502
0.0135824
0.00213266
0.00174816
0.0029472
0.0180477
0.0187095
0.0185906
0.0172379
0.0207267
0.00847799
0.0069734
0.0189547
0.0209715
0.00997747
0.0186426
0.0200433
0.0132753
0.00768111
0.0227827
0.0203668
0.0175038
0.0141766
0.018134
0.014869
0.0195203
0.00161195
0.0149002
0.0175435
0.0200163
0.0142453
0.0190646
0.00952914
0.0239763
0.0149394
0.00196389
0.0181595
0.00434065
0.000111771
0.00410218
0.0142944
0.0121687
0.0141462
0.0182055
0.0197632
0.00743611
0.0156007
0.00889403
0.0121139
0.01149
0.0112949
0.00695868
0.0185663
0.01244
0.0129478
0.0184088
0.0129114
0.00641
0.0061549
0.0129593
0.0136314
0.0123929
0.0172798
0.0176979
0.00101008
0.0122326
0.0184294
0.0175442
0.012679
0.0129738
0.0106726
0.0132719
0.0231614
0.00115003
0.00634628
0.0193189
0.00296974
0.00851491
0.00921836
0.00878063
0.0215065
0.0227688
0.0028456
0.0233274
0.0207656
0.0149019
0.0148472
0.0210701
0.0153995
0.0194827
0.0182895
0.00361979
0.00811644
0.0221518
0.000396565
0.000656999
0.0212256
0.019771
0.00348556
0.0210262
0.0154512
0.0134692
0.00878465
0.0199505
0.0194331
0.00704649
0.0184409
0.0170779
0.015043
0.0134492
0.000798331
0.00139822
0.00103039
0.0155065
0.0177924
0.0114597
0.020189
0.0230166
0.0110797
0.00983458
0.00687014
0.0041128
0.0245368
9.49676e-05
0.00281112
0.00880552
0.00105499
0.000225585
0.000415611
0.00941984
0.00689016
0.000828195
0.0304176
0.0192878
0.0145227
0.0225458
0.0125913
0.0242402
0.003951
0.00778775
0.00813854
0.0234261
0.0234073
0.0126661
0.00662233
0.013251
0.0119644
0.0156433
0.0145345
0.0151163
0.0177507
0.00130989
0.0189421
0.0190941
0.0192568
0.0187097
0.0156998
0.0154624
0.011914
0.0109749
0.0201076
0.0174577
0.00560482
0.00437841
0.0118153
0.0169629
0.0224549
0.00545472
0.00634712
0.00655793
0.0168716
0.0213118
0.0224345
0.022313
0.00175218
0.00103307
0.0209722
0.000668218
0.0206679
0.0215002
0.00432937
0.00602775
0.00271082
0.0200528
0.00762317
0.0176182
0.0138155
0.0138717
0.021658
0.0221057
0.00992332
0.0242546
0.024025
0.0163613
0.0150133
3.5456e-05
0.000579594
0.0166848
0.0150901
0.0182066
0.0237285
0.0363027
0.024169
0.0190521
0.0241894
0.0191953
0.00235209
0.0176348
0.0203379
0.00273447
0.0191999
0.00465952
0.000489972
0.018827
0.000639737
0.00870866
0.00946404
0.00937184
0.00862255
0.000400278
0.00184296
0.00591344
0.0229676
0.0214722
0.0155114
0.00920061
0.0116613
0.00735998
0.00922607
0.00684635
0.00895843
0.0087925
0.00790845
0.0164167
0.0140937
0.0188585
0.013947
0.0189153
0.00128804
0.0184817
0.000930736
0.0244375
0.0190713
0.0124962
0.0156985
0.00759441
0.00998496
0.00348074
0.00253397
0.00611927
0.00410553
0.0112641
0.0185209
0.00864376
0.0144852
0.0132195
0.00516876
0.0129929
0.0229157
0.00133663
0.00294607
0.00122358
0.0150914
0.0215429
0.0174219
0.00563314
0.0043943
0.021334
0.00270699
0.021306
0.0201176
0.0368591
0.0213854
0.0211388
0.0241348
0.0226892
0.021682
0.0169591
0.00434485
0.0175404
0.0041579
0.0179633
0.0186133
-2.30429e-05
0.0227607
0.010623
0.00212157
0.0178186
0.0206633
0.0175159
0.0201408
0.0175598
0.00889457
0.0108752
0.0169342
0.0191018
0.0209077
0.0224354
0.000667539
0.00294683
0.0142986
0.018976
0.0178147
0.0157746
0.0166863
0.00122621
0.0157743
0.00849968
0.0088742
0.00868706
0.00758486
0.0100076
0.0121159
0.00050129
0.0193232
0.0201612
0.017016
0.00112749
0.0200413
0.0121702
0.0128029
0.0144342
0.0151044
0.0176157
0.0137443
0.0309746
0.00351329
0.0125659
0.0195617
0.0150713
0.0150572
0.00291315
0.0136677
0.0215203
0.0238963
0.0176654
0.00809474
0.0208302
0.0074005
0.0139179
0.0221814
0.0233758
0.013876
0.0236431
0.0234275
0.0232779
0.0216678
0.0146896
0.0225682
0.0213877
0.0187554
0.00836517
0.0168464
0.00663607
0.0018184
0.0172411
0.00546616
0.0220312
0.0224541
0.0218303
0.0203148
0.0128655
0.0204698
0.0232349
0.00718507
0.00506794
0.00999399
0.0247786
0.0168516
0.0162542
0.00414891
0.00360677
0.0195115
0.00123784
0.0118241
0.0242729
0.0208569
0.017712
0.0183424
0.0109972
0.00973035
0.00253523
0.0188956
0.000272705
0.00688821
0.0211777
0.000888001
0.00262085
0.00410968
0.00535262
0.0031437
0.014874
0.0168152
0.0195402
0.0127983
0.00786703
0.0282405
0.00783317
0.0090306
0.00966324
0.0203915
0.0183641
0.0231414
0.0208145
0.00649088
0.0116007
0.0112393
0.0112414
0.0131124
0.0159648
0.015998
0.0186297
0.0176788
0.0166253
0.0121945
0.00903841
0.00916193
0.00221305
0.0175172
0.0208547
0.00745861
0.00307496
0.0312322
0.0117814
0.0212927
0.0143986
0.0216765
0.0259549
0.0168206
0.00753001
0.00638856
0.0138206
0.0227935
0.0218701
0.00568726
0.0244216
0.000192181
-0.000234586
0.0211361
0.02353
0.0117352
0.00971504
0.019724
0.00500914
0.0219982
0.0238065
0.00958947
0.0194676
0.0202121
0.0300151
0.00543964
0.0228543
0.0133349
0.013929
0.0191646
0.0228968
0.00252076
0.0178448
0.0244528
0.0237942
0.025455
0.00543232
0.0199518
0.0194713
0.00280754
0.0157978
0.0229282
0.0163037
0.00226708
0.0070843
0.0149876
0.00491414
0.016549
0.0069723
0.000586859
0.000767592
0.0100499
0.00288683
0.0216929
0.0126907
0.00553418
0.00967327
0.0225115
0.0225536
0.0199618
0.0209286
0.022194
0.0127974
0.00229441
0.00477628
0.0110699
0.0189419
0.0190073
0.0195352
0.0197471
0.013445
0.0132098
0.0119482
0.016432
0.0145598
0.0146773
0.0158321
0.0239293
0.0172428
0.0190299
0.01621
0.0179776
0.0177658
0.00895773
0.017445
0.0136243
0.00841278
0.0122443
0.0276306
0.0138053
0.0307954
0.0182929
0.0052722
0.00816987
0.0160817
0.02619
0.0147341
0.0138994
0.00623028
0.0183456
0.000553302
0.00154812
0.00029827
0.0226316
0.0223069
0.0229287
0.0118015
0.0247676
0.00440551
0.0234774
0.0238185
0.0229211
0.00235467
0.0261352
0.0231228
0.0017433
0.0244942
0.0139387
0.0146384
0.0136987
0.0191027
0.0207307
0.0170393
0.0178963
0.0189668
0.0117186
0.0112895
0.00290994
0.0238001
0.0187521
0.0214072
0.0164113
0.0208412
0.0232666
0.00864085
0.0224749
0.00229015
0.0167524
0.00795718
0.000892508
0.000141539
0.0100822
0.0209779
0.00790366
0.0191514
0.0195051
0.00657653
0.0205333
0.00762924
0.0245931
0.0195104
0.0242792
0.0182732
0.00990867
0.0192705
0.0201942
0.0223796
0.00514878
0.0198788
0.0198767
0.0208249
0.0223364
0.0159603
0.0211157
0.0170138
0.00227984
0.0202655
0.00507333
0.0150941
0.0159479
0.0109362
0.0174861
0.0264227
0.0133258
0.0122988
0.0130033
0.00900841
0.0169577
0.00628527
0.0112524
0.0207572
0.0098188
0.0196191
0.00587024
0.0209625
0.017489
0.00544416
0.0148199
0.0216842
0.00574324
0.0171916
0.0113065
0.00152388
9.38219e-05
0.00153002
0.0219306
0.0144044
0.0164284
0.0125206
0.012253
0.0219837
0.0238252
0.0230968
0.017489
0.0227397
0.0186191
0.0240563
0.0126635
0.0245025
0.0243109
0.024348
0.0236029
0.0229085
0.0027685
0.0192618
0.0229922
0.0174876
0.0158377
0.0255719
0.0230494
0.0115792
0.0239084
0.00239888
0.0217071
0.0227532
0.0158568
0.0151676
0.0205197
0.0215062
0.0204773
0.00101285
0.0239191
0.0180936
0.006824
0.000338699
0.023675
0.00726709
0.00303366
0.00197635
0.000258679
0.0169959
0.00538059
0.0284623
0.00865607
0.0204368
0.0109145
0.00829411
0.0119356
0.0199796
0.00853814
0.0237223
0.0197371
0.0115809
0.0221504
0.0198315
0.0169989
0.0265356
0.0179522
0.0228187
0.0146466
0.0246019
0.0145843
0.0145088
0.00307962
0.0185414
0.0174559
0.0185002
0.0213306
0.0156071
0.0246694
0.0184714
0.0179621
0.0024921
0.00549082
0.0247596
0.0130222
0.00482152
0.0131001
0.0326474
0.00792143
0.0255817
0.00593523
0.00117036
0.00986185
0.0102337
0.00906366
0.0169367
0.00518706
0.0157942
0.0198382
0.0140944
0.00468321
0.00506594
0.0232136
0.0014245
0.0172847
0.0160693
0.0106405
0.0216531
0.0258337
0.0112207
0.0216221
0.0202594
0.0178847
0.000352704
0.0174763
0.0195371
0.0231191
0.0235891
0.026603
0.0247511
0.0030631
0.00202126
0.0249958
0.00295347
0.0223764
0.0239381
0.0222447
0.00481798
0.0273161
0.0104942
0.0198178
0.023821
0.0214998
0.0221766
0.0212799
0.0202594
0.018536
0.0108861
0.020321
0.0153924
0.00179045
0.0101043
0.0223113
0.0202746
0.0261936
0.0276039
0.00140455
0.0144057
0.00234371
0.00449956
0.0232779
0.00443172
0.00379709
0.0244548
0.00563179
0.00957688
0.0140669
0.023674
0.000246956
0.0230983
0.0198953
0.0109208
0.0227
0.0241694
0.0125277
0.022783
0.0184514
0.0244455
0.0227314
0.0223741
0.0165344
0.0253568
0.0176339
0.00510388
0.00537431
0.0246041
0.0183487
0.0224878
0.0272773
0.0202627
0.0215828
0.0268958
0.00536336
0.0244211
0.0238694
0.0245569
0.0134398
0.0354997
0.00413129
0.00691497
0.0108641
0.0100417
0.0265534
0.00801655
0.0194637
0.0154541
0.016141
0.0150961
0.00546662
0.00986515
0.00642551
0.0231091
0.00105381
0.0246005
0.0250852
0.0253583
0.0119987
0.0210464
0.0313703
0.0195576
0.00174152
0.0225859
0.00753589
0.00945183
0.0258512
0.0121254
0.0255258
0.0259655
0.0174012
0.00272865
0.023077
0.0221158
0.0229293
0.0170469
0.0226783
0.022695
0.0218933
0.0193346
0.0199027
0.0204859
0.0205808
0.0169147
0.015712
0.00157998
0.023554
0.0142658
0.0153242
0.0166908
0.00848044
0.00710899
0.0284398
0.0221698
0.0203058
0.0257872
0.0266726
0.00996251
0.00406555
0.00689002
0.0279506
0.0143825
0.00732472
0.023944
0.00620165
0.0208557
0.0119352
0.00521422
0.00499333
0.0195274
0.0113367
0.0214155
0.000886091
0.0188499
0.00195142
0.0204185
0.0116713
0.0170494
0.0175001
0.0166191
0.0215059
0.0208317
0.0234953
0.0072217
0.0320166
0.0308958
0.0272153
0.0187752
0.0185326
0.0144155
0.0196299
0.0218995
0.023058
0.0262922
6.68939e-05
0.0102275
0.0113042
0.0348263
0.0235811
0.00291604
0.0242822
0.00295011
0.013833
0.0158758
0.00967653
0.00704618
0.0273514
0.0222627
0.0075316
0.0149171
0.0282081
0.00959971
0.00589799
0.000483385
0.0137745
0.00204245
0.0253866
0.00601878
0.0269436
0.0319504
0.00824027
0.022466
0.000298945
0.000321921
0.00779791
0.0259924
0.0259924
0.0247396
0.0219965
0.00162536
0.0169933
0.0365479
0.0162434
0.0218983
0.0208618
0.0216755
0.0219456
0.0174097
0.0240295
0.0213728
0.00747204
0.0018258
0.00207308
0.00209124
0.0204827
0.022898
0.012808
0.0228522
0.00536317
0.00556538
0.00632997
0.0197082
0.0266598
0.0262716
0.0275844
0.0156275
0.00772625
0.0242272
0.00732606
0.0196197
0.0212808
0.0220001
0.0120108
0.0241833
0.0109385
0.0200673
0.0208484
0.0199231
0.0105187
0.0149153
0.0370507
0.00930221
0.00236574
0.0190135
0.016245
0.0203118
0.0130598
0.015259
0.0164959
0.0176157
0.0145531
0.0212377
0.0306689
0.0157564
0.0238496
0.0109638
0.0195921
0.014875
0.0188948
0.0205452
0.0193411
0.026043
0.00362832
0.0255699
0.0169646
0.000791622
0.011097
0.0268117
0.024048
0.0141824
0.00338367
0.0217654
0.00785304
0.0275701
0.00790657
0.0224955
0.0213222
0.0249777
0.0190333
0.0230907
0.0158133
0.00263843
0.0207305
0.00232892
0.0251773
0.000241781
0.00087023
0.00522875
0.00187973
0.0172178
0.000877854
0.0278205
0.0280236
0.0235479
0.0242666
0.0263618
0.0264241
0.0255211
0.0258517
0.00721313
0.0281584
0.0254809
0.00558754
0.0241439
0.0296847
0.0165987
9.17059e-05
0.0232723
0.0252482
0.0217482
0.0202913
0.0228687
0.0271632
0.00256246
0.0238951
0.0011815
0.00062633
3.88987e-05
0.0208327
0.0147511
0.00643254
0.0120839
0.0236306
0.0350011
0.0166278
0.0216836
0.0222371
0.026989
0.00221453
0.0369121
0.0249403
0.00723896
0.0177144
0.00858958
0.0186348
0.0228246
0.00874014
0.0245968
0.0191332
0.0103735
0.0163252
0.00999515
0.0202074
0.0162121
0.0259073
0.0266536
0.00756564
0.0138289
0.0168191
0.0163977
0.0222165
0.0312235
0.0113379
0.0221196
0.0169695
0.011151
0.0143632
0.0282308
0.0159077
0.0145376
-0.000167378
0.0300068
0.0293468
0.000956219
0.0242244
0.00182871
0.0182344
0.0276988
0.00410221
0.0257323
0.0256544
0.027331
0.0262315
0.0210855
0.0216762
0.0235725
0.00641023
0.0228278
0.00799312
0.00211099
0.0120721
0.00323568
0.021682
0.0234816
0.00999148
0.00994871
0.0121797
0.0274256
0.0030735
0.0234566
0.013955
0.0271165
0.0192318
0.0264846
0.0255629
0.0285741
0.0253786
0.00118765
0.0168853
0.0252468
0.017661
0.0230261
0.0222083
0.0046602
0.0266535
0.0202252
0.0278993
2.36917e-05
0.0254095
0.00644068
0.0136826
0.00182827
0.0216866
0.0209739
0.0328269
0.0200854
0.00671343
0.0248612
0.0236928
0.000729846
0.000514347
0.0323148
0.0221968
0.00770597
0.0360001
0.00886835
0.01398
0.0242447
0.000308985
0.00279538
0.0369547
0.00704963
0.010619
0.0104686
0.0172688
0.0236978
0.0136525
0.00992644
0.0242783
0.0272599
0.0251719
0.0235071
0.0138209
0.0236953
0.0166871
0.0102393
0.0209143
0.0205638
0.0167163
0.0189133
0.0137243
0.0128881
0.0239341
0.0245394
0.024964
0.0207613
0.0294743
0.0200635
0.0208092
0.0195846
0.0205361
0.0248429
0.0178533
0.00397391
0.0270258
0.0261518
0.024419
0.00413527
0.0232226
0.0202845
0.022679
0.0206776
0.0276681
0.0242846
0.00316491
0.00977866
0.0273816
0.0275836
0.0297859
0.00268766
0.0133423
0.00937258
0.0255424
0.0247362
0.0264658
0.0295797
0.029891
0.0257062
0.0293637
0.0252874
0.0248464
0.0159974
0.0265198
0.0224288
0.0292869
0.0354023
0.0222227
0.0207589
0.0366428
0.0183187
0.0130512
0.027283
0.0150773
0.0293477
0.000825241
0.0227709
0.0141029
0.0337076
0.0220155
0.0210073
0.0279259
0.0134232
0.000882259
0.0123273
0.0340134
0.00019916
-0.0001679
0.0225125
0.00875124
0.00946637
0.00931778
0.00668877
0.00567491
0.00634447
0.00509884
0.0100188
0.0260581
0.0291477
0.00293307
0.0263045
0.0233092
0.00229637
0.0221471
0.0269691
0.0273136
0.0154304
0.0190209
0.0144837
0.0268278
0.0151095
0.0232026
0.0207343
0.0154151
0.0214746
0.0261787
0.0148487
0.0145151
0.0212975
0.020937
0.0177739
0.0285276
0.00332031
0.0300211
0.0183173
0.0156382
0.0171924
0.0270168
0.0117945
0.00909224
0.0271142
0.024062
0.0247325
0.0263749
0.0337089
0.030444
0.0272194
0.024649
0.0268577
0.0282715
0.0274055
0.017001
0.0288198
0.0274918
0.00802091
0.0246016
0.018238
0.028741
0.0238841
0.0282971
0.0142143
0.0254857
0.0180136
0.0209534
0.0264821
0.0286324
0.00771591
0.0233784
0.0186422
0.017966
0.0190115
0.0292525
0.0240047
0.025279
0.000485306
0.0214957
3.43924e-05
0.0251483
0.00207004
0.0346003
0.0087112
0.0179001
0.00700954
0.00675122
0.0060966
0.0232428
0.0252571
0.0173363
0.0177702
0.0231821
0.015824
0.0264695
0.0272228
0.0197752
0.0298136
0.0258335
0.0299906
0.0259676
0.0242979
0.0279374
0.0158068
0.0204925
0.021132
0.0167954
0.00373912
0.0281523
0.0276081
0.0327707
0.00855251
0.025866
0.0230806
0.00916943
0.021051
0.0256794
0.022468
0.0292006
0.0276886
0.0264685
0.0288473
0.0214868
0.0275762
0.028778
0.0278537
0.02731
0.022848
0.0255668
0.0202274
0.029518
0.0247766
0.0369311
0.0362768
0.0238944
0.0292274
0.0234616
0.0230867
0.0224715
0.0192531
0.0270972
0.0240303
0.0259239
0.0270264
0.0296013
0.0260693
0.0222042
0.0247578
0.0248062
0.0288777
0.0239806
0.0255532
0.0271821
0.0282472
0.00199623
0.0261694
0.00276511
0.00316685
0.00351716
0.00178833
0.025749
0.00548165
0.000641298
0.0189809
0.0255077
0.0349231
0.0355796
0.0294661
0.0236312
0.0289145
0.0157311
0.0325684
0.0208789
0.022961
0.0249759
0.0270108
0.0177493
0.026697
0.0279288
0.020238
0.0217302
0.0277597
0.0218872
0.0319801
0.0278845
0.0309731
0.00957908
0.00176564
0.0258521
0.0256434
0.0252227
0.0311361
0.0264253
0.0317071
0.0265193
0.0285199
0.0166798
0.0296359
0.0214051
0.0285623
0.0227266
0.0289101
0.0297704
0.0181492
0.0263206
0.0195276
0.0272649
0.0195201
0.0275672
0.023936
0.0230699
0.0274914
0.0266463
0.0239074
0.0266952
0.0182088
0.0317473
0.0248437
0.0263208
0.0271877
0.0283481
0.00773426
0.0192316
0.0287333
0.00282925
0.00371139
0.0292359
0.0257816
0.00043987
0.0349933
0.0233025
0.0322449
0.0253786
0.0221158
0.022092
0.030487
0.025544
0.0219313
0.0231193
0.0248716
0.0254746
0.0252345
0.0327716
0.0280308
0.0281539
0.0189675
0.0190222
0.0296301
0.0239826
0.02806
0.0280162
0.031657
0.035016
0.033288
0.022334
0.0297012
0.023462
0.0275181
0.0269675
0.0230693
0.010522
0.0291707
0.0353062
0.0286304
0.0220267
0.0253893
0.0220292
0.0363436
0.0203363
0.0261108
0.0220919
0.0231231
0.027664
0.0291898
0.0232992
0.027927
0.0273729
0.0248622
0.028376
0.0275596
0.0274767
0.0246349
0.0296952
0.0298052
0.0292938
0.0251404
0.0289268
0.0289822
0.028684
0.00921418
0.029369
0.0208477
0.0215677
0.0264886
0.0316269
0.0210268
0.0256264
0.0296995
0.0251378
0.0257273
0.0222649
0.0332684
0.0248004
0.0291
0.0210769
0.0211788
0.0254744
0.0294386
0.0210071
0.0250589
0.0248991
0.0289541
0.0294081
0.0251219
0.0253709
0.0315566
0.0314376
0.0259263
0.0310782
0.03044
0.0274032
0.0313242
0.0127999
0.0311651
0.0294591
0.029016
0.0292808
0.0279158
0.0292166
0.0322794
0.0263984
0.0290468
0.0233212