/*--------------------------------*- C++ -*----------------------------------*\
| =========                 |                                                 |
| \\      /  F ield         | OpenFOAM: The Open Source CFD Toolbox           |
|  \\    /   O peration     | Version:  2212                                  |
|   \\  /    A nd           | Website:  www.openfoam.com                      |
|    \\/     M anipulation  |                                                 |
\*---------------------------------------------------------------------------*/
FoamFile
{
    version     2.0;
    format      ascii;
    arch        "LSB;label=32;scalar=64";
    class       surfaceScalarField;
    location    "0.058";
    object      phi;
}
// * * * * * * * * * * * * * * * * * * * * * * * * * * * * * * * * * * * * * //

dimensions      [0 3 -1 0 0 0 0];

oriented        oriented;

internalField   nonuniform List<scalar> 
68568
(
-1.5303e-07
1.57813e-07
-2.97407e-08
2.49582e-08
1.47064e-07
-7.51788e-08
-7.7937e-08
6.05222e-09
1.7835e-07
-1.36221e-07
-6.03063e-08
1.81776e-08
-4.588e-09
2.22636e-09
-1.71282e-07
1.73643e-07
-1.30223e-09
1.43545e-07
1.03591e-09
-1.43279e-07
1.40892e-07
-4.49361e-10
-1.29793e-07
-1.06499e-08
8.46334e-08
-8.96627e-08
1.31925e-07
-1.26896e-07
-4.00979e-08
-2.74934e-08
1.52225e-07
1.33033e-07
-1.592e-08
-1.1216e-07
-4.95395e-09
1.51052e-07
5.43167e-08
-5.8305e-08
1.02197e-07
1.39209e-07
-6.30566e-08
-6.49018e-08
-2.04846e-07
1.94569e-07
-1.41728e-07
6.95199e-08
-5.72928e-09
1.85617e-07
-1.91095e-07
1.37028e-08
-8.22488e-09
-7.10716e-08
-5.21126e-08
1.22046e-07
1.13828e-09
1.30139e-07
8.90919e-08
-1.3246e-07
-8.67706e-08
-5.19185e-08
-8.00577e-08
1.16738e-07
1.52386e-08
1.1379e-07
-1.19073e-07
-4.66356e-08
1.13528e-07
-4.39655e-09
-6.95412e-10
-1.08436e-07
8.67698e-08
-1.57237e-07
7.87986e-08
-8.33094e-09
1.1443e-07
-4.41804e-10
-1.13944e-07
-4.39655e-11
-1.82319e-08
9.18629e-09
1.43247e-07
-1.34201e-07
-4.66453e-08
1.93241e-07
-2.78404e-08
-1.18755e-07
-8.06809e-10
-5.45313e-10
-1.38593e-07
1.39945e-07
-7.59629e-08
-4.96859e-08
1.18573e-07
7.0758e-09
-9.90564e-08
-4.07864e-08
-1.31873e-08
-6.6245e-08
1.44381e-07
8.63337e-09
7.8928e-08
4.62306e-08
-3.16581e-08
-9.35005e-08
-6.9857e-08
-1.01287e-07
1.31046e-07
5.00399e-08
-1.23191e-07
3.29454e-09
1.56855e-07
-8.34046e-08
-1.47726e-07
7.42758e-08
-1.34539e-08
2.48298e-09
1.19427e-07
-1.08456e-07
1.60271e-07
-3.35114e-08
-1.14714e-08
-1.15288e-07
1.21935e-07
-9.34248e-08
-6.01775e-08
3.16676e-08
-6.73352e-10
1.11675e-07
-1.11081e-07
7.95177e-11
1.24744e-07
8.66983e-08
-8.68282e-08
6.09099e-10
-4.79272e-10
4.41956e-08
-1.63614e-07
9.52101e-08
2.42086e-08
-1.65446e-07
1.43791e-07
6.58501e-08
-7.54617e-08
-1.78325e-10
-3.22824e-10
-8.67998e-10
1.16416e-07
-1.11848e-09
1.15411e-07
-1.14917e-07
-6.66511e-10
1.72782e-10
-2.70389e-08
-1.61334e-07
1.2277e-07
1.99004e-07
-1.51332e-07
-1.70443e-07
-6.34378e-08
-1.06428e-07
3.00005e-07
-1.49984e-07
1.67468e-07
-1.40581e-07
1.23097e-07
-1.2665e-07
6.71083e-08
-5.36026e-09
1.1809e-07
-1.15294e-07
-3.69277e-09
8.96848e-10
1.00438e-07
2.58266e-08
1.20434e-08
-1.38308e-07
2.28227e-09
-1.5583e-07
1.51125e-07
3.47879e-08
-3.00831e-08
-8.80737e-09
-9.56089e-08
1.04089e-07
3.2723e-10
-1.19946e-07
1.41181e-07
1.77412e-07
-1.96066e-07
-3.91687e-10
-1.79062e-10
2.13922e-09
-1.69514e-09
1.11719e-07
-1.12163e-07
4.03078e-08
-1.18398e-07
-1.96759e-09
9.39406e-08
-1.00313e-07
3.76767e-09
2.60424e-09
-8.78114e-08
1.45586e-07
-6.39457e-08
6.17088e-09
1.50492e-07
-7.79108e-08
-7.60267e-08
3.4451e-09
9.26784e-08
-9.29803e-08
-5.04857e-10
-1.14988e-07
-1.75213e-09
1.18967e-07
7.80145e-08
7.34302e-08
-7.93925e-09
-1.43505e-07
-6.18637e-09
1.38892e-07
-1.33595e-07
8.89183e-10
9.07583e-08
-1.53943e-07
-3.05993e-09
1.1117e-07
-1.80914e-08
3.44793e-08
-1.27558e-07
1.53746e-07
-2.40982e-08
-1.74272e-07
4.46242e-08
4.16698e-08
8.43793e-08
-1.25206e-08
6.60027e-08
-1.30824e-07
7.16712e-08
-6.84955e-09
1.37979e-07
-1.3915e-07
-1.31504e-10
-1.03274e-07
1.47448e-07
-3.26088e-08
-1.15644e-08
-2.10619e-07
-1.5425e-07
2.94945e-07
6.99242e-08
-1.28631e-07
-1.95066e-09
1.3475e-07
-6.44867e-09
1.38159e-07
-1.46598e-07
-5.5262e-08
6.37007e-08
-1.28875e-07
6.65675e-08
6.82945e-08
-5.98717e-09
-4.62395e-09
-5.56894e-08
-4.99464e-08
-1.03255e-07
1.03393e-07
-4.94822e-10
3.56536e-10
4.11269e-08
1.78254e-07
-6.88886e-08
1.07394e-07
-6.48989e-08
5.14457e-08
-7.48151e-08
-8.18303e-08
1.52704e-07
3.94148e-09
-6.02938e-10
-2.24859e-07
-4.44961e-10
2.25907e-07
7.59298e-08
-4.77735e-08
8.72546e-08
-2.89357e-10
6.60689e-08
-6.58688e-08
8.92758e-11
-1.97724e-08
1.43545e-07
6.93382e-08
-1.93111e-07
1.7453e-07
-8.82102e-08
-9.15063e-08
5.18674e-09
1.22136e-07
3.89903e-08
-3.71752e-08
-1.23951e-07
1.67957e-07
-7.90386e-08
7.82628e-08
-1.67181e-07
3.61541e-08
1.36428e-08
1.1816e-07
-9.06388e-08
8.61825e-08
-1.66825e-07
1.27146e-07
1.11224e-09
-1.2451e-07
-3.74845e-09
-4.06754e-08
-2.86666e-07
2.00692e-07
8.57071e-08
8.84875e-08
-6.72639e-09
-3.63732e-10
5.01477e-10
9.61298e-08
-9.62676e-08
-1.26567e-07
1.26432e-07
-4.1047e-10
-6.1123e-08
1.22073e-07
6.15869e-09
7.55552e-09
8.97518e-08
-5.14748e-09
-9.21599e-08
-1.3116e-07
5.80391e-08
9.16331e-08
-1.85126e-08
-4.51738e-08
-8.30809e-08
-1.03381e-08
-8.53308e-08
1.65487e-07
5.55119e-09
7.40033e-08
7.70409e-08
-1.45774e-07
-5.27071e-09
1.16138e-07
1.13997e-09
-1.17111e-07
-1.66925e-10
-5.45426e-09
-2.27611e-07
-1.48262e-08
2.37566e-07
-7.55924e-09
1.28393e-07
-1.28492e-07
5.87713e-08
-7.70733e-09
9.96236e-08
-3.9864e-10
-9.81593e-08
-1.0656e-09
1.24905e-07
-8.31088e-10
1.39026e-07
-4.75315e-08
8.30348e-08
1.78755e-10
-1.06e-07
-3.46085e-09
1.13871e-07
-4.41063e-09
9.28379e-08
-5.13134e-08
-9.19613e-08
-1.26708e-10
9.19976e-08
9.03377e-11
-3.57919e-08
-1.39448e-07
1.48073e-07
2.71675e-08
-2.30681e-09
1.3349e-07
-1.30747e-07
-4.35837e-10
-9.04324e-08
-3.75885e-08
1.281e-07
-7.89099e-11
-4.2746e-09
2.09953e-09
-1.12813e-07
-1.6733e-07
8.90977e-08
8.34658e-08
-5.23325e-09
3.37781e-10
-1.02822e-07
1.02784e-07
-2.99808e-10
1.4133e-07
-8.22706e-10
-3.34739e-10
-1.1355e-07
2.89799e-10
1.13595e-07
-3.94069e-09
2.23791e-08
-1.13434e-08
1.34592e-07
-7.36166e-08
5.02748e-09
1.44238e-07
-1.43467e-07
-1.42249e-08
-1.26448e-07
1.42967e-07
1.94303e-08
-3.59491e-08
7.36954e-08
-7.50888e-08
1.5514e-07
3.94408e-09
1.16428e-07
1.56377e-07
-1.29023e-09
-1.57393e-07
7.05303e-08
-1.46987e-07
-4.64801e-09
8.1105e-08
1.4672e-07
-8.06717e-08
7.95499e-09
1.02056e-07
-9.9864e-08
-1.14943e-07
5.97095e-08
-3.15945e-08
-1.53569e-07
1.46377e-07
-1.97592e-08
2.69503e-08
1.59965e-07
4.86133e-08
-5.64738e-08
-1.50379e-07
-7.55536e-08
-3.12757e-08
8.26137e-08
2.42156e-08
-1.33717e-07
7.04025e-08
-5.60151e-08
1.19329e-07
-1.56393e-07
-3.42251e-09
1.6294e-07
-3.12457e-09
-1.12025e-07
2.12553e-08
-6.56228e-08
-1.67623e-07
-6.42015e-09
9.67253e-08
-1.3763e-09
-1.14931e-07
-6.14845e-10
-1.11979e-07
1.43296e-07
-7.57329e-08
6.08595e-09
1.59743e-07
-8.533e-08
-8.08345e-08
6.422e-09
-1.37988e-07
1.85174e-07
-4.76982e-08
5.12619e-10
8.43052e-08
-8.51058e-08
-1.37188e-07
9.68818e-08
7.511e-09
-2.33685e-09
7.21757e-10
1.06883e-07
-1.06393e-07
-1.21191e-09
1.95194e-07
-4.94993e-08
-1.06705e-07
-1.11645e-07
4.70117e-08
1.17515e-07
-1.12873e-07
-2.5424e-09
-1.88568e-09
1.03971e-07
-1.0244e-07
3.54675e-10
-1.01346e-08
-1.38397e-07
1.35605e-07
1.29257e-08
-1.42461e-07
1.59462e-07
-1.00789e-08
-6.92205e-09
1.23905e-07
-1.00437e-07
-1.67662e-08
1.97398e-09
-8.26237e-09
-1.0046e-07
9.99151e-08
3.38545e-08
-7.01374e-09
-1.38866e-07
-2.05201e-08
1.12985e-07
-8.62704e-08
-6.19413e-09
1.64966e-07
-7.06117e-09
-1.41762e-08
-1.43729e-07
1.61219e-07
2.17235e-10
-2.83501e-09
-1.58601e-07
1.39505e-07
-1.38595e-09
-1.3994e-10
1.32127e-07
-1.32446e-07
3.64296e-10
-4.58412e-11
-1.2883e-07
-8.3417e-08
1.29166e-07
2.17476e-08
-1.74721e-07
-1.13052e-07
1.12751e-07
1.82129e-10
1.18779e-10
-1.37125e-07
-7.25227e-09
1.91571e-09
-1.04283e-07
6.24075e-12
1.0423e-07
4.66287e-11
-1.24855e-07
-2.94507e-10
1.25368e-07
-2.18416e-10
-6.76912e-09
1.19152e-07
-1.04972e-07
-7.19253e-09
-1.0536e-07
1.04744e-07
2.82035e-10
9.31174e-09
2.92377e-08
9.20574e-08
-1.28578e-07
7.44247e-08
-7.47676e-08
1.48104e-07
-1.47761e-07
1.0552e-07
-8.29445e-08
-2.4723e-08
2.1472e-09
1.49169e-07
-5.14143e-08
-1.12658e-07
1.68662e-08
5.59592e-09
-1.11249e-07
1.25781e-07
-2.01284e-08
-5.87165e-10
1.04348e-07
-1.03228e-07
-5.33514e-10
-1.44201e-07
-8.52504e-09
1.6949e-07
2.11321e-07
-8.98753e-08
1.90712e-07
1.56595e-07
-7.79647e-08
5.6753e-09
-2.26291e-08
2.63972e-08
-1.09115e-07
1.08634e-07
9.03355e-08
9.54662e-08
-7.54754e-09
9.51236e-08
7.38517e-08
-1.62767e-07
-6.20815e-09
8.35525e-08
8.09242e-08
-7.88213e-09
1.23843e-07
-7.69424e-08
8.52268e-08
7.50616e-08
-1.27361e-07
6.07892e-08
-8.48963e-09
6.46062e-10
-1.00743e-07
-1.18998e-09
2.24989e-10
-3.17954e-07
1.90089e-07
2.21645e-07
-1.34309e-07
5.48881e-08
9.73943e-09
4.45155e-08
4.63915e-08
-1.00647e-07
-1.30819e-07
2.05618e-09
1.29914e-07
-1.15172e-09
-9.99834e-08
9.94686e-08
8.16177e-12
5.06663e-10
1.31734e-07
-1.70568e-07
2.01607e-07
-1.62773e-07
1.58516e-08
-1.321e-09
1.29014e-07
-3.21316e-08
7.56738e-09
-7.51455e-08
9.97096e-08
-7.31675e-08
1.42363e-07
5.22893e-09
-1.48756e-07
7.74834e-08
7.65288e-08
-5.25618e-09
-1.13175e-07
-2.52658e-08
1.17921e-07
5.57919e-10
7.86492e-08
-1.61485e-10
-7.90457e-08
1.49117e-07
-6.75045e-08
7.86579e-08
1.39451e-09
-1.21679e-10
1.07247e-10
-9.88259e-08
1.82026e-07
-4.85392e-08
-3.02781e-08
-1.03208e-07
-7.66814e-09
3.05323e-08
-9.96672e-08
8.12398e-08
-3.40825e-08
2.30503e-08
2.27202e-07
-5.2766e-08
1.6945e-07
-1.71529e-07
-6.35718e-08
-6.81801e-08
5.30382e-09
1.33991e-07
6.27151e-09
-7.18809e-08
-7.31809e-08
1.37775e-07
7.28728e-09
1.67791e-08
1.20446e-07
-1.60687e-07
-1.88485e-10
7.11437e-08
-6.88476e-09
-6.76923e-10
-1.37303e-07
1.44582e-10
1.37835e-07
-1.43839e-07
1.76112e-07
-4.59071e-08
1.13093e-08
-9.87141e-09
5.22768e-08
1.13971e-07
-1.31617e-07
7.68846e-08
-2.76902e-08
8.24227e-08
-1.44259e-07
9.72127e-08
-1.30982e-07
1.29504e-07
1.88212e-10
9.47068e-08
2.2243e-08
-1.70276e-07
-2.21162e-08
1.7015e-07
-1.86896e-07
1.02466e-07
-1.40429e-07
-1.74171e-09
1.69346e-07
2.44662e-08
6.76474e-08
-9.68519e-08
4.73831e-09
3.8994e-08
-5.57012e-09
1.04195e-09
-1.01829e-07
6.94237e-10
-2.39658e-07
2.39795e-07
-5.81882e-10
-9.73487e-08
-1.0231e-07
-9.49911e-08
1.03611e-07
-1.1398e-07
8.56714e-08
-1.08634e-07
1.74772e-08
5.48498e-09
1.28469e-07
-9.2614e-08
-9.45836e-09
-1.58694e-07
-1.10179e-08
2.13702e-08
1.48341e-07
-3.1748e-07
-2.48569e-10
-1.33971e-07
1.33132e-07
4.75684e-10
-9.5374e-08
3.77574e-12
3.79083e-10
-1.44825e-08
-9.6606e-08
1.54718e-07
-4.36291e-08
1.11087e-07
5.45763e-09
4.46743e-08
-1.37554e-07
1.3679e-07
-3.63288e-09
-5.2424e-08
1.39464e-07
-1.00053e-07
2.39719e-10
-1.30889e-07
-1.69244e-10
9.35493e-08
-9.54876e-08
2.43135e-10
-6.76782e-08
-6.72539e-08
1.27073e-07
7.85957e-09
1.15933e-07
1.79296e-08
-9.92872e-08
-3.4575e-08
8.69939e-08
1.55692e-07
-2.19842e-07
-2.43132e-08
-1.12236e-07
-1.98788e-08
1.30151e-07
5.45759e-11
-1.30592e-07
3.86507e-10
2.46968e-08
7.99528e-09
5.55874e-08
-8.82795e-08
-1.44504e-07
7.79381e-08
-5.3147e-09
-1.21963e-07
1.20065e-07
-6.71842e-09
-4.30568e-10
1.23963e-07
3.10708e-10
-8.17155e-08
-7.35571e-08
1.48194e-07
7.07897e-09
1.32078e-07
-7.11245e-08
-6.79338e-08
6.98054e-09
1.32596e-07
-2.44614e-09
1.57627e-12
-1.03371e-07
-9.39683e-08
1.01966e-07
-1.35636e-07
-4.82588e-08
1.65383e-08
1.69095e-07
-1.08626e-07
3.03083e-08
-1.32301e-07
3.19083e-10
-1.08224e-07
7.34856e-10
-6.70817e-10
1.37588e-07
2.63138e-08
-2.81564e-08
-1.35745e-07
4.71626e-08
-1.33383e-07
1.46774e-11
1.02193e-10
4.00026e-08
-1.99513e-07
-8.02411e-08
1.35952e-07
9.17368e-08
2.13083e-08
-1.49576e-07
-1.89255e-08
1.47193e-07
-8.33398e-08
6.13105e-09
1.36267e-07
-1.34742e-07
9.36903e-08
4.25299e-08
-1.47814e-09
-7.26469e-10
2.51622e-10
-9.98231e-08
6.85307e-08
-4.49946e-09
-1.72657e-09
-3.16418e-09
-2.39851e-09
9.82603e-08
-9.26976e-08
8.4578e-08
1.07169e-07
-1.0619e-07
-8.55575e-08
1.53199e-07
-1.7106e-07
3.0258e-10
1.89613e-10
1.61527e-07
-1.03898e-08
-1.41951e-07
-4.38384e-08
1.56617e-07
1.11261e-08
1.21604e-07
-1.14683e-07
-6.002e-09
-9.19415e-10
-1.17618e-09
1.17327e-07
1.68199e-07
-5.8458e-08
-2.34769e-09
9.66462e-08
-8.56595e-08
-5.32145e-10
1.26498e-10
1.44643e-07
-1.6722e-07
8.66727e-09
1.55069e-07
8.00736e-10
-1.2107e-08
1.86877e-07
-2.34621e-07
5.10833e-08
9.87731e-10
9.30903e-08
-8.91352e-10
-9.31867e-08
-1.19963e-07
1.20256e-07
-1.85455e-10
1.18475e-09
-1.48542e-10
-1.14354e-07
1.13234e-07
-5.57625e-11
-1.12211e-07
-2.31849e-10
2.06378e-10
7.31709e-08
-1.05562e-07
-7.8341e-08
1.10732e-07
2.69062e-11
-1.17861e-07
1.17933e-07
-9.84406e-11
-3.27295e-08
4.40368e-08
1.97082e-08
-2.01801e-08
-1.44666e-07
7.5264e-08
-6.15184e-09
2.88933e-08
-1.63798e-08
1.09091e-07
-1.38544e-07
6.69386e-08
6.43635e-08
7.24173e-09
-1.63021e-07
-1.14144e-07
1.14151e-07
-1.29331e-07
-4.43116e-08
5.94921e-08
1.33039e-07
-1.33905e-07
2.79091e-10
5.86419e-10
-1.80114e-09
-1.8923e-07
1.39921e-10
1.90891e-07
-1.08514e-07
3.5747e-11
1.08533e-07
-1.30987e-07
-1.70135e-10
5.65143e-10
7.42214e-08
-1.30805e-07
-6.98847e-09
3.16045e-10
-1.32692e-07
-6.95019e-11
7.79014e-08
7.88338e-08
-5.61046e-09
-7.53101e-08
-7.55759e-08
1.44621e-07
6.26511e-09
-1.19324e-07
8.63235e-10
1.18256e-07
2.05168e-10
1.27203e-07
3.15569e-08
1.1339e-07
-1.61605e-08
1.10475e-07
-5.64967e-09
-1.01006e-07
4.76675e-08
4.60749e-08
7.26354e-09
-1.95058e-09
1.31859e-07
3.07926e-09
-1.28248e-07
7.55032e-08
-7.3378e-08
-1.3499e-07
-1.09059e-07
1.19896e-07
1.24153e-07
1.11063e-07
-1.14628e-10
1.18185e-07
-1.19715e-07
1.47581e-09
5.46672e-11
-1.34717e-07
-1.31649e-07
8.46154e-10
5.59772e-11
1.74022e-08
3.21732e-08
-1.54028e-07
1.53831e-08
-4.46852e-08
2.02454e-07
1.38315e-07
-1.41501e-07
5.75835e-09
-1.54559e-09
1.98383e-08
-2.19938e-08
1.3696e-07
-3.3934e-08
-8.10317e-08
1.0853e-07
-7.30498e-10
-1.07574e-07
-2.25445e-10
-4.34518e-08
-1.48244e-07
2.94793e-07
-1.03097e-07
1.06544e-07
-8.13801e-08
-6.97985e-10
-5.98511e-11
1.04874e-07
-4.66116e-10
7.56252e-08
-7.62456e-08
1.43649e-07
-1.89537e-07
-1.33815e-07
8.1438e-08
1.2986e-07
-2.38051e-09
-3.0928e-08
-8.4628e-08
7.29308e-08
8.7111e-08
8.15764e-09
2.04695e-07
-1.2932e-07
6.82319e-09
1.51507e-07
-8.19623e-08
6.98455e-09
1.28269e-07
-1.71123e-07
1.2444e-07
-7.02372e-08
-3.73322e-08
-1.42835e-08
1.80284e-09
1.07356e-07
-1.19293e-07
6.98784e-08
-1.32283e-07
-5.27337e-09
1.52362e-07
-8.57051e-11
-4.84059e-08
1.47269e-07
-1.00288e-07
-1.90703e-09
-2.60602e-08
1.42887e-07
-1.6052e-07
4.36935e-08
1.19758e-07
2.15764e-08
-5.69549e-08
-2.83069e-09
-1.53647e-07
1.54083e-07
-9.5452e-10
-3.08609e-08
2.32814e-08
-9.9866e-08
1.07445e-07
7.70854e-08
-1.45132e-07
-5.13425e-09
-1.39376e-07
1.39816e-07
-1.24769e-10
-7.79902e-08
1.61103e-07
-1.26564e-07
-7.39402e-08
-8.10668e-08
1.55587e-08
-1.02418e-07
-1.1486e-10
2.06155e-07
6.64758e-08
-1.66116e-07
-1.09096e-07
-7.55738e-08
1.34663e-07
2.35855e-07
4.92371e-13
-9.1948e-08
-1.74744e-10
9.21222e-08
3.32337e-08
1.07802e-07
-7.3791e-10
1.53011e-07
6.3287e-09
9.90147e-08
5.77628e-08
2.68474e-09
7.52827e-08
-1.44952e-07
-5.64049e-09
-7.45043e-08
-8.39481e-08
1.49839e-07
8.61365e-09
-9.2347e-08
-4.52457e-09
-4.1344e-09
-1.06805e-07
-1.16113e-07
1.17565e-07
-6.2098e-11
-1.27578e-07
-3.41291e-09
1.24805e-07
-9.24169e-08
-1.40217e-07
1.00564e-07
1.3207e-07
-1.1462e-07
3.97991e-08
7.80892e-08
-3.2678e-09
7.22456e-08
7.18402e-08
-1.37161e-07
-6.92524e-09
-7.30391e-08
-7.04443e-08
1.37095e-07
6.3881e-09
5.30538e-08
4.9081e-08
-1.1216e-07
1.00251e-08
-6.91764e-08
1.15552e-07
-3.75742e-08
-8.80099e-09
1.07855e-07
-1.08358e-07
-1.73125e-10
-9.69804e-08
7.38702e-10
8.45149e-08
1.09235e-07
-2.91884e-08
-1.64561e-07
-3.20755e-08
9.1669e-08
3.94363e-08
-9.90298e-08
-1.00182e-07
-6.83187e-11
1.02036e-07
-1.78599e-09
-7.60269e-08
-4.38323e-08
9.78655e-08
1.2709e-07
-3.3103e-09
7.22251e-08
-1.34719e-07
6.75511e-08
-5.05679e-09
-6.31169e-08
4.72032e-08
-1.30543e-07
1.16583e-08
1.28596e-07
-1.06687e-07
-3.16276e-08
4.33863e-08
8.55708e-08
-7.68603e-08
9.54878e-10
-1.25624e-07
-1.85733e-10
-1.10973e-08
1.70713e-08
1.06298e-07
-1.20241e-07
5.81779e-08
5.49649e-08
7.09805e-09
7.58285e-08
-4.92308e-09
4.06059e-08
6.50148e-08
7.36391e-09
9.03935e-09
1.31745e-07
-1.09243e-08
-6.78435e-09
-8.47041e-08
8.28862e-08
1.38777e-07
-7.66492e-08
-1.62096e-07
1.62718e-07
1.70703e-07
5.95621e-08
-5.72191e-08
-1.73046e-07
1.4757e-08
-1.33254e-07
1.43194e-07
-8.09093e-08
-7.32378e-08
1.47346e-07
6.80092e-09
-5.06568e-08
-1.21388e-07
2.09684e-09
6.99086e-08
-6.85345e-09
1.33824e-07
-7.03199e-10
-8.16422e-11
2.3076e-08
-8.88886e-08
9.47059e-08
2.60605e-10
2.47885e-10
-1.39884e-07
-3.93382e-09
7.9381e-08
-7.62709e-08
1.17508e-08
-8.66238e-08
1.4813e-07
-7.32573e-08
-2.88225e-08
-1.39637e-07
1.1287e-09
1.67331e-07
9.65995e-08
-1.85592e-07
7.24894e-08
1.65035e-08
-1.26163e-07
9.31479e-08
-1.00956e-07
1.03413e-07
-6.89668e-10
-1.02497e-07
-2.27006e-10
-4.68461e-08
-1.31943e-07
4.75133e-08
1.31276e-07
-7.45718e-08
-1.26837e-07
1.52912e-07
4.84962e-08
-2.94039e-09
-1.46494e-07
1.47056e-07
2.3787e-09
-1.288e-07
1.28653e-07
-1.6542e-09
-1.4867e-07
1.31385e-07
-6.59887e-08
1.42186e-07
7.27259e-08
-6.24266e-09
7.89331e-08
-1.40528e-07
-6.57664e-08
-1.29675e-07
9.07622e-08
-1.05591e-07
-1.38505e-08
1.47018e-07
-9.04826e-08
-3.56666e-08
1.23643e-07
-1.21773e-07
-3.32476e-09
1.45454e-09
-1.00735e-07
-2.42214e-09
4.3317e-09
8.11551e-11
-1.5409e-07
1.51068e-07
-9.28874e-08
-2.01286e-10
7.4176e-10
-9.58505e-08
8.05632e-08
1.59487e-08
-6.61461e-10
-5.74781e-08
-1.3729e-07
1.84957e-07
9.81056e-09
1.18957e-07
-4.53375e-10
5.78278e-08
4.94938e-08
-1.1599e-07
8.66887e-09
-1.1161e-07
-5.24041e-10
1.11876e-07
2.5806e-10
-1.09167e-07
1.57882e-08
-2.63362e-08
6.51132e-08
-1.24024e-07
5.24653e-08
6.44539e-09
-4.86483e-09
-9.67981e-08
4.3143e-09
1.6396e-09
-1.38089e-07
1.45943e-09
5.51324e-08
7.705e-08
-7.06157e-08
1.81275e-08
4.03803e-08
2.13219e-08
1.30426e-07
-1.30961e-07
6.74395e-10
-1.39391e-10
-2.12142e-07
1.99988e-07
8.78198e-08
-7.56658e-08
5.88767e-08
-1.51629e-07
1.16591e-07
-2.38389e-08
7.65716e-08
-6.77223e-09
-7.00029e-10
-1.50534e-10
5.93168e-08
-6.31186e-08
-1.19092e-07
1.70195e-07
-1.41535e-07
1.16942e-07
-1.53215e-08
6.77253e-10
-1.5714e-07
1.56402e-07
1.34581e-07
-1.63952e-07
-1.49005e-09
-8.97329e-08
-8.52942e-08
1.68091e-07
6.93599e-09
9.66465e-08
2.74556e-10
-9.69551e-08
3.40433e-11
-1.5179e-07
8.11962e-08
7.53241e-08
-4.73076e-09
-2.06331e-07
1.28153e-07
-1.43191e-07
2.21369e-07
-1.98949e-07
2.59741e-08
-4.69105e-08
-1.16367e-07
-1.69057e-07
1.04142e-07
3.88551e-08
-1.50962e-08
-1.32079e-07
1.4387e-07
3.30491e-09
-3.44356e-09
-1.15442e-07
-9.94439e-09
1.10207e-07
-1.16108e-07
1.25284e-07
-4.05374e-08
1.6818e-07
1.68395e-07
9.67571e-08
-1.31161e-07
-1.27095e-07
4.37953e-10
1.22521e-07
-1.2298e-07
2.10591e-11
1.06226e-07
-1.15103e-07
4.01192e-09
-8.21951e-08
-6.12774e-10
7.26423e-08
1.08134e-07
-4.69518e-08
6.52918e-08
-1.26531e-07
-4.74995e-09
-4.22258e-10
1.19293e-07
-1.18953e-07
8.1519e-11
-1.23094e-07
-4.42902e-10
1.24196e-07
-6.58349e-10
-1.25817e-07
4.63108e-08
-3.5177e-08
-1.22714e-08
1.04098e-07
8.31927e-08
-1.29224e-09
-1.85999e-07
3.27979e-09
-4.84458e-11
-1.76262e-08
8.58921e-08
-1.54437e-07
8.61715e-08
-1.33473e-07
1.35461e-07
6.88826e-08
-6.38366e-09
2.89788e-08
-1.38175e-07
-3.90592e-08
1.48255e-07
4.29651e-08
1.17784e-08
3.48827e-08
-8.96262e-08
7.24116e-08
7.94761e-08
-1.45399e-07
-6.48834e-09
-1.08191e-07
1.06474e-07
1.74696e-09
-3.04301e-11
-7.16178e-08
7.23431e-09
5.86521e-08
-5.64364e-08
1.32597e-07
-1.34813e-07
-1.1052e-07
2.34606e-07
-4.92202e-08
-7.48661e-08
9.07633e-08
-7.56392e-08
-7.95691e-08
6.44451e-08
7.20822e-08
-5.93378e-08
-1.43258e-07
5.68671e-08
8.40029e-09
6.13316e-08
8.52328e-08
7.91376e-08
8.19014e-08
-1.54847e-07
-6.1917e-09
1.42147e-07
8.41816e-09
-6.54312e-09
-1.44022e-07
1.08183e-07
7.14272e-10
-3.66537e-10
1.01842e-07
-1.03895e-07
2.42447e-09
-3.71255e-10
-6.93887e-08
-8.16384e-08
1.44148e-07
6.8786e-09
-1.27699e-07
1.46505e-09
4.17612e-10
-1.11946e-07
-2.02114e-11
3.55752e-10
1.20065e-08
1.3127e-07
1.17944e-07
2.02545e-09
-1.01244e-09
1.22293e-10
-1.09377e-07
1.0873e-07
1.02819e-07
1.80228e-08
2.80105e-09
-1.28193e-08
3.85035e-08
-1.27673e-07
1.01989e-07
1.32229e-07
-1.31943e-07
-1.24707e-10
-1.61049e-10
-3.14714e-08
-1.26111e-07
1.83557e-07
-1.25843e-07
-2.03663e-08
1.51712e-07
-5.50335e-09
1.63745e-07
-1.38802e-07
-2.39553e-08
-2.19597e-08
1.36678e-07
1.3394e-07
-1.35231e-07
5.17035e-10
7.74411e-10
1.59232e-07
-4.92311e-08
-1.56886e-07
4.68848e-08
1.3269e-07
-1.32779e-07
1.56915e-07
-1.56826e-07
9.60442e-09
-1.3433e-08
-1.04703e-07
1.08531e-07
2.8445e-08
-1.09354e-07
-4.63698e-08
1.27279e-07
9.23126e-08
8.35627e-08
-1.68607e-07
-7.26852e-09
2.17405e-07
-2.30052e-07
-1.51404e-07
-8.92284e-08
1.08813e-07
-1.39469e-08
1.33161e-08
-1.98842e-07
1.72551e-07
-9.16634e-08
1.43499e-07
-2.43589e-07
1.91753e-07
8.41604e-08
-1.69761e-07
-6.06291e-09
2.17431e-08
9.55182e-08
-1.64236e-08
-1.00838e-07
-1.64489e-09
1.17744e-07
-1.5504e-08
-9.63438e-08
-6.30048e-08
1.64004e-07
-1.14163e-07
1.31641e-08
-2.9086e-08
8.38057e-08
-4.72833e-08
-7.43643e-09
3.09041e-10
-1.05562e-07
1.05733e-07
-4.79311e-10
2.96093e-09
1.32602e-07
-1.34367e-07
-1.19587e-09
-7.74166e-09
-1.35243e-07
1.44309e-07
5.25937e-09
-7.95544e-08
1.86003e-07
1.29804e-08
-5.11311e-08
-4.72866e-08
1.34446e-07
-2.32672e-07
-5.61607e-08
-1.6134e-07
1.27355e-07
-7.65348e-08
1.31455e-07
-1.27966e-07
-5.28097e-10
-1.05111e-07
1.50448e-09
-2.19921e-09
1.05806e-07
6.59681e-08
-2.03383e-07
-1.54908e-07
-3.41655e-11
1.3391e-07
-1.33609e-07
-2.67005e-10
-1.36252e-07
-4.78115e-08
1.74399e-07
6.17984e-09
-9.75191e-09
1.18185e-07
-1.0595e-07
-1.23042e-08
1.54598e-07
-1.23563e-07
6.24255e-10
-1.56035e-10
6.85781e-08
-1.61905e-07
8.81298e-08
5.19723e-09
-1.49191e-09
-1.33164e-07
-1.58151e-09
1.35197e-07
6.09736e-09
-1.11235e-07
5.67153e-08
5.26482e-08
1.87157e-09
-1.1357e-07
3.08545e-08
1.54797e-07
-5.46587e-11
1.44553e-07
-8.49946e-10
-1.43648e-07
7.96607e-09
1.27628e-07
-2.71998e-08
-1.08394e-07
1.53661e-07
-1.75097e-07
9.05022e-08
-6.90659e-08
4.82916e-08
1.21858e-07
-5.99244e-08
-6.80158e-09
9.01727e-08
1.10068e-07
-1.9046e-07
-1.35005e-08
-6.96969e-09
1.16585e-07
-1.40891e-07
1.23144e-07
3.9918e-10
-1.23579e-07
3.61729e-11
7.92129e-09
1.07201e-07
-4.03508e-09
8.49232e-08
-2.10966e-07
3.36256e-08
-1.40548e-07
1.97111e-09
-7.90589e-08
-6.75194e-08
1.39648e-07
6.93005e-09
-1.12123e-07
-5.09964e-08
3.45684e-08
1.28551e-07
-1.26458e-07
-5.994e-10
-6.41857e-10
-7.42107e-08
1.56775e-07
-8.86339e-08
6.06989e-09
7.91428e-08
-1.57345e-07
8.21099e-08
-3.90785e-09
-1.18925e-07
-2.54203e-10
1.08451e-07
-1.11587e-07
4.98736e-09
-1.85145e-09
1.60611e-07
-9.00629e-08
8.59479e-09
-1.21612e-07
2.06526e-08
-2.08132e-08
6.31519e-08
-1.0442e-07
-2.36303e-08
1.33029e-07
-1.32137e-07
-2.14178e-10
7.22815e-08
6.48861e-08
-6.46383e-08
-7.25293e-08
8.50568e-08
1.58526e-07
-1.71337e-07
8.37748e-08
7.11991e-08
-1.49602e-07
-5.37219e-09
-1.22421e-07
6.46934e-08
5.03795e-08
7.34812e-09
1.8832e-10
1.33297e-07
4.54735e-10
8.44043e-08
7.85494e-08
-1.57523e-07
-5.43079e-09
1.12933e-07
1.23441e-07
-1.01596e-08
-1.09667e-07
-3.61365e-09
1.01031e-07
7.3487e-11
1.5667e-07
-1.5818e-07
-8.69063e-08
8.84165e-08
5.28973e-08
6.3234e-08
7.30936e-09
-6.25358e-09
-2.71504e-07
1.99361e-08
1.80169e-07
-3.5941e-09
6.28599e-09
1.62461e-07
1.39334e-07
-2.36682e-07
-1.30596e-07
1.05422e-09
-1.74174e-09
1.31284e-07
7.22416e-10
1.05017e-07
-1.05699e-07
-4.03558e-11
-8.43541e-08
1.92421e-07
-1.88976e-07
5.50352e-08
1.30865e-07
-6.8719e-08
-1.17182e-07
4.87528e-08
6.16422e-08
-1.17977e-07
7.58176e-09
1.58247e-07
-1.22191e-08
2.20632e-08
-1.41227e-07
-5.56762e-09
5.65181e-08
-1.61921e-07
-1.93959e-08
-1.01232e-07
-1.17948e-07
1.11109e-07
2.12077e-08
-5.17086e-09
-2.1924e-08
1.02016e-07
3.10168e-08
1.38269e-08
-8.51762e-08
-1.74956e-09
1.32531e-07
4.04266e-09
1.40284e-10
4.00447e-10
-2.1431e-07
-1.55955e-08
-5.54942e-10
8.18903e-08
1.51384e-08
-8.8819e-08
-1.57994e-08
2.90381e-07
-1.27679e-07
-1.46903e-07
-1.79636e-07
1.46956e-07
1.21977e-07
-1.54631e-07
-7.26879e-08
7.83387e-08
-8.03189e-08
7.46681e-08
1.26131e-07
-1.30803e-07
-3.91714e-09
8.58942e-09
-4.284e-09
-6.76643e-08
8.47525e-08
-1.96724e-07
-8.56141e-08
6.90259e-08
-7.53502e-08
-1.27133e-07
2.88194e-07
-4.38608e-08
-1.04183e-07
-1.38617e-08
-8.13138e-08
1.6406e-07
2.31054e-09
-3.53892e-08
-7.58502e-08
9.49559e-08
1.62835e-08
4.25197e-08
-1.90473e-07
8.62616e-08
6.16922e-08
-1.12455e-07
1.12287e-07
-2.48912e-10
4.16476e-10
9.68137e-08
-1.66815e-10
1.48478e-08
1.32948e-07
1.19116e-07
-7.85784e-09
-8.79763e-08
-1.51477e-07
1.87764e-08
7.20865e-10
1.34437e-07
-1.13697e-07
1.67009e-07
-5.13434e-08
-6.01081e-09
3.07595e-09
1.3254e-07
-3.08498e-09
1.11389e-07
4.15447e-08
-1.61874e-07
-3.14604e-08
-1.32978e-07
-1.15286e-07
-8.99745e-08
4.65672e-08
-1.16266e-08
1.14218e-07
-8.90104e-09
-9.99581e-08
-1.15101e-07
-3.52498e-09
1.00445e-07
-1.29339e-07
1.0408e-07
-6.22513e-10
-1.02773e-07
-6.85386e-10
-2.72557e-08
-1.55907e-07
-1.87205e-07
1.86892e-07
1.17671e-07
-4.97706e-08
1.14787e-08
-7.93789e-08
1.1919e-07
-5.73666e-10
-1.1844e-07
-1.77118e-10
8.9801e-10
1.07381e-07
-1.08619e-07
3.40733e-10
3.04978e-08
1.26091e-07
-3.86452e-08
-8.1746e-08
-8.63944e-08
1.07955e-08
8.21276e-09
1.15131e-07
-1.19395e-07
-3.94856e-09
-1.31529e-07
1.42023e-07
-2.28061e-09
-1.40046e-07
-3.84738e-09
-1.57062e-07
1.59199e-07
-5.85168e-08
-8.99827e-08
1.54551e-07
-6.05186e-09
1.13099e-07
-1.49456e-08
7.28599e-10
-1.60467e-10
4.94415e-08
1.24514e-08
-1.01943e-09
-2.92945e-10
7.88827e-08
8.64778e-08
-6.12832e-09
-3.54101e-08
1.05043e-07
8.26988e-08
-3.00973e-07
-1.94325e-07
3.22194e-07
1.71167e-07
1.50062e-07
-6.26991e-08
-9.65103e-08
6.11821e-09
-7.52954e-10
-1.29834e-07
-3.73898e-10
5.6849e-08
6.54341e-08
-1.21252e-07
-1.03152e-09
-1.19806e-07
1.19671e-07
1.81088e-10
-4.61339e-11
1.09991e-07
3.39242e-08
-1.44113e-08
1.43571e-09
2.03203e-07
-4.6505e-09
-5.54299e-08
-8.41905e-08
-3.63715e-09
-7.63891e-08
-2.44387e-08
6.51056e-10
1.12974e-07
-1.12911e-07
8.15683e-08
-2.00934e-07
1.11628e-07
-1.01585e-09
-6.21219e-10
7.27667e-08
6.78954e-08
-1.36849e-07
-3.8127e-09
-1.68453e-07
8.41376e-08
-2.38993e-08
-2.82166e-08
-3.89803e-08
1.33545e-07
-6.63483e-08
-3.08133e-08
7.39443e-08
3.2193e-08
-1.46638e-07
-9.28449e-08
9.82277e-08
1.41256e-07
7.96518e-08
-5.75878e-09
6.76825e-08
1.34319e-07
-5.50474e-08
-1.46954e-07
-3.82163e-09
1.22291e-07
1.53635e-08
-1.33833e-07
1.1658e-07
-9.89165e-08
-2.17691e-08
4.10589e-09
1.47631e-07
-1.99677e-07
1.84648e-07
1.47052e-07
-7.1369e-08
-6.88386e-08
-6.84438e-09
4.43417e-08
-1.76637e-07
-1.26514e-07
-1.25673e-07
-5.21382e-11
-1.95574e-07
1.64692e-07
-1.70902e-07
2.01784e-07
8.40842e-08
-1.74032e-07
-2.6642e-08
1.23867e-07
-1.22783e-07
-4.4638e-10
-6.38094e-10
6.24844e-08
-1.24893e-07
-5.25608e-09
-7.21646e-09
7.56315e-08
-1.74096e-07
8.24851e-08
-1.41526e-07
7.13513e-11
1.74283e-10
1.4128e-07
-9.7687e-08
1.43076e-07
-1.83804e-07
-9.39588e-08
-2.72094e-08
-7.3223e-09
6.16184e-08
7.17876e-08
-6.05087e-09
-5.45048e-08
-6.20417e-08
-5.87452e-09
-3.88407e-09
-1.08339e-07
-1.0446e-07
-1.0826e-09
-5.69273e-09
7.1797e-08
-7.15256e-08
7.66484e-10
-1.03789e-09
1.10755e-07
-1.08592e-07
-1.31824e-09
-8.44709e-10
-1.35255e-09
1.31927e-07
-1.30756e-07
1.81496e-10
-1.36574e-07
1.47354e-08
1.16253e-07
5.58591e-09
1.31996e-07
-1.25271e-07
-4.68416e-09
-2.04164e-09
-1.11404e-07
-1.21442e-09
1.13283e-07
-6.64311e-10
-1.07857e-07
-6.59064e-08
1.00721e-07
3.53269e-08
-9.96363e-09
-1.26085e-07
7.81532e-08
-8.31107e-08
4.08516e-09
8.72396e-10
4.69231e-08
3.8792e-08
-1.32561e-07
1.13037e-07
-1.10042e-07
-7.40412e-09
4.40922e-09
-5.26991e-08
5.31862e-08
1.5816e-07
5.72995e-09
1.3378e-07
-9.99123e-08
1.24435e-08
-2.8549e-08
-1.21596e-08
-1.0593e-07
-3.00365e-08
2.01742e-07
6.05164e-09
-1.76812e-07
1.35221e-07
-3.47993e-08
-2.0174e-08
2.18235e-08
-8.33851e-08
6.28263e-09
-1.29999e-07
1.29852e-07
6.0267e-08
-7.28114e-08
-3.12879e-08
7.96933e-08
2.1488e-09
6.20311e-08
5.70243e-08
-7.60903e-08
-8.61759e-08
1.18833e-07
-1.32268e-08
-7.29663e-08
6.00459e-09
9.79195e-08
1.17565e-08
2.33575e-08
2.58345e-08
-1.09972e-08
5.32584e-08
6.16767e-08
6.92329e-09
-5.11938e-08
1.67549e-07
-1.73833e-07
-1.81719e-07
9.00536e-08
2.295e-07
-1.54717e-07
1.10052e-07
-3.38018e-08
6.32859e-08
-1.39537e-07
-1.27448e-07
-4.40686e-08
-1.49889e-07
-5.63529e-09
-1.05497e-07
8.27197e-08
-9.12486e-08
1.14026e-07
9.03021e-09
-1.24547e-07
-1.4634e-07
-7.76258e-09
-4.07763e-09
-1.32081e-07
1.19658e-07
1.29003e-07
2.03176e-08
1.06087e-07
2.12794e-09
-1.37524e-07
1.27139e-07
-8.89204e-08
9.93058e-08
-1.04645e-07
1.38722e-08
-2.11724e-08
-3.5824e-08
4.45866e-08
4.79169e-08
-4.56029e-08
-1.15567e-07
-4.53069e-08
1.26298e-08
-7.33582e-08
-8.79928e-08
7.78242e-09
-7.26578e-08
8.33708e-08
8.32918e-08
2.43854e-08
4.39338e-08
-1.51611e-07
2.53205e-08
6.14221e-08
-8.37431e-08
3.43407e-09
-8.2717e-08
-9.32066e-08
7.4706e-09
6.45064e-08
-7.52227e-08
-4.96385e-08
6.03548e-08
-5.0371e-08
-9.14638e-09
1.5264e-07
-1.92521e-07
4.04693e-08
-5.87952e-10
-8.65957e-09
2.83592e-08
8.22292e-08
-1.01929e-07
5.55239e-10
-9.74832e-08
-1.01122e-09
9.79392e-08
-1.0407e-07
1.03358e-07
3.79087e-10
3.32571e-10
1.35036e-07
-7.38715e-08
-1.3674e-07
-6.2798e-08
-3.94629e-08
1.03906e-07
-1.64525e-09
1.59215e-07
1.19986e-08
-1.20931e-07
6.15488e-09
-1.4497e-07
1.70453e-08
-5.06446e-10
-1.05955e-07
-1.17325e-07
1.1771e-07
-3.13873e-10
1.46645e-07
1.37554e-08
-1.49376e-07
-9.63499e-09
-1.47389e-08
2.23742e-07
-7.62508e-10
-4.26259e-08
-6.83148e-10
1.00524e-07
-9.97438e-08
2.07194e-10
3.95298e-10
9.13913e-09
2.72641e-08
1.26716e-07
-3.06732e-08
1.22958e-07
-9.10262e-09
-3.38317e-09
1.32016e-07
-1.27237e-07
-1.39576e-09
-1.07223e-07
1.10714e-07
-5.40531e-09
1.26073e-07
5.63253e-09
-3.28475e-08
-9.88582e-08
1.22898e-07
1.82793e-09
-1.22715e-07
-2.01047e-09
-7.32501e-08
-5.56354e-08
7.34555e-08
9.2018e-08
1.52206e-09
1.61801e-07
2.00718e-08
-3.72516e-08
-1.50866e-08
3.67139e-09
-8.05329e-08