/*--------------------------------*- C++ -*----------------------------------*\
| =========                 |                                                 |
| \\      /  F ield         | OpenFOAM: The Open Source CFD Toolbox           |
|  \\    /   O peration     | Version:  2212                                  |
|   \\  /    A nd           | Website:  www.openfoam.com                      |
|    \\/     M anipulation  |                                                 |
\*---------------------------------------------------------------------------*/
FoamFile
{
    version     2.0;
    format      ascii;
    arch        "LSB;label=32;scalar=64";
    class       volVectorField;
    location    "0.058";
    object      U;
}
// * * * * * * * * * * * * * * * * * * * * * * * * * * * * * * * * * * * * * //

dimensions      [0 1 -1 0 0 0 0];

internalField   nonuniform List<vector> 
31639
(
(0.125099 0.000583237 -0.00063391)
(0.121472 -0.000490772 1.33941e-05)
(0.123647 -0.000291284 0.00088856)
(0.127533 4.2082e-05 -0.000274622)
(0.123778 -0.000799713 -0.00030624)
(0.122219 -0.000158506 -5.02575e-05)
(0.121889 -4.5499e-05 -0.000214855)
(0.124736 -0.000118161 3.88914e-05)
(0.124499 0.000271496 -0.000255753)
(0.125381 -0.000510497 -0.0004614)
(0.126259 0.000466367 -2.29856e-05)
(0.125218 -0.000572378 -0.000814098)
(0.122282 -0.000525522 5.11411e-05)
(0.125292 -2.73983e-05 0.000214731)
(0.120685 -0.000373236 0.000145842)
(0.122348 -0.000445668 0.00083958)
(0.124127 0.000494773 0.000107036)
(0.121123 7.14646e-05 0.000395271)
(0.122481 -8.20336e-05 -0.000380896)
(0.123219 -9.31916e-05 -0.000217605)
(0.116154 -0.000278606 -0.000413506)
(0.12647 -0.000336163 -0.00061273)
(0.12585 0.00071164 -0.000190275)
(0.122066 0.000206322 -0.000350346)
(0.12052 -0.000225508 -0.0001654)
(0.123995 -0.000313395 0.000116768)
(0.122872 -2.03335e-05 -0.000221033)
(0.124494 0.00167192 -0.000155289)
(0.121579 0.000385449 0.000726241)
(0.125941 -0.000221635 0.000672414)
(0.126178 -0.000176528 -6.71817e-05)
(0.121162 -1.28071e-05 -0.000244166)
(0.126113 0.000374224 -0.000476593)
(0.12195 -0.000180059 -4.74026e-05)
(0.118092 0.000199191 0.000327317)
(0.126331 0.000410485 0.000225348)
(0.114903 -0.000452459 -0.000122957)
(0.127182 -0.000602883 0.00029213)
(0.125731 -0.000390809 0.000264442)
(0.11481 3.34896e-05 -0.000164698)
(0.119 -8.78334e-05 -0.000330138)
(0.117597 -0.000544187 9.07201e-06)
(0.12491 3.64223e-05 2.23013e-06)
(0.126876 -0.000813231 -0.000899352)
(0.125497 -0.000748108 0.000759018)
(0.126644 -0.000894746 -0.00038207)
(0.119388 0.00036759 -0.000278759)
(0.123419 0.000548002 -0.000319608)
(0.123457 -4.56657e-05 0.000246825)
(0.127092 -0.000462265 -0.000196371)
(0.126243 -0.000289962 -0.000572711)
(0.116697 8.39892e-05 -0.0002661)
(0.125664 0.000683996 0.000180623)
(0.115934 -0.000345905 0.00051859)
(0.123801 -0.000472069 -0.000193297)
(0.123619 0.000207711 -2.00891e-05)
(0.117212 -0.000104025 -0.000616121)
(0.123084 6.0517e-05 0.00035333)
(0.122398 0.000159808 0.000418335)
(0.11786 0.000320224 -0.00022202)
(0.125048 -0.000250319 -0.000520801)
(0.125694 0.000356063 -0.000254257)
(0.121105 -0.000334956 -0.000304618)
(0.122439 -9.07116e-05 -0.000257245)
(0.124479 0.000447282 0.000429052)
(0.127058 -0.000339953 -0.00053162)
(0.124512 -2.60422e-05 -0.00104292)
(0.122787 -0.000308087 0.000142496)
(0.119265 4.47125e-05 -0.000442194)
(0.127048 0.000338396 -0.000193018)
(0.124764 0.000133651 0.000128845)
(0.119411 0.000482649 -0.00127101)
(0.12511 -0.000408406 -0.000843617)
(0.123313 -0.000276395 -0.000195564)
(0.124704 0.000687768 2.16712e-05)
(0.116193 0.00044147 -0.000591181)
(0.126229 -0.000641943 0.000327286)
(0.122697 0.000192443 -0.000666329)
(0.121588 -0.000295399 0.000436402)
(0.125015 0.000213411 5.64367e-05)
(0.121187 -5.50281e-05 5.83193e-05)
(0.113278 -0.000397584 1.91701e-05)
(0.12648 -0.000473863 0.000157387)
(0.123309 -0.000217527 -0.000319423)
(0.12377 -0.000144214 -9.84135e-05)
(0.126259 -0.000562949 -0.00034459)
(0.127192 -0.000152809 0.000135205)
(0.126369 -0.000213528 -0.000503197)
(0.117247 0.000878333 -0.00150698)
(0.125512 -0.000167061 -0.000515714)
(0.123637 -0.000415487 0.0002442)
(0.122427 -0.000537101 -0.00019838)
(0.118145 -0.000518727 -0.000519483)
(0.120393 0.000735459 -0.000837821)
(0.121266 -0.000879848 -0.000458686)
(0.121931 0.000854808 0.000518666)
(0.123814 0.000172128 -0.000550292)
(0.123058 -0.000253452 0.000139022)
(0.122431 0.000158969 0.000397555)
(0.117113 -0.00130116 -0.0002056)
(0.124552 0.000389408 1.45757e-05)
(0.124006 0.000145092 0.000491875)
(0.121041 -0.00038633 -0.000122464)
(0.116441 8.66287e-05 -0.000186567)
(0.117657 -5.64471e-05 -0.00039581)
(0.126669 -0.000679593 -0.000334799)
(0.115894 0.000343544 -0.000502811)
(0.116968 -0.00101725 -0.000919727)
(0.119813 0.000361392 -7.37559e-05)
(0.115133 -0.00058094 0.000702154)
(0.12443 -0.00154247 0.000443921)
(0.118263 -0.000119787 -0.00026646)
(0.122376 0.000193733 -0.000126484)
(0.122333 -0.000771884 -0.000665399)
(0.122623 7.76879e-05 -0.0010003)
(0.115957 -0.000517024 0.000288578)
(0.122428 0.000732972 0.000106488)
(0.121793 -0.000866732 -0.000216944)
(0.124212 0.000150387 0.000274931)
(0.122235 -0.000403075 2.74987e-05)
(0.124487 -0.0002825 -0.000253637)
(0.124866 -0.00045973 0.00029541)
(0.125861 -4.57195e-05 -0.000615468)
(0.125043 0.000393617 -0.000729195)
(0.124889 -0.000340172 -0.00088431)
(0.12573 -0.00047451 0.000175234)
(0.122212 -4.67111e-05 0.000484)
(0.121137 0.000171513 -0.000277839)
(0.120893 -0.000694107 -0.000415126)
(0.125471 -0.000268664 0.000269251)
(0.124985 0.000278359 -0.000114551)
(0.125672 4.95802e-05 -0.000565619)
(0.124592 -0.000720186 -1.18759e-05)
(0.123555 -0.00016324 0.000119794)
(0.126123 -0.000121114 -0.00011092)
(0.123049 -0.000113035 8.44923e-05)
(0.118068 -0.000160989 -0.000282318)
(0.116995 -0.000785324 -0.000524647)
(0.125967 0.000387739 0.000629696)
(0.12246 -0.000507335 -0.000521296)
(0.122133 -0.000282827 -0.000413631)
(0.126716 0.000273007 0.00120208)
(0.125566 0.000397803 0.000313031)
(0.116401 -0.000368392 -0.000498209)
(0.116832 -0.000138865 -0.000717979)
(0.125346 -0.000298164 4.25424e-05)
(0.125015 2.20344e-06 -0.000135201)
(0.11758 -0.000277669 -0.000432531)
(0.118171 -9.73868e-05 0.000214338)
(0.125912 -0.000514896 0.000196649)
(0.120376 -0.000108112 -0.00126702)
(0.122255 -0.000167047 9.49717e-05)
(0.12311 -0.000592832 -0.000906396)
(0.125674 -7.93333e-05 9.79306e-05)
(0.118657 0.000622257 -0.00131601)
(0.127556 4.37425e-06 -1.58329e-05)
(0.124827 -0.000438134 -0.000276785)
(0.118943 -0.00128131 -0.000218684)
(0.117346 -0.000757368 0.00107848)
(0.121952 -0.00040149 -9.91727e-05)
(0.126716 -0.000193321 -0.000475834)
(0.116056 0.000304261 4.20754e-05)
(0.11799 0.000334386 -0.00105724)
(0.11733 -0.000469774 0.000185488)
(0.116272 -0.00109392 4.89327e-05)
(0.121191 0.000548544 -0.000368276)
(0.117476 0.000329932 0.000225448)
(0.126366 -0.00064785 0.000168408)
(0.126147 -0.000507368 0.000240204)
(0.117526 0.000263 -0.000881363)
(0.118593 -0.000962994 0.000309112)
(0.121736 0.000740727 -0.000528221)
(0.117834 -2.30198e-05 -4.57187e-05)
(0.123232 -0.00010968 0.000535725)
(0.126903 -0.000316525 -0.000203348)
(0.124739 -0.000739073 -0.000501847)
(0.122804 0.000620498 0.00025414)
(0.125475 0.00032882 0.000352937)
(0.123407 -0.000543942 -5.67158e-05)
(0.121454 -0.000540581 -3.89228e-05)
(0.121647 0.000145437 -4.50018e-05)
(0.122196 -0.000587658 0.000768406)
(0.120807 -3.9221e-05 0.000234693)
(0.115195 0.00101534 -0.000660924)
(0.124192 -0.000262186 8.95855e-05)
(0.126689 -2.54779e-05 -0.0002089)
(0.122149 0.000282742 0.000822974)
(0.125988 0.000179615 -0.000168112)
(0.118289 -0.000280827 0.000107333)
(0.115674 -0.000143787 0.000453152)
(0.127102 -0.000211504 -5.80164e-05)
(0.125706 -0.000217014 -0.000314176)
(0.123198 -0.000323826 0.000460422)
(0.121983 -0.000124653 0.000288421)
(0.122564 -0.000257203 -0.00045617)
(0.123467 -0.000278485 -0.000770739)
(0.123146 0.00072867 0.000420117)
(0.125237 0.000524178 -0.000479902)
(0.117943 -0.000201213 -0.000349093)
(0.12181 0.000103371 -0.000228919)
(0.126675 -0.000100214 0.000318958)
(0.125193 -0.000220205 0.000272771)
(0.124716 -0.000127679 0.000309984)
(0.122398 -0.00164887 -0.000927456)
(0.123486 -0.000610206 -0.000457127)
(0.120826 0.000107886 -0.000376935)
(0.122457 -0.000334641 -0.000477371)
(0.120737 0.000609789 -0.000701579)
(0.125836 9.05242e-05 -0.000707641)
(0.116046 -0.000117586 6.02349e-06)
(0.122587 -9.83772e-05 -0.000195223)
(0.122328 0.000367726 3.11247e-05)
(0.123871 0.000122242 -0.000315418)
(0.126251 -0.000190075 -0.000537366)
(0.12557 -0.000613592 -0.000414316)
(0.126508 -0.000229411 -0.000301179)
(0.117901 -0.00111979 -0.000358677)
(0.120945 -0.000829249 0.000482491)
(0.125393 -0.000417087 -0.000280407)
(0.126163 -0.000230267 0.000352368)
(0.12491 2.75012e-05 0.000375836)
(0.123287 -0.000490865 -0.000586207)
(0.114175 -0.000409675 0.000605075)
(0.122225 -0.000419302 0.000430452)
(0.117628 -0.000822086 -0.000305644)
(0.120642 0.000357321 0.000122289)
(0.125556 -0.000484944 0.000498589)
(0.121198 3.53043e-05 0.000580432)
(0.11656 0.000452086 -0.000270167)
(0.123404 0.000175231 0.000199194)
(0.125116 0.000620595 -0.000278607)
(0.126783 -0.00063081 -6.91006e-07)
(0.117117 -0.000384576 2.102e-06)
(0.116269 -0.000829846 0.000389279)
(0.124111 -0.00025648 0.000440858)
(0.126001 -9.74291e-05 -0.000616441)
(0.117346 -6.28195e-05 0.000490956)
(0.126003 -0.000607477 0.000312297)
(0.120674 -6.95077e-05 -0.000514063)
(0.11814 -0.000522701 0.000195868)
(0.121739 0.000295297 -0.000429064)
(0.124437 -0.000375019 0.000110037)
(0.120955 -0.000999826 -0.000210125)
(0.120082 0.000214043 0.00100887)
(0.121472 0.000430622 0.000466987)
(0.123399 -0.000106557 -0.000213019)
(0.121198 0.00040916 -0.000580448)
(0.120382 0.000892036 -0.00112752)
(0.116148 -0.000446848 0.000593686)
(0.121255 0.000199777 -0.000775122)
(0.121736 7.18955e-05 -0.000714365)
(0.119422 -5.46055e-05 6.63792e-07)
(0.121408 -0.00115843 0.00051765)
(0.126027 0.000261674 -0.000157128)
(0.126202 0.000559981 0.000227195)
(0.123477 0.000363207 -5.34892e-05)
(0.118178 0.000191869 5.43175e-05)
(0.125533 0.000330532 -0.000190533)
(0.125355 0.00031338 -0.000524638)
(0.123382 -0.000422565 -0.000272475)
(0.12711 0.0001141 0.000870674)
(0.126576 0.000132712 -0.000434886)
(0.124514 0.000173358 -0.000438533)
(0.126351 -0.000150528 5.08257e-05)
(0.120943 0.000446553 0.000298404)
(0.123168 -0.00033807 -0.000675728)
(0.116493 0.000241003 -0.00170605)
(0.121314 5.85178e-05 -1.33855e-05)
(0.125562 -0.0011759 0.00043186)
(0.120877 -8.17248e-06 0.00042852)
(0.125857 0.000426334 -0.000189731)
(0.122361 0.000471734 -0.000692659)
(0.123919 -0.000250135 0.000182902)
(0.124741 0.0003789 0.000424324)
(0.126733 -7.27688e-05 -0.000728352)
(0.123238 0.000657395 8.73343e-05)
(0.117384 0.000325061 2.09438e-05)
(0.122309 0.000297395 0.000219859)
(0.118916 0.00174939 -0.000324559)
(0.126021 -0.000416724 -0.00100094)
(0.122462 -0.000618984 -0.000565733)
(0.125928 0.00025466 -0.000512136)
(0.123814 0.000317027 1.51736e-05)
(0.121634 -0.000222991 -0.000454429)
(0.116133 -0.000106896 -1.58066e-05)
(0.118971 -5.70765e-06 -0.000588893)
(0.117812 0.000406455 0.000325301)
(0.116028 -0.000371149 0.000105783)
(0.126347 -0.000339025 -0.000473415)
(0.116504 -0.000513632 -0.000663405)
(0.123599 -0.000429363 0.00035197)
(0.123045 0.000510525 -0.000288607)
(0.122484 7.06163e-05 -0.00021609)
(0.11827 -0.000250205 -0.000340516)
(0.126231 -0.000837021 -1.43645e-05)
(0.122647 0.000128876 -0.000817994)
(0.120365 0.000174135 0.000730198)
(0.12599 9.34778e-05 -0.000432442)
(0.12439 -0.000156636 -7.03572e-05)
(0.118877 0.000545466 0.00052381)
(0.120904 0.000189316 -3.44326e-05)
(0.117994 0.000191822 -3.945e-05)
(0.122849 0.000277902 -0.000401081)
(0.121276 0.000385848 -0.000192964)
(0.117904 0.000415993 0.000961089)
(0.123025 -3.96873e-05 -0.000249282)
(0.121192 0.00112414 0.000766468)
(0.115346 4.93883e-05 -0.0013296)
(0.11529 0.00031151 0.000233303)
(0.124645 -0.000471415 0.000174899)
(0.125978 0.000123026 -8.93238e-05)
(0.12682 0.000355578 -0.000143923)
(0.116814 0.00041566 0.00039047)
(0.118478 -0.000127185 0.000629007)
(0.125138 0.000167525 0.000418557)
(0.119826 -0.00025382 -0.000282673)
(0.120142 0.000605615 -0.000897482)
(0.125016 0.000412899 0.000201308)
(0.125868 -0.000689813 -0.000101638)
(0.122645 -0.000879224 0.000222807)
(0.125902 -0.00114524 -0.000230466)
(0.126934 0.000155423 -0.000238611)
(0.117706 -0.000180853 -0.000255314)
(0.12652 -0.00136478 -0.000142994)
(0.115094 0.000177151 -0.000260403)
(0.116488 -3.62577e-05 -3.32548e-05)
(0.12631 -0.000453985 -0.000301767)
(0.125561 -0.000430079 -0.000206543)
(0.126398 2.59516e-05 -0.000829574)
(0.126832 0.00038731 -0.00113729)
(0.125701 -0.000256299 -0.000884756)
(0.118889 0.00137941 -0.000605091)
(0.120785 -0.00118454 0.000785002)
(0.121512 -0.000190963 -0.000330761)
(0.124463 -0.00102678 0.000186219)
(0.12647 0.000990639 0.00094358)
(0.12711 -0.00091777 0.000369207)
(0.122246 0.000204135 -0.000268476)
(0.119883 -0.00115982 0.000449073)
(0.122161 2.88612e-05 -0.000158662)
(0.125617 -0.00016465 -0.000152435)
(0.125386 -0.000199887 -0.00104337)
(0.12144 9.24713e-05 -0.000223995)
(0.124126 -0.000215581 -4.50832e-06)
(0.121652 0.000647511 -0.000702887)
(0.1221 -0.000467143 -0.000424892)
(0.12443 -0.000467529 0.000498806)
(0.120217 -0.00125617 0.00113098)
(0.117713 -0.000130886 -5.36087e-05)
(0.123328 0.000875244 -0.000367663)
(0.124407 0.000111419 0.000658212)
(0.121695 0.000390068 -0.000189465)
(0.12468 0.000398384 0.000441926)
(0.125792 -0.000390082 0.000351654)
(0.122645 0.000127326 -0.000472704)
(0.118382 5.21298e-05 -0.000566792)
(0.121901 0.000504219 -0.000419306)
(0.121039 0.000505035 0.000570669)
(0.116571 0.00021227 -0.000478649)
(0.125542 -0.000775303 0.000304303)
(0.116231 0.000654898 0.00046314)
(0.124813 -0.000160552 -0.000470453)
(0.126562 -0.000746737 -0.000373089)
(0.117276 -0.000396117 0.000211834)
(0.122743 0.000392491 7.09694e-05)
(0.121215 0.000465974 0.000429468)
(0.117101 -0.000353063 -7.41457e-07)
(0.124313 -0.000198203 -0.000302252)
(0.118563 6.57542e-05 -4.32987e-05)
(0.122679 3.7043e-05 0.00078853)
(0.126163 0.000276955 9.09972e-05)
(0.124567 0.000158737 0.00013814)
(0.116308 0.000356519 0.000100175)
(0.124897 0.000389676 5.90633e-05)
(0.118415 0.000151969 -0.000416154)
(0.124861 -2.86774e-05 8.99677e-06)
(0.124798 0.000215236 0.000234407)
(0.125353 -9.23627e-05 -0.000631586)
(0.126103 -0.000143111 -0.000587444)
(0.117291 5.46049e-05 -0.000784432)
(0.12457 -0.000686873 5.80189e-05)
(0.116564 8.71238e-05 -0.000571643)
(0.121399 6.84332e-05 -0.000482221)
(0.117515 4.14843e-05 -0.000486347)
(0.127216 -4.70941e-05 -0.000631328)
(0.125761 2.71261e-05 -0.000596564)
(0.126811 1.84989e-05 -3.56095e-06)
(0.126235 -0.000399759 -0.000590335)
(0.123885 -5.46226e-05 -0.000812375)
(0.125065 -3.99758e-05 0.000149244)
(0.121552 0.000266613 -0.000129464)
(0.12369 0.000352871 -0.000341939)
(0.122424 0.000113555 -0.000403028)
(0.118599 0.000188059 9.17102e-05)
(0.125274 4.12243e-05 -0.000496123)
(0.123248 -0.00038613 -6.09195e-05)
(0.123406 -0.000111286 -0.000329114)
(0.125548 0.000203363 0.000193208)
(0.125281 -9.94612e-05 -0.000444927)
(0.125889 3.99108e-06 0.000276057)
(0.122443 -0.000727206 0.000183708)
(0.116769 -0.000176484 0.000740154)
(0.122055 0.000175715 0.000118144)
(0.124708 0.000132566 0.000496086)
(0.123776 -0.000200243 0.000103043)
(0.11742 -0.000657538 -0.000455089)
(0.125826 0.000136072 -0.000362543)
(0.125613 -0.000201807 -0.000897923)
(0.120206 0.00037028 -0.000366977)
(0.124266 -0.000229476 -0.000495966)
(0.124906 -0.000428781 -0.00120198)
(0.124904 -0.000412673 -0.000655576)
(0.124791 -0.000412978 -0.000131172)
(0.116967 -7.07746e-05 -6.49187e-05)
(0.124159 -0.000494542 0.0001134)
(0.124513 -0.000587705 0.000236413)
(0.115148 0.000125769 0.000119409)
(0.123928 -0.00102639 -1.79389e-05)
(0.124068 -0.000346244 -0.000136365)
(0.120152 7.88743e-05 0.000384779)
(0.116039 1.42662e-05 0.000225389)
(0.115731 -0.000457252 0.000656583)
(0.121812 -0.00102068 0.000261715)
(0.115487 0.000706987 -0.000638113)
(0.122038 6.59325e-05 0.000188351)
(0.12316 -9.30428e-06 -7.15738e-05)
(0.120851 0.000568724 0.000280595)
(0.124784 0.000413227 0.000221917)
(0.116733 -0.0003472 0.000147118)
(0.124089 0.000362938 7.68006e-05)
(0.127084 0.000260128 4.61525e-05)
(0.121791 -0.000129039 8.84932e-05)
(0.124705 -0.000151444 0.000675334)
(0.122199 0.000155017 5.23221e-05)
(0.126122 0.00104293 5.298e-06)
(0.123457 0.000428951 8.8128e-05)
(0.124109 -0.000294634 -0.000704363)
(0.127152 0.000100836 -0.00043835)
(0.122593 7.73514e-05 -0.000454129)
(0.117252 0.000226506 0.000164434)
(0.12201 1.75548e-05 -0.00015435)
(0.126635 0.000194327 -0.00124427)
(0.12558 0.000249133 -0.000821641)
(0.124873 -0.000255892 0.000727524)
(0.126035 3.01577e-05 6.94185e-05)
(0.122178 -0.000733507 0.000653764)
(0.125364 -0.000224775 0.00024868)
(0.123958 0.000193789 0.000196538)
(0.125102 0.000299358 -0.000153207)
(0.125588 -0.000338145 -0.000493962)
(0.115926 -0.000470619 -0.000338758)
(0.121762 -0.000311195 0.000240126)
(0.114571 -0.000204451 0.000249202)
(0.122271 0.000625256 0.000770215)
(0.120747 -0.000126273 -0.000714933)
(0.117097 -0.000322769 0.000746997)
(0.116358 -0.000514647 -0.000293177)
(0.123191 0.000380514 -0.000253847)
(0.124134 -0.000439912 -0.000276666)
(0.125919 -1.41635e-05 -0.000601701)
(0.117783 -0.000239997 0.000727008)
(0.124875 1.10035e-05 -5.94335e-06)
(0.122791 -4.27728e-05 0.000322694)
(0.122247 -0.000204067 -0.000459597)
(0.12414 2.183e-06 -0.000664836)
(0.115463 -0.000820134 0.00169853)
(0.122231 -0.000107717 -0.000492189)
(0.116682 0.000124574 0.000344008)
(0.120447 -0.00050884 -0.000445998)
(0.124973 -0.000145893 1.59767e-05)
(0.127449 0.00135194 0.000340225)
(0.125195 0.000213594 -0.00110515)
(0.123731 0.000528827 -0.000703585)
(0.115452 0.00026334 0.00147534)
(0.12469 -0.00011241 0.000124237)
(0.123696 -0.000203602 -0.000537377)
(0.125168 -0.000215443 -0.000359054)
(0.116222 -6.07715e-05 1.84562e-05)
(0.118717 -0.000182912 0.000665465)
(0.121146 0.000480337 0.00064337)
(0.118758 0.00041501 -0.000231847)
(0.115153 -0.000726281 -0.000215213)
(0.125192 -9.19755e-05 -0.000401333)
(0.118328 -0.000140511 0.000137664)
(0.121186 0.000876252 0.000116298)
(0.11692 -0.000335746 -0.00102128)
(0.124678 0.000371789 6.69054e-05)
(0.117584 0.000149488 -0.000352374)
(0.126135 -0.000227514 0.000644727)
(0.124585 9.63699e-05 -0.00046919)
(0.126241 -6.70312e-05 0.000553575)
(0.126316 -0.000147297 -0.00049714)
(0.117973 2.35493e-05 0.000218133)
(0.125394 4.34555e-05 0.000229094)
(0.126645 -0.000295236 -4.29983e-05)
(0.123767 -0.000492577 0.000489496)
(0.124622 0.000569869 -0.000234255)
(0.123712 -0.000463037 -0.000253794)
(0.125998 0.000431582 -0.00013726)
(0.124893 1.53376e-05 0.000202901)
(0.120794 4.83844e-05 -0.000398747)
(0.127506 -0.000242983 -3.59638e-05)
(0.126879 -0.000385814 -0.000394699)
(0.122841 -0.000305557 -0.000341349)
(0.12232 -0.000262757 -0.000779532)
(0.126023 -0.000395529 -0.000227838)
(0.123233 0.000424769 7.1548e-05)
(0.115326 0.000721549 -0.000193972)
(0.115666 0.00044771 -4.77373e-05)
(0.12238 3.35224e-05 3.13972e-05)
(0.125407 -8.41547e-05 0.000301562)
(0.126794 -0.000198178 -0.00023904)
(0.120615 -0.000192024 -0.000143504)
(0.125722 0.000622924 0.000248595)
(0.124473 1.66016e-05 7.38812e-05)
(0.125892 0.00092138 0.000776486)
(0.12291 2.36562e-05 -0.000182492)
(0.123296 0.000560262 -0.000529987)
(0.124197 -0.00162396 0.000443759)
(0.116848 -1.83009e-05 -0.000289027)
(0.12214 0.000185382 5.82975e-06)
(0.124366 2.05073e-06 -0.000388233)
(0.126237 -9.33411e-06 5.71987e-05)
(0.118476 -9.81139e-05 8.88157e-05)
(0.119373 0.00068633 -0.000865209)
(0.120328 -8.78463e-05 -0.000337803)
(0.12019 -0.000300931 -6.76968e-05)
(0.122049 -0.000201911 -0.000551752)
(0.116575 -0.000124892 -0.000345963)
(0.125436 0.000109631 -0.000920449)
(0.12137 -5.3662e-05 -0.000241447)
(0.124778 0.000132124 0.00113195)
(0.122266 -0.0002843 -8.29766e-05)
(0.126702 -0.000262201 -0.000241226)
(0.123257 -0.000342507 -0.000958427)
(0.11704 0.000185759 0.000591421)
(0.124064 0.00077243 1.02803e-05)
(0.127006 -0.000365834 -0.00104128)
(0.117749 0.000429475 0.00121621)
(0.125877 -0.000206109 -0.000753228)
(0.127904 -0.000855732 -0.00071986)
(0.123047 -0.000177234 -8.94045e-05)
(0.121373 0.000223979 0.000203874)
(0.124624 0.000555167 -0.0012845)
(0.120522 -5.09194e-05 5.80595e-05)
(0.122536 -0.000475983 0.00010358)
(0.122269 0.000133405 0.000310316)
(0.117596 -0.000146375 -1.601e-05)
(0.117998 -0.000185013 -0.00116859)
(0.121508 0.000182467 0.000524026)
(0.120657 0.000651287 0.000158976)
(0.12541 -0.000166893 -0.000293829)
(0.120402 -0.000438279 0.000272788)
(0.122152 0.000473363 0.000418436)
(0.126382 0.000252135 0.000419108)
(0.121306 0.000198399 -2.58659e-06)
(0.116004 0.000199909 0.000409091)
(0.120707 0.0003563 0.000264887)
(0.122587 0.000453072 -0.000357778)
(0.1268 -0.000180867 0.000291639)
(0.116755 0.000755711 0.000372809)
(0.116423 -0.000131965 0.00031626)
(0.126509 0.000319327 0.000943813)
(0.116885 0.00028473 -4.86533e-05)
(0.123647 -2.5744e-05 -9.31043e-05)
(0.125355 0.000203401 -0.000286274)
(0.118434 -0.00014223 -0.000890584)
(0.122565 1.21921e-05 -0.000474608)
(0.126156 0.000557721 -0.000873547)
(0.122651 -0.00011859 0.000620693)
(0.115171 7.60215e-05 0.000245573)
(0.125666 0.000279872 -0.000217957)
(0.12282 -8.21873e-05 -0.000223266)
(0.115593 0.000559538 9.16291e-05)
(0.126101 0.000294199 -0.000259925)
(0.12078 -0.000185527 -0.00035284)
(0.121776 0.000643452 -0.000381481)
(0.124444 -1.22652e-05 -0.000175594)
(0.115814 0.000847027 -0.000456823)
(0.121577 -0.000125273 -0.00106319)
(0.121026 -0.000868801 -0.00011008)
(0.122932 -7.98681e-05 -0.000507714)
(0.118578 -0.000132077 0.000447346)
(0.120358 -8.74338e-05 -9.5464e-05)
(0.124567 0.000525172 0.000588218)
(0.126953 -0.000979909 -0.000676185)
(0.128372 -0.00035809 -0.000143695)
(0.126829 0.000566008 -0.000463877)
(0.125968 -0.000636563 -0.000207569)
(0.125112 5.11939e-05 -0.00128458)
(0.12001 -0.000265869 0.000511974)
(0.127449 0.000136304 -0.00117224)
(0.125201 -5.04516e-05 4.64585e-05)
(0.124013 0.000478938 8.48097e-05)
(0.118605 0.000794808 -0.000423974)
(0.123144 -0.000145012 -0.000215546)
(0.124541 0.000528136 0.000620393)
(0.128145 0.000922269 1.48985e-05)
(0.116662 -0.000125657 0.000355567)
(0.115302 -0.00037794 0.000434833)
(0.126039 0.00026959 -0.000649659)
(0.120649 2.64284e-05 -0.000324466)
(0.12624 0.000118847 -6.07761e-05)
(0.121475 0.000237612 -0.000540338)
(0.118435 -0.000403156 -0.000856976)
(0.124219 -0.00015936 -0.00091595)
(0.125802 0.000396013 6.5818e-06)
(0.123844 0.000272581 0.000159758)
(0.125397 0.00103864 -0.000341856)
(0.117388 -4.72445e-05 -0.001826)
(0.125451 0.000940639 0.000236044)
(0.125229 -0.000401714 -0.000494957)
(0.116058 0.000390128 -0.000104782)
(0.124748 -0.000224202 -0.000545788)
(0.124559 -0.000229984 4.11958e-05)
(0.122162 -0.000480875 0.00143408)
(0.117716 -0.000587834 -0.000981014)
(0.116083 0.000294131 -0.000877601)
(0.122301 0.000288635 -0.000265939)
(0.122029 -1.29642e-05 0.000993645)
(0.122822 -0.000166923 0.000193186)
(0.121968 0.000592055 0.000118252)
(0.121378 0.000516636 0.000791657)
(0.125595 9.55534e-05 0.000140649)
(0.12301 -3.03969e-05 0.000299)
(0.123214 0.000487682 0.000316103)
(0.118663 -0.000270663 0.000723842)
(0.126699 -6.21793e-05 -0.00104184)
(0.116935 -0.000225311 6.13084e-05)
(0.12248 0.000652784 -3.15862e-05)
(0.12199 0.00026396 -0.000141651)
(0.122554 -0.000743086 -0.000795125)
(0.124312 0.000498599 -7.78361e-05)
(0.120722 2.97598e-05 -0.00047691)
(0.117234 -0.00093882 -0.000545612)
(0.11609 -0.000235156 -0.00062042)
(0.117654 -0.000334682 -0.00032191)
(0.122252 -0.000538127 -0.000365358)
(0.124631 0.000715472 0.000222551)
(0.116895 0.000521848 0.00197723)
(0.125385 -0.000138934 -9.13341e-06)
(0.122902 -3.81681e-05 -0.000850816)
(0.126224 -0.000433597 -0.000386155)
(0.11657 9.87774e-05 -0.000768847)
(0.120383 0.000361778 0.000581559)
(0.12484 0.000287387 -0.00100542)
(0.126586 -0.00100327 -6.408e-05)
(0.124722 0.000421052 -0.000405715)
(0.125867 -0.000225183 -0.000293494)
(0.123089 0.000180835 0.00015885)
(0.122323 0.000400553 0.000186682)
(0.126932 3.85211e-05 0.000197744)
(0.126623 0.000470005 -4.23673e-05)
(0.12624 0.000270897 3.98971e-05)
(0.119004 0.00102809 -0.000517456)
(0.126417 -0.000940409 -0.000747085)
(0.1161 -0.000257734 0.000482966)
(0.126496 0.000738831 0.000115208)
(0.123611 8.35962e-06 -0.000175383)
(0.122388 0.000301237 -0.000635799)
(0.117613 0.00101474 -3.24336e-05)
(0.122332 0.00115688 -0.000862583)
(0.114771 -0.000673429 -0.000980817)
(0.12558 0.000455597 -0.000691097)
(0.122911 0.000222855 -0.000279706)
(0.125573 -0.000182309 -0.000282457)
(0.121844 0.000434004 -0.000225026)
(0.121017 0.00120571 -0.000375626)
(0.11689 -0.000331602 0.000807493)
(0.12725 0.000311593 -0.000113237)
(0.11837 -0.000595171 0.000365004)
(0.115171 -0.000295289 -0.000320474)
(0.118173 -0.000165869 -3.50359e-05)
(0.11846 0.000524652 0.00025352)
(0.117264 0.000700125 -0.000106293)
(0.122439 -0.00034917 9.22155e-05)
(0.117241 0.000121626 -0.000132909)
(0.124469 -0.00124966 0.000623846)
(0.125044 3.65315e-05 -0.000431273)
(0.115081 -0.000119411 -7.96119e-05)
(0.124465 0.00021381 -0.00020577)
(0.117217 0.000254063 -0.000765727)
(0.122052 0.000590486 -0.000248465)
(0.122741 0.000289778 -0.000238483)
(0.122554 -0.00037523 -0.000985445)
(0.12524 0.000158972 -4.44285e-05)
(0.127202 0.000338711 -0.00090631)
(0.125366 -7.00431e-05 0.000280813)
(0.124373 3.32381e-05 -3.66029e-05)
(0.124099 -0.000259513 -0.00118899)
(0.124744 0.000300637 0.000134994)
(0.121701 0.00041711 -5.31986e-05)
(0.122293 0.00048247 0.000239617)
(0.115785 0.000523228 -0.000909237)
(0.111031 0.000112169 0.0034475)
(0.12579 8.62701e-05 1.35528e-05)
(0.122358 8.89969e-05 -0.000226961)
(0.125222 -0.000310828 -0.000112247)
(0.124847 -9.90697e-05 0.000286378)
(0.116409 -0.000604311 -5.1376e-05)
(0.125834 -0.000135804 -0.000235906)
(0.126104 0.000615244 0.000134323)
(0.125829 4.32309e-05 0.000170639)
(0.125723 0.000412944 0.000565946)
(0.123979 0.000354228 0.000456065)
(0.123453 -0.000560263 -0.000151477)
(0.125607 -9.58899e-05 0.000189604)
(0.126731 -0.000164162 0.000655864)
(0.123606 0.000288296 0.000328856)
(0.1263 0.000360738 -0.000279398)
(0.125795 -0.000406674 -0.000436352)
(0.118979 -0.00033627 -0.000487684)
(0.12576 -0.000110133 0.000281369)
(0.1197 -0.00025564 0.000528419)
(0.122777 0.000177329 -0.000276846)
(0.12266 -0.000943364 0.000134772)
(0.122125 -0.00051588 0.000323423)
(0.121865 0.000748063 0.000144669)
(0.124822 0.000420282 2.00167e-06)
(0.122343 9.77244e-06 -2.33254e-05)
(0.123308 0.000534951 -0.0006681)
(0.122063 0.00126334 -0.000672957)
(0.116241 0.00144852 -0.00102805)
(0.127087 0.00054214 -0.000320664)
(0.124898 0.000687679 -0.000144492)
(0.121767 5.31683e-05 0.000807423)
(0.11689 -0.000370858 1.47565e-05)
(0.125016 -0.000366537 -4.95358e-05)
(0.116534 -0.00059139 -0.000533507)
(0.126003 -0.00031913 0.00016888)
(0.125729 -7.95342e-05 0.000270629)
(0.120877 0.00128571 -0.000613874)
(0.124756 -0.000272205 0.000221758)
(0.126519 0.000113026 -0.000422477)
(0.12355 -0.000515325 -0.000247372)
(0.115874 -2.95755e-05 0.000281372)
(0.122293 0.000182544 0.000415991)
(0.119531 0.000674789 -0.000350006)
(0.122472 0.000294775 -0.000320781)
(0.116393 -0.000514905 -0.000951093)
(0.124813 -7.36217e-05 -0.000417781)
(0.125199 -0.000450392 0.000696212)
(0.120403 0.000891144 -0.000778401)
(0.122214 0.000165686 4.32218e-05)
(0.119442 0.000253787 -0.000576484)
(0.125439 2.67699e-05 -0.000435248)
(0.121926 -0.000752579 6.01926e-05)
(0.122761 0.000572632 0.000542805)
(0.116893 -0.000175105 0.000106123)
(0.125519 9.42755e-06 4.53275e-05)
(0.123855 -0.000353971 -0.000110501)
(0.125731 -5.1112e-05 -0.000192482)
(0.119711 0.00044881 -0.000315243)
(0.122138 -5.02081e-05 -0.000313049)
(0.123297 0.000104105 -0.000281808)
(0.121036 -0.000244594 0.000275249)
(0.12364 -7.15255e-05 0.000419901)
(0.123231 -0.000330998 0.000628997)
(0.125128 -0.000397797 0.000130646)
(0.122409 -0.000115633 -0.000127519)
(0.1175 -3.80772e-05 -0.000188317)
(0.115353 -0.000167275 -0.000741907)
(0.123899 -0.000763244 0.000209193)
(0.116299 0.000518984 -0.00138422)
(0.120715 -0.000724178 -0.00153382)
(0.122436 0.000259227 -0.000315117)
(0.122574 0.000300615 0.000170412)
(0.126569 0.000371141 -0.000407495)
(0.116158 8.54117e-05 4.44848e-05)
(0.121516 -0.00012211 -0.000715202)
(0.127065 0.000124166 -0.000465343)
(0.117967 0.000787847 -0.00291537)
(0.11813 0.00134559 7.86007e-05)
(0.121772 0.000277702 -0.000869101)
(0.117863 0.000200703 2.86273e-05)
(0.124447 0.000943091 -0.00106452)
(0.118224 -0.000344545 4.90933e-05)
(0.12652 -0.000850351 -0.000416734)
(0.120162 0.000321276 0.00043948)
(0.121481 0.000648222 0.000502262)
(0.127607 0.000503825 0.000935292)
(0.115401 -8.75923e-05 0.000586263)
(0.120203 7.00767e-05 0.000389917)
(0.120312 3.71038e-05 0.000601636)
(0.125647 -3.91862e-05 -0.000783103)
(0.125774 1.45331e-05 0.000415328)
(0.126048 4.09598e-05 -9.27166e-05)
(0.117149 0.0008114 0.000326967)
(0.124621 0.000175524 -0.000185685)
(0.125454 5.88281e-05 0.00105654)
(0.120505 2.71997e-05 -0.000271724)
(0.125642 0.000385118 -0.000122119)
(0.125144 0.000444875 0.000222616)
(0.124984 0.000394303 2.20213e-05)
(0.126213 0.000125927 -0.000654024)
(0.12229 9.13287e-05 -0.00012613)
(0.127123 -2.71536e-05 0.000491349)
(0.126702 0.000732031 0.000910014)
(0.125859 0.00010194 -0.000827743)
(0.12349 0.000461427 0.000286852)
(0.121647 -0.000252583 -0.000237068)
(0.122434 0.000460548 0.000143917)
(0.122127 0.000198067 -0.000283976)
(0.115573 -0.000950851 -0.000299992)
(0.121265 -0.000147017 0.000186585)
(0.12372 -0.000355733 0.000391969)
(0.125594 -0.000364851 -0.000277251)
(0.126536 -0.000267012 -0.000864095)
(0.121495 -0.000491558 -6.20491e-05)
(0.127057 0.00120514 -0.000278486)
(0.124663 -8.24057e-05 -8.43835e-05)
(0.1205 -0.000677389 0.000461243)
(0.125609 -0.000185216 -0.000436676)
(0.12595 -5.49332e-06 -0.000213131)
(0.124707 0.000127335 -0.000653627)
(0.12484 0.00027099 3.5262e-05)