/*--------------------------------*- C++ -*----------------------------------*\
| =========                 |                                                 |
| \\      /  F ield         | OpenFOAM: The Open Source CFD Toolbox           |
|  \\    /   O peration     | Version:  2212                                  |
|   \\  /    A nd           | Website:  www.openfoam.com                      |
|    \\/     M anipulation  |                                                 |
\*---------------------------------------------------------------------------*/
FoamFile
{
    version     2.0;
    format      ascii;
    arch        "LSB;label=32;scalar=64";
    class       surfaceVectorField;
    location    "0.058";
    object      Uf;
}
// * * * * * * * * * * * * * * * * * * * * * * * * * * * * * * * * * * * * * //

dimensions      [0 1 -1 0 0 0 0];

internalField   nonuniform List<vector> 
68568
(
(0.124219 0.000172783 -0.000135551)
(0.123407 0.000542032 -0.000236267)
(0.123069 0.000335886 -3.94439e-05)
(0.12587 0.000781445 -0.000404946)
(0.123277 -0.000485816 -0.000217903)
(0.123281 -0.000517747 -0.000489946)
(0.121895 -0.000502181 5.31035e-05)
(0.115049 -0.000270104 -0.00025231)
(0.124844 0.000207852 0.000347353)
(0.124577 -0.000507809 0.00075201)
(0.122901 -0.000263767 6.38883e-05)
(0.118553 -0.000702768 0.000796424)
(0.127302 -0.000193518 -0.000193699)
(0.12607 -7.97219e-05 -0.000475882)
(0.127036 -0.000144232 -0.000352605)
(0.127458 -0.000243667 -0.000374418)
(0.121525 -0.000205505 -0.000268356)
(0.124736 -0.000508078 -0.000310616)
(0.120828 -0.000232494 -0.000307759)
(0.12434 -0.000510306 -0.000363957)
(0.123985 -0.000238916 -2.95884e-05)
(0.122308 -0.000138694 0.000139961)
(0.124238 -0.000148322 0.000163089)
(0.116491 -0.000153749 -0.00030481)
(0.123236 -7.61705e-05 -0.000125048)
(0.118166 -0.000241306 0.000237093)
(0.120241 4.8055e-05 -0.000445922)
(0.123346 -0.000125818 -0.000205771)
(0.123067 0.000232442 0.000535092)
(0.125525 0.00010115 0.000132494)
(0.124158 -7.45497e-05 6.2176e-05)
(0.124637 -0.000160003 -0.000378241)
(0.123256 0.000143276 -0.000259245)
(0.123347 0.000360417 -0.000642772)
(0.125434 -0.000252978 -7.15177e-05)
(0.123868 -0.000619222 -0.000331421)
(0.125908 -0.000166623 -0.00055255)
(0.126096 -0.000583225 -0.000396392)
(0.126276 0.000458407 0.000129052)
(0.124789 0.00028872 -1.1787e-05)
(0.126131 0.000261933 -5.2849e-05)
(0.121973 -0.000112328 -0.000532805)
(0.126493 -0.000438408 -0.00076848)
(0.126019 -0.000598913 -0.000684915)
(0.123372 -0.000325525 9.30028e-05)
(0.12217 -0.000553833 -5.85763e-06)
(0.115535 -3.5988e-05 -0.000340652)
(0.125909 -0.000200067 -0.000101989)
(0.125731 -0.000170998 0.000315565)
(0.124754 -0.000224405 0.000238957)
(0.122737 -8.51049e-05 0.000217786)
(0.120883 -0.000361529 4.88789e-05)
(0.122793 -0.000297861 -7.97843e-05)
(0.12195 -0.000266231 1.70182e-05)
(0.115172 -0.000312574 -3.31466e-06)
(0.123491 -0.000470136 0.000863312)
(0.118338 -0.000428864 0.00060788)
(0.120266 -0.000428121 0.000810808)
(0.123881 -0.000350952 0.000282892)
(0.122699 0.000230754 0.000199789)
(0.123798 0.000423814 0.00020915)
(0.123223 0.000373357 0.000166922)
(0.125037 0.000184724 0.000111395)
(0.11839 0.000475081 0.000440627)
(0.118547 -0.0003169 0.000676468)
(0.122876 -4.45758e-05 0.000235839)
(0.123192 -8.85374e-05 -0.000608166)
(0.120235 -0.00052236 -3.12226e-05)
(0.118954 9.92622e-06 -0.000722467)
(0.123682 -0.000305024 -0.000347124)
(0.123072 1.0966e-05 -0.000203495)
(0.12482 -0.000313484 -7.74852e-05)
(0.124314 -0.000510453 1.75496e-06)
(0.117975 -0.000118858 -0.000136675)
(0.117641 -0.000231189 -0.000372715)
(0.11955 6.04086e-05 -0.000319988)
(0.118058 0.000251227 -0.000336837)
(0.106256 -0.000185218 -0.00046242)
(0.125007 -0.000469242 -0.000558687)
(0.126598 -0.000226745 -0.0006554)
(0.125615 -0.000352495 -0.000651969)
(0.126111 -0.000383392 -0.000760053)
(0.125354 0.000353812 -0.00021651)
(0.125476 0.000472436 -0.00010679)
(0.122961 0.000474905 2.45431e-05)
(0.126298 0.000530298 -0.000234519)
(0.119593 0.000341683 -0.000318308)
(0.120042 -0.000101777 -0.000319842)
(0.123037 0.000179989 -0.000475904)
(0.1235 8.06664e-05 -0.00011038)
(0.117298 -7.20376e-05 4.88873e-05)
(0.122075 -0.000194588 -0.000128756)
(0.119381 0.000185687 -0.000548321)
(0.122096 -0.000202598 0.000250435)
(0.122715 -7.44913e-05 -7.454e-05)
(0.122722 -0.000533098 0.000188753)
(0.124996 -0.000371365 0.000822221)
(0.122709 -0.00013684 -0.000356997)
(0.124312 -0.000215182 -0.000225931)
(0.117492 -0.000165312 0.000246564)
(0.125074 0.00138505 0.000373447)
(0.122555 0.00161486 -0.000427366)
(0.124653 0.00162261 0.000200768)
(0.122729 0.0012361 -0.000758299)
(0.124166 9.89942e-05 0.000519169)
(0.117409 0.00038366 -0.000256051)
(0.119481 0.000490223 0.000202805)
(0.12605 -2.01319e-05 0.000423051)
(0.125114 -0.000237049 0.000346762)
(0.126156 -0.000161334 0.000404526)
(0.126623 -0.000310116 -0.000172274)
(0.124531 -6.42116e-05 4.33691e-05)
(0.126802 -0.000249746 -0.000146445)
(0.123955 -0.000146437 -0.000161944)
(0.122712 -0.000136813 -0.000252698)
(0.122814 -9.26783e-05 -0.000407656)
(0.118701 0.000400835 -0.000100771)
(0.118175 -0.000271523 0.000331953)
(0.125514 0.000344939 -0.000465257)
(0.124721 2.85719e-05 -0.000259889)
(0.125818 2.36581e-05 -0.000432645)
(0.126183 -2.42822e-06 -0.000236284)
(0.119734 -0.000122517 -0.000230407)
(0.118439 -0.000236348 0.000140399)
(0.123441 -0.000190852 5.91263e-05)
(0.123668 1.71165e-05 0.000156916)
(0.120062 0.000451857 0.000345142)
(0.117497 0.000327916 0.000367663)
(0.117484 0.000228423 -4.76743e-05)
(0.107264 0.000176552 0.000324791)
(0.125982 0.000451448 -2.49226e-06)
(0.117168 -8.95764e-05 -0.000120894)
(0.117472 -0.00056978 -0.000275704)
(0.114733 -0.000307874 6.90883e-05)
(0.106464 -0.000356199 -6.90221e-05)
(0.126541 -0.000518385 0.000273264)
(0.126574 -0.00066825 0.000151781)
(0.12678 -0.000252893 0.000430225)
(0.126028 -0.000673098 0.000260396)
(0.124084 -0.00029741 0.000333593)
(0.12419 -0.00037358 0.000575446)
(0.125912 -0.000426694 0.000620994)
(0.115946 0.00059848 -0.000554224)
(0.117336 -0.000353996 -0.000112134)
(0.107598 4.29978e-05 -0.000150089)
(0.121205 -0.00011455 -7.83348e-05)
(0.118278 -0.000108797 -0.000377464)
(0.107617 0.000133599 -0.0005088)
(0.119442 -0.000288498 4.8754e-05)
(0.119462 -0.000579011 -0.0001871)
(0.12058 -0.000515914 -0.000174856)
(0.106921 -0.000378967 6.58361e-05)
(0.125666 -0.000279831 0.000202002)
(0.123281 -0.000264816 9.69848e-05)
(0.125143 -0.000381755 -0.0005297)
(0.126264 -0.000916039 -0.000432519)
(0.124765 -0.000803876 -0.000790609)
(0.126498 -0.000603896 -0.000918172)
(0.125541 -0.000612011 0.00061572)
(0.126024 -0.000794001 0.000221455)
(0.12535 -0.000394891 0.000338522)
(0.126739 -0.000691496 -0.000216052)
(0.125106 -0.000771256 -1.79235e-05)
(0.124413 -0.000451599 -0.000329207)
(0.126624 -0.000313915 -0.000519525)
(0.122064 6.66777e-05 -0.000346982)
(0.119956 0.000658614 -0.000507491)
(0.113925 -9.87978e-06 -0.000378365)
(0.123984 0.000409446 -0.000446277)
(0.124346 2.1661e-05 -0.000331824)
(0.121377 0.000267355 -0.000740371)
(0.119839 0.000146992 -0.000216948)
(0.122306 -0.000214727 0.000269754)
(0.122039 1.82251e-05 5.98284e-05)
(0.124459 2.5334e-05 -0.000269072)
(0.123213 -0.000202777 0.00014287)
(0.125946 -0.000132954 -0.000325263)
(0.124311 -0.000346266 -0.00059167)
(0.124582 -1.16963e-06 -0.000496359)
(0.126565 7.36355e-05 -0.00091583)
(0.127047 -0.000160787 -0.000445844)
(0.120051 -0.000375727 -0.000610407)
(0.117407 -9.00643e-06 -0.000296668)
(0.118304 -2.55391e-05 -0.000193446)
(0.105825 -3.18285e-05 -0.00038822)
(0.124978 0.000757629 0.000161924)
(0.124187 0.00065722 0.000259347)
(0.125826 0.000723821 0.000211199)
(0.125367 0.000549222 6.14826e-05)
(0.116725 -0.000548615 0.000176961)
(0.10719 -0.000195443 0.000479441)
(0.120945 -0.000227104 -0.000285755)
(0.120823 -0.000507833 -1.25778e-05)
(0.124472 -0.000294609 -0.000328459)
(0.124526 -0.000403696 -8.07123e-05)
(0.121776 0.000302618 0.000118756)
(0.122509 0.000138432 9.62422e-05)
(0.124651 -6.75251e-05 -0.000179184)
(0.119496 -0.000110154 -0.000714468)
(0.11797 -9.56196e-05 -0.000304066)
(0.119732 0.000125671 -8.10782e-05)
(0.106962 0.000366167 -0.000200688)
(0.124814 0.000122759 0.000491552)
(0.124272 -0.00025304 0.000129821)
(0.122993 -2.31463e-05 0.000450268)
(0.117969 -3.56982e-06 0.000374441)
(0.12436 -0.000251785 0.000202151)
(0.122857 9.08781e-05 0.000504802)
(0.124347 -6.63876e-05 -5.62478e-06)
(0.116755 9.93971e-05 0.000288401)
(0.117083 5.84027e-05 -0.000175239)
(0.117299 0.000545769 -0.00017776)
(0.107893 0.000227923 -0.000141429)
(0.123335 -0.000553173 -0.000559621)
(0.12299 -4.94972e-05 -0.000393836)
(0.123244 -0.000179953 -0.000219868)
(0.125451 0.000367326 5.5942e-05)
(0.123915 0.000448188 0.000101498)
(0.126235 0.000142922 -0.000200425)
(0.124634 0.000224345 -0.000269822)
(0.12307 -0.000235507 -0.000384669)
(0.119964 -0.000324779 -0.00051396)
(0.119991 -0.000308626 -0.000272804)
(0.107916 -0.000368208 -0.000174296)
(0.124223 -0.000171635 -0.000179576)
(0.124314 -4.46734e-05 6.2055e-05)
(0.115947 -6.24831e-05 -0.000297801)
(0.122818 0.000194694 0.000169201)
(0.123141 0.000456599 0.000325224)
(0.124779 0.000515254 0.000381258)
(0.123297 0.000496769 0.000458352)
(0.126529 -0.000193659 -0.000610949)
(0.126875 -0.000244788 -0.000503323)
(0.126738 -0.000385281 -0.000441866)
(0.126191 -0.000290884 -0.000365573)
(0.122402 0.000197761 -0.00110675)
(0.124902 6.26564e-05 -0.000936989)
(0.125609 -0.000405048 -0.000747488)
(0.122583 -0.000494656 2.90921e-05)
(0.12415 -0.000277807 4.17077e-05)
(0.122517 -0.000126586 0.000271434)
(0.117071 -3.29188e-05 -0.000241442)
(0.119813 -0.000990319 -0.000563165)
(0.120544 0.000322237 -0.000473622)
(0.107043 -7.72556e-05 -0.000467239)
(0.126402 0.000294461 7.40692e-05)
(0.12683 0.000241948 -0.000317092)
(0.126458 2.84009e-05 -8.75722e-05)
(0.127072 6.71162e-05 -0.000485204)
(0.125401 0.000280951 0.000168699)
(0.123027 0.000298882 0.000276977)
(0.124425 0.000111242 0.000318101)
(0.124486 0.000178258 -3.6633e-05)
(0.120137 0.0002661 -0.0012439)
(0.119466 0.000338676 -0.000593946)
(0.121308 0.000215247 -0.000876376)
(0.11052 -0.000577795 -0.000884447)
(0.123357 -0.000274444 -0.00066886)
(0.123455 -0.000293715 -0.000881899)
(0.125789 -0.000312165 -0.000464602)
(0.12537 -0.000263802 -0.000620926)
(0.124865 -0.000305271 -0.000194291)
(0.122964 -0.000454037 -0.000368549)
(0.122996 -3.55491e-05 -6.75603e-05)
(0.117432 2.79796e-05 -0.00062961)
(0.125135 0.000723749 0.000279641)
(0.124634 0.000786057 5.02597e-05)
(0.123603 0.000565921 -0.000122994)
(0.117639 6.17527e-05 -0.000642451)
(0.117058 0.000252525 -0.000377579)
(0.119088 0.000405556 -0.000621429)
(0.106288 0.000465356 -8.46891e-05)
(0.12547 -0.000609943 -0.000104622)
(0.125065 -0.000604262 0.000179237)
(0.126805 -0.000490252 8.04993e-05)
(0.120522 0.00108965 -0.000600312)
(0.124308 -1.65197e-05 -0.000433639)
(0.123657 0.000132919 -0.000439202)
(0.122493 -0.00034507 0.00054716)
(0.123004 -5.50238e-05 0.000290678)
(0.123466 -3.17351e-05 0.000401022)
(0.115999 -0.000177079 0.000376214)
(0.119801 -0.000259846 -0.000141862)
(0.12536 -7.34771e-05 0.000123462)
(0.122922 0.000182599 0.000125364)
(0.1253 0.000414848 -6.16278e-05)
(0.117966 0.000297982 -0.000375899)
(0.122383 -0.000180681 -0.000161085)
(0.122663 -9.79816e-05 -4.22713e-05)
(0.114505 -0.0002049 -0.000356003)
(0.115728 -0.000175429 0.000254714)
(0.115372 -0.000452198 0.00010822)
(0.107116 -0.000312388 0.000134498)
(0.126773 -0.000108417 0.000200376)
(0.124588 -0.000187641 -0.000125644)
(0.126665 -0.000409897 0.000181475)
(0.12571 -0.000605848 0.000230351)
(0.125333 -0.000504784 -0.000341328)
(0.124825 -3.34074e-05 -0.000196107)
(0.124608 -7.00645e-05 -0.000325454)
(0.116492 -0.000147285 3.95089e-06)
(0.122248 -0.000362529 -7.15159e-05)
(0.124537 -0.000382483 -9.8914e-05)
(0.125125 -0.000197175 -0.000162934)
(0.122208 -2.39375e-05 0.000159271)
(0.126564 -0.00029707 -0.000169924)
(0.124307 -0.000231182 -0.000323153)
(0.124502 -2.03063e-05 2.42822e-06)
(0.126521 -0.000365293 -7.49663e-05)
(0.12657 -5.54494e-05 0.000201842)
(0.1261 -0.000297126 2.5743e-05)
(0.126934 -0.000257371 -0.000160492)
(0.124544 -0.000176875 -0.000272786)
(0.12423 -0.000296535 -0.000508563)
(0.126399 -0.000127698 -0.000631408)
(0.117382 0.00142961 -0.00098262)
(0.121061 8.43347e-05 -0.00141489)
(0.11977 0.000548746 -0.000899133)
(0.104545 9.26706e-06 -0.000316619)
(0.125082 -0.000108153 -0.000273474)
(0.12503 -0.000219124 -0.000342692)
(0.126547 -0.000135026 -0.000575522)
(0.123354 -0.00032394 0.000201567)
(0.125252 -0.000251994 3.02249e-05)
(0.116447 -0.000115294 -0.000119793)
(0.120239 -0.000321173 -1.74878e-05)
(0.119663 -8.97096e-06 8.44573e-06)
(0.123522 -0.000349508 0.00026316)
(0.123319 -0.000403206 -0.000168505)
(0.119035 -0.000401556 -0.0011021)
(0.11967 -0.000583577 -0.000217155)
(0.105996 -0.000379732 -0.000224193)
(0.120364 0.000608814 -0.000865071)
(0.12245 0.000393359 -0.00100913)
(0.114967 -0.000245701 -0.000494587)
(0.119051 -0.000643317 -9.71698e-05)
(0.12277 -0.000735178 -0.000188519)
(0.118611 -0.000486121 -0.000494429)
(0.122538 -0.000482709 -0.0002653)
(0.123972 0.000342866 0.00022498)
(0.12374 0.000743501 5.84039e-05)
(0.12156 0.00104605 0.000697171)
(0.117651 0.000500467 0.000482866)
(0.121848 0.000245997 -0.000310935)
(0.122852 -8.77048e-05 -0.000289087)
(0.125133 0.000205718 -0.000162682)
(0.125367 -0.000318823 -8.44773e-05)
(0.124872 -0.000280623 -2.25721e-05)
(0.116256 -0.000250061 -5.50153e-07)
(0.122319 6.33015e-05 0.000435566)
(0.121749 0.000375186 0.00036995)
(0.123452 4.9872e-05 0.000350287)
(0.115805 3.41997e-05 -0.000106098)
(0.118645 -0.00112279 0.000106555)
(0.119105 -0.000514491 -7.98613e-05)
(0.117936 -0.00128616 -0.000468597)
(0.106413 -0.000901991 0.000139814)
(0.124197 0.000286006 0.000185627)
(0.124591 7.73861e-05 0.000273534)
(0.122424 0.000573961 -0.000407739)
(0.124732 0.000107081 -0.000178751)
(0.124209 0.000150918 0.00028575)
(0.122531 -0.000109568 0.000255774)
(0.122253 0.00045335 0.000223581)
(0.120623 -0.000501983 -0.000416338)
(0.115453 -5.56445e-05 -0.000135543)
(0.117297 -3.53736e-05 -0.000216865)
(0.119392 -0.000395848 -0.000352097)
(0.118371 0.000168424 -0.000385525)
(0.106884 -4.55777e-05 9.03297e-05)
(0.119891 -4.11192e-05 -0.000311085)
(0.106253 -1.04586e-05 -0.000332005)
(0.124676 -0.000464182 -4.30813e-05)
(0.126825 -0.000245719 0.000264903)
(0.126917 -0.000322556 -0.000134399)
(0.108292 -2.30521e-05 0.000256725)
(0.118179 -0.00074692 -0.00074317)
(0.119531 -0.000573638 -0.000289304)
(0.118979 -0.00103177 -0.000726619)
(0.105639 -0.000418152 -0.00104693)
(0.118016 0.000638184 -0.000249064)
(0.121951 0.00036825 -0.000118115)
(0.117286 -0.000613599 0.000747401)
(0.115925 -0.000231352 0.00034696)
(0.118074 1.85708e-08 0.000742214)
(0.10655 -0.000527581 0.00032057)
(0.125124 -0.00131929 0.000429382)
(0.12238 -0.00135913 0.000730245)
(0.122847 -0.00127277 0.000562026)
(0.12503 -0.00127939 0.000261784)
(0.121389 -0.000436227 -0.000688324)
(0.120079 -0.000358051 -0.000243907)
(0.119066 -0.000176262 -0.000268)
(0.106092 0.000147305 -0.000316599)
(0.124056 0.00047396 -1.30018e-05)
(0.122876 0.000320387 -7.71532e-05)
(0.123575 -0.000348488 -1.57772e-05)
(0.117853 0.00023963 -0.000292661)
(0.120069 -0.000527311 -0.000464226)
(0.120006 -0.000534629 -0.000631411)
(0.123254 -0.000595425 -0.000594812)
(0.124143 1.61708e-05 -0.000774442)
(0.123925 0.000101194 -0.000799736)
(0.122634 4.84181e-06 -0.000808907)
(0.115573 0.000374553 -0.000890945)
(0.119002 -8.37955e-05 6.42702e-05)
(0.117052 -0.000439346 7.35401e-05)
(0.118119 -0.00062292 0.000460787)
(0.106329 -0.00045392 -7.08305e-05)
(0.124204 0.000686055 0.000714655)
(0.119882 0.000497211 -0.000304951)
(0.119597 -0.000319205 -3.64275e-05)
(0.123793 -0.000854115 -0.000123216)
(0.119707 -0.000567304 -4.3988e-05)
(0.123567 -0.000787266 0.000217643)
(0.124259 0.000153986 0.000279724)
(0.124146 0.000149584 0.00026707)
(0.124237 0.000147504 0.000263165)
(0.123949 5.42949e-05 0.00018806)
(0.124152 -0.00032957 -9.42525e-05)
(0.1169 -0.000331224 4.99719e-05)
(0.123267 -0.000323842 -0.000407768)
(0.123806 4.98662e-05 -0.000607477)
(0.125301 0.000142512 -0.000356758)
(0.12275 -0.000199637 -0.000157031)
(0.123365 -0.000301861 0.000280543)
(0.125367 -0.000134555 0.000103258)
(0.12618 -0.000315822 6.31293e-05)
(0.124065 -8.39183e-05 -0.000604004)
(0.123954 -0.000100425 -0.000487414)
(0.126561 -5.04079e-05 -0.000614947)
(0.122981 0.00027145 -0.00050872)
(0.125018 0.000219615 -0.00036871)
(0.125442 -0.000286823 -0.00073263)
(0.121172 -0.000856477 -0.000232692)
(0.12629 -3.21469e-06 -0.00065709)
(0.123784 -0.0005779 0.000295639)
(0.125599 6.23911e-05 0.000488071)
(0.125448 -0.00014246 0.000209861)
(0.125616 -0.000395405 0.000229767)
(0.123408 7.42421e-05 0.000246603)
(0.124268 -0.000190984 0.000369462)
(0.11569 -4.724e-05 0.00016499)
(0.118092 -0.000107736 -0.000613091)
(0.118152 -0.000370389 -0.000255341)
(0.118873 -0.000791864 -0.000404039)
(0.1225 -0.000718246 -0.000463625)
(0.123161 -0.000555479 -0.000473766)
(0.123638 -0.000406883 0.000299307)
(0.123367 -0.000331454 6.43755e-05)
(0.126057 -0.000261872 -0.00023133)
(0.126001 -0.000231936 0.000116581)
(0.125047 0.000119689 -0.000127242)
(0.123478 -0.000132297 -0.000355781)
(0.123006 0.000287751 -1.44073e-05)
(0.12505 0.000451421 0.000119285)
(0.124612 0.000241359 -0.000446171)
(0.126284 -0.000139599 -0.000781415)
(0.125246 -7.37836e-06 -0.000306907)
(0.126151 -0.000281017 -0.000661292)
(0.124694 -0.000565735 -7.24802e-05)
(0.123475 -0.000425617 -4.09203e-05)
(0.122108 -0.00111453 0.000200654)
(0.125182 -0.000833021 9.20595e-05)
(0.124738 -0.000142412 9.02165e-05)
(0.120757 -0.000162238 -0.000345279)
(0.125596 -0.000203503 4.16329e-05)
(0.120642 0.000102467 -0.000722409)
(0.125807 -6.70132e-06 1.0668e-05)
(0.126616 -0.000199501 -0.00041592)
(0.125377 -2.84485e-05 -0.000224447)
(0.124692 -5.83748e-05 0.000372935)
(0.115929 -1.3626e-05 -6.81727e-05)
(0.117447 -0.000246417 -0.000422419)
(0.107802 -0.000106694 -0.00024875)
(0.118103 -0.000691586 -0.00100964)
(0.106211 -0.000294174 -0.000278293)
(0.126509 0.000208164 0.000762205)
(0.124169 0.000222114 0.000235409)
(0.122644 -0.000604377 -0.000483771)
(0.11588 -0.000375148 -0.00037)
(0.12426 -0.000264449 -0.00081183)
(0.12393 -0.000250857 -0.000629233)
(0.122485 -0.000403053 -0.000298225)
(0.115367 -0.000391681 -0.000427075)
(0.126116 0.000289795 0.000759075)
(0.126157 0.000109388 0.000815622)
(0.126314 0.000186953 0.000678656)
(0.125232 0.000365167 0.000755863)
(0.124088 0.000602672 0.000358634)
(0.124281 0.000282001 0.000243713)
(0.125746 0.000345234 0.000298893)
(0.117124 -0.000254625 -0.000424027)
(0.119161 -8.88407e-05 -0.000216712)
(0.105793 -0.000360534 -0.000415896)
(0.120198 0.000214254 -0.000340173)
(0.118722 -0.000146224 -0.000243563)
(0.118048 0.000308925 -0.000318533)
(0.106869 -7.29135e-05 -0.000720432)
(0.125835 -0.000163575 0.00012861)
(0.12419 -0.000313466 -0.000397984)
(0.12583 -0.000479418 -8.91105e-05)
(0.122875 8.29404e-05 -0.000114208)
(0.124627 -2.5527e-05 -0.000225094)
(0.118526 -0.000371059 -0.000490447)
(0.119327 -0.000201595 -0.000616415)
(0.10664 -0.000410652 -0.000373759)
(0.120191 -0.000371623 -0.000120845)
(0.11767 -0.000102769 3.48518e-05)
(0.117189 3.28679e-05 0.000302296)
(0.10782 -0.000103017 0.000178808)
(0.126593 -0.000742605 0.000279231)
(0.124412 -0.000436277 0.000575387)
(0.124255 -0.000505999 0.000187495)
(0.126395 -0.000493041 1.49873e-06)
(0.119687 -9.80321e-05 -0.00136524)
(0.11939 -2.15926e-05 -0.000913371)
(0.122757 -0.000278194 -0.000884343)
(0.106882 -0.000333601 -0.00121211)
(0.122566 0.000100924 9.63409e-05)
(0.12299 -0.000397564 0.000145838)
(0.123524 -0.000188198 9.48318e-05)
(0.116376 -0.000500053 0.000162041)
(0.120155 -0.000832866 -0.000470532)
(0.123934 -0.000477994 -0.000667947)
(0.123729 -0.000219001 -0.00088178)
(0.124354 -6.54853e-05 -8.30145e-05)
(0.126232 -0.000126154 0.00013675)
(0.125203 0.000144124 0.000421761)
(0.121065 0.000136467 -0.00124378)
(0.118308 0.000396541 -0.000914095)
(0.120414 0.000826321 -0.000911498)
(0.105165 -0.000451678 -0.000922065)
(0.127632 -7.95183e-05 6.34983e-05)
(0.127246 -0.000294151 -3.90061e-05)
(0.125651 4.51623e-05 -8.31292e-05)
(0.127344 2.65866e-05 -3.54169e-05)
(0.125476 -0.000246894 -0.000462688)
(0.122383 -0.000220878 -0.000316892)
(0.12173 -0.000136058 -0.000762751)
(0.125108 -0.000347923 -0.00021202)
(0.121 -0.0010357 -0.000384466)
(0.121376 -0.000968242 -7.0741e-05)
(0.106684 -0.000287825 -0.000577871)
(0.119755 -0.000671076 0.000973997)
(0.118494 -0.000292175 0.00102586)
(0.120477 -0.00053459 0.000751968)
(0.105238 0.000137883 0.000201634)
(0.123472 -0.000338635 6.67938e-05)
(0.117857 -0.000291175 9.33287e-05)
(0.120452 -0.000288718 -0.000700033)
(0.127292 -0.000219218 -0.000208828)
(0.125461 -0.000194395 -0.000350993)
(0.118178 0.000311342 0.000194897)
(0.117154 0.000183353 0.000255359)
(0.119281 -0.000116223 -0.000246412)
(0.105518 -0.000153115 0.00015055)
(0.120776 -0.000130287 -0.000773863)
(0.120568 0.000471155 -0.000504032)
(0.106813 -0.000396016 -0.000881144)
(0.117725 -0.000206836 0.0003421)
(0.120483 -0.000132794 0.000307416)
(0.118088 -0.000599898 0.000145019)
(0.107496 -0.00035349 0.000109211)
(0.117716 -0.00101301 -0.000477354)
(0.121211 -0.000588422 0.000222512)
(0.118899 -0.000949671 -0.000262717)
(0.105005 -0.000480139 -0.000408811)
(0.120812 0.00072543 -0.000626274)
(0.122408 0.000406579 -0.000115996)
(0.12284 0.000255183 -0.000455455)
(0.115279 0.00054418 -0.000390903)
(0.118957 0.000275643 0.000255283)
(0.118039 0.000248888 0.000400083)
(0.107484 -4.40488e-05 0.000318989)
(0.126048 -0.000487238 -3.3805e-05)
(0.125559 -0.000312505 0.000128736)
(0.126495 -0.000471117 -3.46181e-05)
(0.126107 -0.000402944 0.000151558)
(0.124111 -0.000363516 0.000234292)
(0.124356 -0.000276801 1.47227e-06)
(0.126551 -0.000341407 0.000317796)
(0.126821 -0.000356483 0.000250792)
(0.116541 0.000160852 -0.0011927)
(0.116635 0.000125526 -0.000508372)
(0.118936 0.000240744 -0.000901877)
(0.108408 -0.00025853 -0.000606406)
(0.119768 -0.000488714 0.00056865)
(0.119648 -0.00150174 -0.000253579)
(0.120161 -0.00082234 0.000193359)
(0.111469 -0.00067183 -0.000101494)
(0.121454 0.00099324 -2.12554e-05)
(0.123603 0.000647267 -0.000307884)
(0.12363 0.000607131 -0.000568957)
(0.116996 0.000242868 -0.000577869)
(0.119995 0.000120797 0.000142303)
(0.117176 -2.01873e-05 -3.27914e-05)
(0.116493 -0.000177594 -0.000230995)
(0.107305 0.000235543 -8.73691e-05)
(0.124515 -6.8236e-05 0.000494823)
(0.117195 4.27684e-05 -4.14481e-05)
(0.12486 -0.000552509 -0.000382499)
(0.126115 -0.000172782 -0.000345195)
(0.12499 -0.000186365 -0.000236848)
(0.124989 -0.000200674 -0.000325569)
(0.122798 0.000420888 0.00011211)
(0.121499 0.000297259 0.000230545)
(0.116833 0.000413722 0.000319193)
(0.125635 0.00022389 -0.000117625)
(0.124494 0.000280637 0.000349938)
(0.125207 0.000215573 0.000175213)
(0.125253 0.000376875 0.000308038)
(0.124885 -0.000171798 -7.30169e-05)
(0.124881 -0.000509294 -0.00016671)
(0.116324 -0.000284759 -0.000141706)
(0.122937 -0.000343192 -0.000124237)
(0.121504 -0.00046697 0.00013026)
(0.122882 -0.000489411 0.000236062)
(0.114258 -0.000235803 -0.000210898)
(0.122925 -3.51941e-05 2.02707e-05)
(0.123319 0.000225923 0.000134233)
(0.11585 0.000174316 0.000299543)
(0.119104 -0.000465382 0.000677495)
(0.12324 -0.00051728 0.000382123)
(0.123539 -0.000740576 0.000661513)
(0.120807 -5.57318e-05 0.000279127)
(0.12244 -0.000325081 -8.62687e-05)
(0.122706 -0.000360105 0.000119313)
(0.115796 -0.000208916 0.000209503)
(0.119397 0.000309341 -0.000192948)
(0.116544 0.000159732 -0.000553797)
(0.106128 0.000838086 -0.00054288)
(0.12492 -0.000340083 -3.36478e-05)
(0.126452 -0.000389742 -7.60258e-05)
(0.127103 0.000218727 -0.000174243)
(0.123291 0.000138875 0.000485323)
(0.124092 5.57311e-05 0.000656764)
(0.116184 -0.000270994 0.000859532)
(0.125213 0.000234748 4.65307e-05)
(0.125887 -0.000138838 6.26477e-05)
(0.125722 0.000188129 -0.000114736)
(0.125983 0.000200741 -8.98552e-05)
(0.11973 -0.000102159 -5.93463e-05)
(0.120547 -0.000152383 0.000232333)
(0.119843 -0.000381426 4.92303e-05)
(0.106037 0.000104272 0.000160442)
(0.117259 5.01782e-05 0.000435075)
(0.117057 -0.000181824 0.000461011)
(0.118588 -6.39486e-05 0.000675699)
(0.106271 -0.000236977 0.000404067)
(0.124791 -0.000283009 -0.000221019)
(0.125614 -9.74611e-05 0.000263598)
(0.12651 -0.000435275 2.00735e-05)
(0.126151 -7.34093e-05 0.000222038)
(0.124619 -0.000367498 -0.000358517)
(0.125869 0.000106336 -0.000494359)
(0.124161 0.000230837 -0.0003482)
(0.121628 -0.000267551 0.00070436)
(0.123916 -0.000320967 0.00012755)
(0.123548 -0.000172524 0.000212971)
(0.122207 -0.000229071 0.000807384)
(0.121905 -9.04205e-05 0.000184209)
(0.123876 -0.000416292 0.000101836)
(0.116285 -0.000127957 0.000325115)
(0.124335 -0.000425696 -0.00071746)
(0.124502 -0.000130795 -0.000650898)
(0.122068 -0.000216676 -0.000355738)
(0.115813 0.000108331 -0.000650436)
(0.12428 -0.000240377 -0.000856495)
(0.120266 -0.000310589 -0.000797347)
(0.124144 -6.43715e-06 -0.000727404)
(0.119994 0.00041797 0.000297817)
(0.123969 0.000575171 0.000449977)
(0.121101 0.000289499 0.000660953)
(0.124433 0.000398026 0.000237387)
(0.125788 0.000335263 -0.000559188)
(0.122655 0.000457329 -0.000543907)
(0.123352 2.62513e-05 -0.000795927)
(0.120195 -5.06215e-05 -5.61906e-05)
(0.106866 -0.00020482 -0.000363056)
(0.119294 -3.98586e-05 -8.27211e-05)
(0.122876 -0.000294854 -9.09827e-05)
(0.126432 0.00014852 0.000213565)
(0.126189 -0.000204529 0.000133813)
(0.125859 9.10421e-06 0.000433396)
(0.126254 -0.000145414 0.000509141)
(0.124928 -0.000491025 0.000248291)
(0.125086 -0.000588804 0.00015028)
(0.124762 -0.000403356 0.000172482)
(0.125 -0.000469452 2.39041e-05)
(0.125429 -0.000261854 0.000286671)
(0.124972 -0.000543494 0.000234526)
(0.12329 -0.000331354 0.000605842)
(0.121001 -0.00137449 -0.000201497)
(0.123834 -0.00147551 -0.000513554)
(0.122754 -0.00102166 -0.000705233)
(0.120966 -7.39179e-05 -0.000279275)
(0.120599 0.000370218 -0.000473138)
(0.115821 0.00012484 0.000334984)
(0.124665 1.15382e-05 -0.000431855)
(0.117065 -0.000261012 -0.000324797)
(0.121006 0.000552639 -0.000564261)
(0.121236 0.000652122 -0.000805475)
(0.122594 0.000194785 -0.000618796)
(0.115246 -0.000131076 -0.000555921)
(0.126166 0.00022706 -0.00045698)
(0.124534 0.000344986 -0.000498697)
(0.125117 0.000166232 -0.000710021)
(0.106908 0.000112145 -0.000193057)
(0.12254 0.000128728 -0.000307436)
(0.116656 -0.000134323 -0.000189794)
(0.120261 0.000152348 -1.76758e-05)
(0.123384 7.50056e-05 0.000314662)
(0.119838 0.000133583 -0.000160458)
(0.123668 0.0004556 7.21955e-05)
(0.124146 9.4469e-05 -0.000154528)
(0.12357 9.71971e-05 -0.000362106)
(0.122307 0.000115827 1.39347e-05)
(0.117908 0.000366034 -0.00013832)
(0.126387 -0.000167599 -0.00042226)
(0.124579 -0.00024867 -0.000592469)
(0.125897 -0.000341136 -0.000561486)
(0.124403 -0.000496286 -0.00037306)
(0.124038 -0.000688435 -0.000463744)
(0.126225 -0.000558025 -0.000258884)
(0.12526 -0.000568133 -0.000110565)
(0.125843 9.76148e-05 -0.000411781)
(0.126113 -0.000151567 -0.000270022)
(0.118668 -0.000723714 -0.000426917)
(0.119819 -0.000913655 -0.000442048)
(0.105855 1.36251e-05 -0.000405409)
(0.12245 -0.0009355 0.000292503)
(0.122785 -0.000283688 0.000127302)
(0.126205 -0.000402932 -0.000169001)
(0.123456 -0.000196931 -0.000274336)
(0.126451 -0.000410085 -0.00028145)
(0.125575 -0.000101777 0.000302095)
(0.125369 2.87774e-05 -5.62585e-05)
(0.124653 0.000281115 0.000298807)
(0.120895 -0.000340567 -0.000520658)
(0.125134 -0.000401386 -0.000632504)
(0.114688 5.29362e-05 8.05279e-05)
(0.117052 -0.000399325 0.000678115)
(0.116581 -0.000614916 0.000210004)
(0.104011 -0.0006462 0.000300845)
(0.124406 -0.000264426 -0.000158885)
(0.123003 -0.000424617 0.000367551)
(0.117174 -0.000320393 0.00112455)
(0.117422 -0.00121797 -0.000330502)
(0.107787 -0.000733857 -0.000177386)
(0.122558 0.000321308 -0.000112467)
(0.122889 0.000445145 0.000306865)
(0.103212 0.000133756 -0.000238854)
(0.123659 -0.000191841 0.000326433)
(0.126444 -0.00035827 0.000228004)
(0.118289 -0.000487353 0.000444129)
(0.121281 0.000333634 0.000418029)
(0.122168 -0.000486335 0.000177777)
(0.118954 0.000542517 -0.000215569)
(0.119129 0.000230309 -0.000227299)
(0.119633 0.000487724 -0.00060704)
(0.105823 1.27145e-05 -7.91442e-05)
(0.123603 -3.86272e-05 9.27458e-05)
(0.122896 1.29377e-05 6.25566e-05)
(0.122384 -2.93724e-06 0.000171829)
(0.124915 0.00086156 -0.000338545)
(0.125863 0.000935608 -0.000299326)
(0.12277 0.000195763 -0.000237905)
(0.123682 0.000163295 -0.000416543)
(0.125948 -0.000830885 -0.000129797)
(0.125322 -6.81906e-05 0.000306809)
(0.120005 -0.000579865 -3.59463e-06)
(0.119782 -0.000333231 -9.48117e-05)
(0.10508 -0.000379296 0.000178221)
(0.118456 -0.000991664 0.000372434)
(0.116936 -0.000662507 0.000797928)
(0.107248 -0.000632852 0.000291766)
(0.125128 -0.000557767 0.000425331)
(0.123264 -4.40323e-05 0.000658834)
(0.124399 -0.000405344 0.000729734)
(0.122897 -0.000200585 0.000127246)
(0.125735 3.9594e-05 -0.000630982)
(0.126498 -8.68961e-05 -0.000586472)
(0.124166 6.27231e-05 -0.000383675)
(0.119026 0.000509621 0.000143573)
(0.120009 4.47693e-05 8.30287e-05)
(0.10476 0.000271541 -0.00055772)
(0.125815 -0.000534879 0.00013435)
(0.125738 -0.000541924 0.000426338)
(0.12569 -0.000299068 0.000298513)
(0.122201 -0.000159337 -0.000177857)
(0.11974 -1.32487e-05 -0.000506228)
(0.107561 -0.00014658 -0.000350264)
(0.117364 -0.000286996 0.000266922)
(0.117376 -0.000574462 7.88362e-05)
(0.107798 -0.000352278 -4.06067e-05)
(0.122064 0.000273973 -0.000498955)
(0.121629 0.000257985 -0.000353003)
(0.123377 0.000343919 -0.000205659)
(0.116264 -0.000237424 -0.000393071)
(0.123005 -0.000418963 -0.000311884)
(0.124924 -0.000615711 0.000121814)
(0.122693 -0.00030227 0.000533523)
(0.124427 -0.000453032 0.000121709)
(0.120731 -0.00125451 0.000130322)
(0.122488 -0.000904017 -7.42585e-05)
(0.122805 -0.000699889 -0.000164195)
(0.114742 -0.000869757 -0.000302841)
(0.117539 -0.000385697 0.000625011)
(0.121873 4.51908e-06 0.000598418)