/*--------------------------------*- C++ -*----------------------------------*\
| =========                 |                                                 |
| \\      /  F ield         | OpenFOAM: The Open Source CFD Toolbox           |
|  \\    /   O peration     | Version:  2212                                  |
|   \\  /    A nd           | Website:  www.openfoam.com                      |
|    \\/     M anipulation  |                                                 |
\*---------------------------------------------------------------------------*/
FoamFile
{
    version     2.0;
    format      ascii;
    arch        "LSB;label=32;scalar=64";
    class       volScalarField;
    location    "0.038";
    object      epsilon;
}
// * * * * * * * * * * * * * * * * * * * * * * * * * * * * * * * * * * * * * //

dimensions      [0 2 -3 0 0 0 0];

internalField   nonuniform List<scalar> 
31639
(
0.570581
0.567301
0.571047
0.565704
0.580911
0.571505
0.589008
0.574494
0.573662
0.565148
0.569249
0.565382
0.564999
0.563023
0.564732
0.591157
0.57336
0.582004
0.581
0.569453
0.607927
0.571745
0.564721
0.583236
0.588128
0.574125
0.566922
0.472781
0.584204
0.568167
0.564864
0.584993
0.563653
0.588122
0.605305
0.567605
0.608775
0.568141
0.565851
0.621292
0.597154
0.603308
0.561378
0.570872
0.572811
0.565147
0.568792
0.580076
0.571609
0.565853
0.564996
0.611543
0.569471
0.615905
0.580465
0.576425
0.60886
0.569104
0.566354
0.607231
0.574735
0.575153
0.594991
0.567636
0.572638
0.563982
0.569938
0.567769
0.60189
0.565215
0.566051
0.565451
0.563463
0.567373
0.569698
0.608197
0.563744
0.581149
0.565181
0.572608
0.587167
0.622582
0.564109
0.56808
0.560313
0.564471
0.564857
0.56479
0.595111
0.56541
0.56744
0.576288
0.602391
0.566859
0.585924
0.568041
0.575835
0.567011
0.568344
0.60605
0.56765
0.565416
0.563098
0.606832
0.602922
0.565693
0.60778
0.614408
0.590381
0.614574
0.558232
0.60312
0.571046
0.583791
0.564726
0.611714
0.587739
0.585619
0.572628
0.568119
0.572539
0.566449
0.563406
0.573274
0.578617
0.568047
0.569641
0.588242
0.58903
0.562445
0.562663
0.5607
0.561022
0.584776
0.570719
0.566701
0.603839
0.609343
0.564993
0.568152
0.568068
0.566404
0.565726
0.609036
0.617934
0.563449
0.568314
0.605259
0.600599
0.566133
0.599872
0.575661
0.582185
0.57121
0.605178
0.565457
0.575892
0.602268
0.596815
0.584646
0.564361
0.607739
0.599624
0.609091
0.610366
0.568363
0.607101
0.566935
0.565709
0.602712
0.564902
0.568186
0.604378
0.56601
0.563616
0.56876
0.567762
0.567021
0.566156
0.561685
0.566378
0.575925
0.561263
0.617917
0.57706
0.565811
0.562659
0.567068
0.610425
0.607492
0.573861
0.571629
0.570263
0.567668
0.567049
0.58254
0.586491
0.563159
0.604709
0.580457
0.567069
0.568172
0.55818
0.558655
0.580961
0.569246
0.567013
0.564263
0.568239
0.620213
0.568721
0.583798
0.569724
0.569532
0.577837
0.562223
0.601397
0.588086
0.571691
0.566784
0.563296
0.580942
0.606943
0.576221
0.608493
0.584574
0.568808
0.591163
0.60516
0.573138
0.57019
0.566737
0.598491
0.613225
0.569609
0.569068
0.60075
0.56235
0.600785
0.607406
0.566355
0.56814
0.56704
0.591026
0.600488
0.574185
0.564059
0.567578
0.599144
0.567794
0.563111
0.609658
0.592797
0.566933
0.569841
0.586311
0.602784
0.563742
0.563388
0.588487
0.565235
0.56436
0.576211
0.565523
0.567344
0.579904
0.602011
0.586266
0.558133
0.562694
0.555749
0.583869
0.580644
0.578274
0.565893
0.573868
0.605381
0.582303
0.594882
0.564957
0.581064
0.568746
0.567467
0.586319
0.600795
0.605284
0.601933
0.614648
0.562172
0.598155
0.573578
0.564521
0.583367
0.59864
0.569944
0.584468
0.604035
0.569519
0.583129
0.604669
0.569744
0.595552
0.567532
0.565085
0.605377
0.580346
0.565875
0.613536
0.61354
0.564588
0.565065
0.554274
0.607993
0.60773
0.564913
0.593899
0.586073
0.567719
0.56974
0.568159
0.565726
0.565019
0.602754
0.562178
0.614871
0.615697
0.568901
0.565057
0.564125
0.565441
0.571932
0.597894
0.563165
0.565081
0.56731
0.572175
0.567425
0.567853
0.563632
0.571848
0.563749
0.567242
0.56627
0.573543
0.564665
0.57673
0.568133
0.561694
0.604442
0.579078
0.566552
0.581486
0.572834
0.56073
0.567007
0.605247
0.566269
0.568088
0.609267
0.570445
0.601304
0.57808
0.560143
0.612439
0.568671
0.568955
0.603904
0.57475
0.602096
0.575744
0.570871
0.577302
0.614302
0.571616
0.60066
0.572073
0.565264
0.568571
0.571292
0.60396
0.561336
0.603767
0.566454
0.612416
0.564025
0.561873
0.564296
0.563797
0.584033
0.574053
0.568511
0.571746
0.56771
0.612653
0.574048
0.567184
0.562013
0.564487
0.57487
0.571806
0.577246
0.608154
0.581708
0.569326
0.564081
0.613497
0.566692
0.565209
0.569846
0.558533
0.562288
0.581555
0.56272
0.593322
0.571481
0.56693
0.612499
0.575008
0.569586
0.603626
0.604153
0.604695
0.589226
0.613119
0.570901
0.556428
0.588874
0.573307
0.604351
0.563567
0.564713
0.56831
0.567838
0.579786
0.56841
0.571885
0.586483
0.563545
0.565362
0.605755
0.567673
0.568778
0.564552
0.572109
0.565888
0.565812
0.571703
0.569287
0.567038
0.571885
0.602501
0.570663
0.615859
0.592683
0.567293
0.608518
0.620611
0.583803
0.567076
0.568644
0.606404
0.571749
0.59197
0.566219
0.572998
0.49111
0.566124
0.616648
0.566057
0.563859
0.567548
0.563924
0.581098
0.599929
0.573224
0.564523
0.563194
0.611246
0.609391
0.567736
0.607999
0.600423
0.57184
0.612056
0.580777
0.594454
0.575269
0.602165
0.564609
0.565447
0.564311
0.564103
0.601849
0.564967
0.566726
0.575301
0.572399
0.566683
0.562546
0.574119
0.587896
0.56717
0.564861
0.565388
0.583328
0.565649
0.567435
0.612943
0.619243
0.570732
0.573285
0.564306
0.571379
0.574216
0.578978
0.563436
0.571401
0.585763
0.573213
0.600949
0.567643
0.577642
0.568222
0.605552
0.595883
0.597054
0.566601
0.565334
0.61009
0.572325
0.589383
0.570519
0.575801
0.562522
0.580453
0.606369
0.567415
0.561788
0.597097
0.567482
0.564004
0.55787
0.568372
0.475787
0.599672
0.566209
0.568103
0.602943
0.603382
0.568392
0.568197
0.571372
0.60107
0.581787
0.565626
0.567447
0.600912
0.598953
0.569263
0.564842
0.60865
0.612774
0.568122
0.608128
0.566511
0.569376
0.60767
0.565185
0.57664
0.584022
0.617553
0.565306
0.587171
0.599057
0.562764
0.567632
0.569536
0.56516
0.611233
0.582474
0.574788
0.581804
0.607288
0.589937
0.580169
0.56051
0.565401
0.569988
0.562468
0.566007
0.59137
0.562944
0.5708
0.572579
0.596325
0.56772
0.576027
0.571661
0.604596
0.613272
0.563863
0.588752
0.566332
0.568915
0.59989
0.574551
0.564769
0.586332
0.57204
0.600936
0.564106
0.569467
0.615397
0.565614
0.566924
0.477095
0.603717
0.610087
0.585947
0.566915
0.569502
0.57081
0.566641
0.565246
0.568729
0.570381
0.606492
0.563025
0.613491
0.56761
0.581992
0.579945
0.56493
0.567053
0.594434
0.607396
0.613393
0.580799
0.564062
0.589211
0.565213
0.588098
0.563018
0.606351
0.566792
0.568361
0.565798
0.565214
0.56051
0.566325
0.583281
0.568828
0.569178
0.568852
0.599441
0.563723
0.600504
0.566643
0.581567
0.569826
0.601374
0.567702
0.609938
0.564523
0.583296
0.570288
0.571282
0.566909
0.597842
0.551946
0.60364
0.623303
0.60878
0.608131
0.601522
0.572871
0.615897
0.557512
0.575383
0.617289
0.567723
0.60619
0.580418
0.564205
0.579684
0.572327
0.56356
0.561215
0.569147
0.576768
0.56354
0.58564
0.580628
0.607412
0.510183
0.566822
0.567969
0.571024
0.566038
0.605747
0.566593
0.569379
0.564902
0.562831
0.563482
0.567168
0.565665
0.56632
0.572179
0.568435
0.56925
0.60236
0.566345
0.582217
0.571068
0.563204
0.564673
0.584899
0.569521
0.572645
0.570344
0.585335
0.610319
0.5646
0.575061
0.587952
0.61115
0.56298
0.604686
0.558119
0.576352
0.566557
0.575183
0.56656
0.574347
0.608696
0.567467
0.588882
0.577585
0.599792
0.562587
0.564902
0.568824
0.570108
0.565731
0.573909
0.587872
0.573675
0.610549
0.561924
0.572921
0.559852
0.601964
0.564421
0.564983
0.568735
0.591284
0.568791
0.563334
0.569909
0.60711
0.610536
0.565973
0.604816
0.588722
0.572486
0.569067
0.560962
0.6079
0.563534
0.563882
0.597087
0.602347
0.561138
0.599568
0.581928
0.603233
0.57064
0.592467
0.585437
0.567028
0.607231
0.566975
0.567342
0.565269
0.569373
0.562828
0.606349
0.562091
0.572428
0.584746
0.565149
0.566063
0.573933
0.564473
0.565506
0.571702
0.568303
0.570833
0.563573
0.581601
0.568557
0.564961
0.600231
0.561982
0.574174
0.563307
0.575147
0.573579
0.565587
0.568356
0.5627
0.574137
0.566711
0.571527
0.575686
0.603556
0.575607
0.56489
0.617028
0.579457
0.56884
0.582468
0.569428
0.56491
0.565416
0.561904
0.571394
0.570231
0.570689
0.571496
0.568372
0.585015
0.605244
0.565834
0.613578
0.570993
0.580899
0.569878
0.572273
0.566212
0.608463
0.568235
0.602217
0.567563
0.591108
0.567992
0.568267
0.563984
0.60414
0.565675
0.566944
0.578461
0.573933
0.577493
0.614028
0.567533
0.568856
0.568168
0.561873
0.563478
0.565173
0.586769
0.566122
0.596222
0.58092
0.565882
0.600439
0.596604
0.572837
0.56414
0.586284
0.578844
0.577356
0.586051
0.566293
0.591612
0.566804
0.573563
0.618793
0.575821
0.560757
0.574813
0.580137
0.564219
0.564704
0.602097
0.602801
0.566003
0.567651
0.561443
0.593656
0.564503
0.566401
0.600828
0.568968
0.563216
0.564237
0.574196
0.562311
0.573863
0.563146
0.561801
0.58023
0.601447
0.570502
0.566703
0.594365
0.563247
0.611385
0.568405
0.576089
0.604743
0.571636
0.582862
0.565221
0.578259
0.571723
0.611267
0.611808
0.578734
0.601722
0.565937
0.56381
0.568361
0.56575
0.588353
0.568009
0.572243
0.584064
0.583729
0.564203
0.569091
0.575208
0.606821
0.571509
0.568783
0.561871
0.566091
0.615064
0.602156
0.569783
0.56363
0.590486
0.569089
0.581703
0.567312
0.570634
0.576702
0.566241
0.579358
0.604232
0.564736
0.580087
0.603416
0.589818
0.56565
0.585634
0.569533
0.570405
0.582275
0.606791
0.564699
0.602864
0.57432
0.578126
0.597566
0.573775
0.608135
0.5695
0.57416
0.571561
0.617979
0.603267
0.560554
0.568172
0.582944
0.56315
0.573162
0.56475
0.608224
0.604314
0.5752
0.573955
0.571135
0.569257
0.562297
0.574665
0.563373
0.574878
0.578781
0.563205
0.614463
0.572558
0.565388
0.567076
0.574008
0.572497
0.585879
0.564002
0.570641
0.611606
0.567342
0.594999
0.566988
0.581313
0.561472
0.607847
0.563932
0.568561
0.57404
0.56696
0.611846
0.562192
0.568296
0.562496
0.604222
0.566547
0.573905
0.558535
0.572124
0.56857
0.566003
0.568223
0.588064
0.574073
0.608208
0.609353
0.60803
0.59552
0.56955
0.60999
0.567134
0.565805
0.578036
0.571434
0.570699
0.569307
0.564919
0.570488
0.586147
0.567199
0.580649
0.590693
0.562125
0.565591
0.568761
0.564297
0.586294
0.573134
0.57003
0.563035
0.571525
0.568728
0.58653
0.568884
0.579516
0.574346
0.565802
0.567875
0.56401
0.567463
0.56499
0.580375
0.569941
0.57095
0.606525
0.616577
0.564723
0.592344
0.578495
0.585432
0.606727
0.574892
0.568187
0.601329
0.584823
0.566768
0.566239
0.566292
0.567084
0.605453
0.569272
0.581382
0.582333
0.571454
0.572003
0.614936
0.592246
0.592392
0.576103
0.5711
0.571607
0.571855
0.57558
0.567557
0.575246
0.592596
0.587664
0.621734
0.579018
0.571396
0.573851
0.574729
0.569314
0.605464
0.571259
0.583734
0.577515
0.573397
0.563826
0.609956
0.566032
0.606067
0.565729
0.572955
0.580803
0.572125
0.576526
0.572282
0.593577
0.571357
0.582933
0.580783
0.579856
0.611269
0.560514
0.568671
0.575043
0.562792
0.568041
0.602486
0.589298
0.576279
0.603018
0.564187
0.573209
0.566071
0.562953
0.565812
0.604948
0.610756
0.603169
0.568673
0.61501
0.562923
0.571022
0.600167
0.582622
0.566044
0.568653
0.591031
0.587795
0.568488
0.569263
0.57154
0.575655
0.596191
0.569007
0.574327
0.571596
0.577835
0.566675
0.572405
0.56742
0.576676
0.610877
0.612329
0.571738
0.585209
0.5746
0.618638
0.56856
0.575393
0.56406
0.608374
0.578913
0.566653
0.574641
0.589915
0.607992
0.570242
0.597152
0.576769
0.578074
0.563899
0.565591
0.56838
0.614311
0.609959
0.568438
0.583854
0.585201
0.574438
0.613885
0.557182
0.565588
0.590319
0.564177
0.563987
0.57084
0.564955
0.569925
0.571744
0.570147
0.611093
0.58116
0.566329
0.61102
0.57175
0.571014
0.594299
0.566619
0.52573
0.56776
0.563815
0.566073
0.613004
0.568601
0.571091
0.610342
0.581107
0.566949
0.589346
0.57059
0.603866
0.603327
0.570594
0.582686
0.564512
0.567439
0.563883
0.563177
0.567552
0.565516
0.565615
0.571323
0.600089
0.567438
0.579812
0.567807
0.578034
0.589681
0.586305
0.571318
0.609527
0.573316
0.56996
0.573744
0.623632
0.573756
0.616475
0.570812
0.617859
0.571034
0.57096
0.575641
0.567961
0.600466
0.603332
0.568312
0.572029
0.578009
0.570288
0.587551
0.560776
0.571192
0.565496
0.603993
0.593374
0.56479
0.564742
0.580138
0.576928
0.600591
0.571313
0.565694
0.566469
0.568452
0.570865
0.567671
0.566231
0.567147
0.604352
0.567258
0.572004
0.567291
0.572984
0.573868
0.617505
0.589544
0.567015
0.572822
0.569734
0.57275
0.567029
0.56246
0.569352
0.571418
0.563737
0.565673
0.586057
0.583495
0.563516
0.567739
0.568624
0.611536
0.573575
0.603902
0.566177
0.60524
0.603144
0.563841
0.607923
0.591639
0.570895
0.564579
0.565617
0.584985
0.569951
0.570459
0.605115
0.609766
0.590857
0.589216
0.566516
0.573104
0.575598
0.612144
0.573905
0.565996
0.565697
0.604795
0.603497
0.574196
0.572879
0.576146
0.588095
0.606734
0.583826
0.590593
0.567217
0.565402
0.608505
0.573471
0.570423
0.600061
0.614634
0.56526
0.589273
0.591178
0.561965
0.573694
0.561767
0.57032
0.563433
0.587017
0.568781
0.587812
0.56444
0.586028
0.56961
0.569714
0.564813
0.599654
0.560351
0.55906
0.57467
0.567534
0.572935
0.598025
0.501871
0.570705
0.584386
0.565968
0.580914
0.559084
0.606707
0.565664
0.569139
0.612797
0.57383
0.570998
0.614894
0.600997
0.568705
0.566746
0.566803
0.586569
0.6041
0.563674
0.57166
0.568848
0.573494
0.562836
0.607375
0.567982
0.569015
0.606042
0.603056
0.622148
0.593024
0.56163
0.586268
0.571486
0.567401
0.582222
0.58125
0.610962
0.612916
0.571277
0.570851
0.606737
0.571392
0.579188
0.609758
0.572732
0.582205
0.604125
0.577086
0.560185
0.607786
0.616778
0.564321
0.569447
0.594776
0.570912
0.59091
0.598258
0.605131
0.57329
0.601752
0.61134
0.570487
0.559486
0.572361
0.578418
0.568354
0.571311
0.565825
0.473047
0.576713
0.601204
0.561909
0.57301
0.564752
0.583916
0.56553
0.596684
0.565392
0.567749
0.577609
0.609275
0.603485
0.615326
0.584459
0.604554
0.578053
0.594455
0.581343
0.564177
0.572623
0.584406
0.569743
0.574519
0.57032
0.563633
0.610056
0.571536
0.565379
0.564986
0.566191
0.567654
0.594925
0.576482
0.568883
0.606098
0.579283
0.563795
0.56441
0.559137
0.571973
0.575957
0.613401
0.60225
0.567428
0.567365
0.575384
0.562374
0.587182
0.581881
0.598063
0.609572
0.609033
0.615356
0.565392
0.568012
0.562709
0.565818
0.582886
0.572391
0.62364
0.566301
0.573357
0.569816
0.563311
0.571854
0.565766
0.567131
0.569834
0.49477
0.58449
0.571076
0.569365
0.566264
0.571359
0.572625
0.566629
0.567068
0.589246
0.565334
0.574614
0.563444
0.564803
0.609904
0.564087
0.568926
0.573159
0.562883
0.599496
0.613228
0.567329
0.570314
0.589886
0.563353
0.562508
0.562224
0.559731
0.583295
0.57209
0.573676
0.569427
0.61848
0.619893
0.572201
0.580736
0.59955
0.564871
0.603614
0.578959
0.568996
0.576838
0.583713
0.561206
0.581183
0.573309
0.570952
0.576275
0.567144
0.58517
0.612507
0.567727
0.621093
0.624859
0.503656
0.597068
0.611111
0.576818
0.570531
0.602605
0.584616
0.618983
0.604634
0.564533
0.570624
0.60778
0.61187
0.562972
0.60863
0.570113
0.57052
0.58252
0.562687
0.604176
0.604976
0.575144
0.571775
0.603659
0.604154
0.582541
0.588067
0.570642
0.56635
0.612886
0.569184
0.608808
0.616755
0.586996
0.577159
0.590436
0.583413
0.586547
0.565223
0.611632
0.601455
0.56893
0.561197
0.56752
0.617447
0.61726
0.580791
0.56228
0.564827
0.570636
0.577722
0.563121
0.564314
0.599177
0.565144
0.586804
0.601092
0.616667
0.561317
0.566712
0.567661
0.566904
0.566462
0.605982
0.582025
0.611782
0.628169
0.580359
0.608125
0.589652
0.567992
0.5298
0.602756
0.565555
0.565011
0.565905
0.571627
0.633422
0.568543
0.600957
0.570233
0.6095
0.567162
0.615346
0.570744
0.582086
0.590223
0.582744
0.615974
0.589175
0.565308
0.565754
0.571026
0.568747
0.570491
0.608686
0.568088
0.496459
0.567791
0.570508
0.567598
0.576828
0.552239
0.572164
0.581843
0.584334
0.584012
0.566974
0.568937
0.583208
0.595334
0.572754
0.579643
0.565537
0.563064
0.567888
0.579667
0.577767
0.561325
0.570657
0.561307
0.568112
0.569496
0.575416
0.527335
0.563944
0.586007
0.570208
0.571843
0.561386
0.601866
0.593538
0.569736
0.558805
0.564172
0.559032
0.565507
0.569686
0.568538
0.599631
0.592334
0.565265
0.567794
0.568038
0.565212
0.592039
0.562651
0.61061
0.563959
0.581619
0.564091
0.579672
0.569712
0.564238
0.564104
0.601927
0.566689
0.564851
0.579852
0.596904
0.570584
0.564232
0.566588
0.567013
0.567306
0.573036
0.60279
0.563687
0.587151
0.571232
0.587266
0.586148
0.601983
0.608986
0.584532
0.567395
0.572566
0.595469
0.580307
0.604901
0.576739
0.571468
0.614778
0.599447
0.590996
0.573531
0.572991
0.581797
0.537831
0.580347
0.51582
0.594279
0.562948
0.565096
0.568725
0.548997
0.57349
0.614245
0.596231
0.573285
0.591726
0.586071
0.566826
0.568716
0.569972
0.5567
0.610694
0.555709
0.565948
0.582813
0.564781
0.559932
0.570452
0.552296
0.568574
0.586759
0.598803
0.569835
0.613502
0.615573
0.583184
0.572797
0.578837
0.576445
0.570673
0.576548
0.616714
0.583181
0.56764
0.572898
0.610514
0.586902
0.590108
0.56171
0.564298
0.583739
0.569517
0.570901
0.570684
0.604764
0.565171
0.608791
0.56134
0.559876
0.563983
0.560802
0.567391
0.560929
0.601951
0.560378
0.563586
0.595198
0.56544
0.56871
0.584384
0.569872
0.579968
0.565462
0.569906
0.561369
0.568482
0.566398
0.57095
0.563599
0.603893
0.563063
0.607422
0.597814
0.575022
0.56999
0.568141
0.569404
0.550244
0.566092
0.606458
0.572155
0.56664
0.571449
0.563522
0.605942
0.611052
0.567892
0.619344
0.562565
0.568842
0.616226
0.57491
0.573288
0.57786
0.604149
0.592908
0.610986
0.571282
0.61268
0.569416
0.561914
0.616672
0.572761
0.568771
0.565554
0.561473
0.591793
0.566785
0.570907
0.596786
0.57238
0.567252
0.577566
0.598303
0.558542
0.575334
0.567874
0.586323
0.562145
0.5786
0.582995
0.589191
0.5816
0.554786
0.56317
0.568451
0.596696
0.56861
0.567826
0.564183
0.573576
0.624193
0.560185
0.593466
0.563145
0.563231
0.566063
0.586682
0.571961
0.569241
0.572735
0.562306
0.577825
0.604185
0.598587
0.570488
0.565417
0.531849
0.585644
0.566289
0.60114
0.567421
0.610642
0.567912
0.567488
0.567664
0.604717
0.566183
0.60321
0.571438
0.576686
0.589985
0.576197
0.596304
0.585433
0.572792
0.603947
0.587572
0.563793
0.619645
0.575518
0.567923
0.617837
0.586684
0.555553
0.578144
0.572379
0.568651
0.569931
0.557707
0.585352
0.608367
0.6123
0.479077
0.565555
0.553045
0.564744
0.567052
0.598677
0.597742
0.565016
0.57383
0.609023
0.568472
0.562948
0.588134
0.559344
0.564901
0.561199
0.600615
0.579128
0.570208
0.620534
0.557894
0.553678
0.565897
0.56332
0.566873
0.570422
0.608233
0.570187
0.580794
0.565306
0.562943
0.546497
0.558454
0.566719
0.579073
0.562779
0.568182
0.561255
0.602747
0.579046
0.565689
0.550841
0.569163
0.570977
0.578892
0.570127
0.605797
0.567077
0.601121
0.57266
0.570276
0.578271
0.575719
0.580078
0.57833
0.569891
0.578322
0.557532
0.540766
0.566026
0.610426
0.568473
0.565869
0.592459
0.563221
0.560613
0.560463
0.568086
0.609374
0.565937
0.564114
0.565927
0.576453
0.572497
0.61171
0.602505
0.561014
0.604371
0.564919
0.568884
0.598032
0.578408
0.563043
0.586359
0.592519
0.590864
0.584534
0.57385
0.559521
0.58495
0.56662
0.552594
0.56935
0.608819
0.565964
0.569307
0.559064
0.602648
0.591354
0.57428
0.471229
0.595104
0.565368
0.570893
0.568149
0.547582
0.565916
0.570672
0.582065
0.565844
0.580335
0.577907
0.573315
0.562029
0.562711
0.564053
0.559398
0.559961
0.595248
0.606962
0.574071
0.49953
0.574882
0.563522
0.562382
0.55969
0.567566
0.555584
0.574198
0.55979
0.600444
0.570922
0.580729
0.562194
0.560763
0.557691
0.571198
0.575329
0.580181
0.566399
0.576045
0.574544
0.571972
0.579282
0.590119
0.589727
0.602379
0.582541
0.571251
0.603947
0.56736
0.565817
0.562379
0.561936
0.567874
0.562959
0.557011
0.545641
0.572301
0.566152
0.560774
0.577944
0.613765
0.56272
0.582999
0.566353
0.57079
0.567804
0.565432
0.573385
0.613097
0.586714
0.606657
0.569071
0.572013
0.600544
0.572654
0.572335
0.584307
0.573367
0.58943
0.60004
0.56397
0.597403
0.59934
0.496108
0.507546
0.559859
0.59451
0.570056
0.56604
0.593824
0.566548
0.561922
0.552463
0.564334
0.606199
0.565036
0.485804
0.562129
0.590473
0.596621
0.560122
0.607754
0.588266
0.580191
0.565208
0.558665
0.558926
0.581949
0.568491
0.530091
0.574934
0.571547
0.565587
0.574986
0.598704
0.553365
0.566144
0.565463
0.489795
0.600641
0.561864
0.605909
0.601549
0.56555
0.567813
0.585573
0.582635
0.573521
0.560221
0.575852
0.5001
0.61429
0.564373
0.609324
0.571359
0.599065
0.572254
0.564809
0.566067
0.599129
0.583439
0.567418
0.567694
0.576139
0.562425
0.571034
0.569935
0.566252
0.597776
0.571028
0.589192
0.550616
0.556894
0.560233
0.57171
0.561241
0.578515
0.579015
0.603632
0.559567
0.559304
0.615364
0.565384
0.567904
0.574502
0.603484
0.569767
0.58191
0.582022
0.490164
0.585681
0.566472
0.626245
0.569337
0.617512
0.601332
0.574554
0.567884
0.612588
0.570412
0.566299
0.499884
0.61377
0.561123
0.56519
0.626826
0.569652
0.625039
0.622335
0.570731
0.568725
0.57854
0.557138
0.568642
0.564448
0.583439
0.547542
0.584009
0.573023
0.574396
0.556743
0.598559
0.536814
0.582526
0.584827
0.56482
0.557668
0.574555
0.57085
0.571306
0.560191
0.566655
0.575528
0.574549
0.563747
0.569222
0.562497
0.559934
0.569721
0.571692
0.532453
0.532734
0.559267
0.577659
0.587475
0.54845
0.553691
0.588133
0.571508
0.534458
0.600902
0.594177
0.559469
0.54248
0.570743
0.568112
0.568334
0.598313
0.571504
0.583179
0.59458
0.580847
0.60788
0.55814
0.566669
0.565846
0.563792
0.603951
0.575162
0.56564
0.567781
0.567043
0.476715
0.568788
0.57308
0.570103
0.55137
0.563506
0.48334
0.562595
0.561764
0.58893
0.61513
0.589447
0.557818
0.561175
0.593097
0.596255
0.565696
0.568367
0.567019
0.593815
0.61821
0.589722
0.589909
0.5681
0.570182
0.575825
0.568879
0.563327
0.512342
0.567071
0.564215
0.571587
0.583958
0.566156
0.544987
0.599643
0.582968
0.569947
0.519413
0.518904
0.569014
0.575656
0.559547
0.613771
0.56565
0.559212
0.55476
0.552702
0.552628
0.564443
0.569192
0.564655
0.564307
0.576352
0.557401
0.564451
0.566358
0.569217
0.55705
0.557406
0.599345
0.58829
0.610642
0.578621
0.541059
0.574932
0.60087
0.571187
0.586726
0.593633
0.577465
0.563139
0.565375
0.552856
0.566561
0.572053
0.558787
0.603131
0.562982
0.596044
0.571449
0.553677
0.56995
0.565978
0.561226
0.552301
0.590126
0.59415
0.583457
0.588269
0.575888
0.494121
0.566981
0.578412
0.558963
0.574301
0.586168
0.586009
0.49739
0.567528
0.568656
0.550485
0.600091
0.591606
0.558281
0.560587
0.597234
0.477309
0.559368
0.607666
0.564285
0.570839
0.56787
0.609472
0.565012
0.597193
0.591076
0.599549
0.558395
0.567874
0.576395
0.569803
0.570715
0.570524
0.606731
0.618389
0.572197
0.571957
0.572306
0.558782
0.600998
0.55751
0.586528
0.520116
0.569617
0.585235
0.59454
0.575985
0.560487
0.596384
0.595602
0.548619
0.550311
0.563996
0.58126
0.592815
0.603987
0.563249
0.57383
0.537248
0.558849
0.576432
0.566277
0.557034
0.535336
0.545791
0.560649
0.585245
0.569457
0.55762
0.56061
0.580934
0.520102
0.542356
0.551395
0.520229
0.556014
0.557019
0.579739
0.552858
0.56332
0.521365
0.532556
0.603422
0.565622
0.527866
0.589421
0.575062
0.545428
0.567148
0.526458
0.602192
0.602849
0.566791
0.489999
0.570592
0.610653
0.57386
0.566695
0.600131
0.568306
0.538764
0.613622
0.575359
0.564266
0.567597
0.567178
0.56183
0.559132
0.55855
0.560028
0.561004
0.567838
0.551459
0.558135
0.560383
0.550305
0.5607
0.568837
0.576955
0.542097
0.560603
0.56714
0.572434
0.582275
0.576796
0.607252
0.557831
0.575785
0.566411
0.567187
0.547489
0.569201
0.606307
0.573929
0.585739
0.59255
0.53101
0.599259
0.539914
0.569898
0.569584
0.565956
0.545208
0.602927
0.565781
0.545562
0.596132
0.557829
0.555245
0.498609
0.542557
0.582357
0.587679
0.546325
0.528377
0.53749
0.599304
0.560731
0.535978
0.563093
0.602183
0.578652
0.539382
0.561079
0.532006
0.568817
0.555108
0.573529
0.574153
0.548436
0.53918
0.583836
0.594286
0.56637
0.582914
0.611689
0.510919
0.564254
0.595023
0.580466
0.602859
0.56545
0.556037
0.563519
0.482312
0.566243
0.571309
0.567251
0.559009
0.562504
0.564613
0.556223
0.581535
0.572277
0.564809
0.569667
0.582999
0.582513
0.576163
0.513009
0.589636
0.521659
0.550845
0.563781
0.535975
0.567854
0.578066
0.571705
0.572076
0.559099
0.531895
0.535689
0.481187
0.569169
0.555467
0.583352
0.579437
0.606461
0.555605
0.569996
0.544931
0.540517
0.544541
0.534323
0.564845
0.575555
0.563728
0.565291
0.543077
0.605965
0.590953
0.604915
0.520421
0.560694
0.485435
0.473642
0.577667
0.519554
0.609556
0.567823
0.607902
0.598337
0.540594
0.595787
0.589738
0.538117
0.508395
0.563631
0.60703
0.560837
0.572706
0.554453
0.561602
0.556168
0.537046
0.53416
0.601138
0.582606
0.5643
0.57906
0.561497
0.578715
0.551844
0.57573
0.567906
0.576635
0.55492
0.474172
0.469731
0.530668
0.56388
0.552088
0.568572
0.522151
0.6078
0.566119
0.579583
0.538505
0.611403
0.550111
0.543182
0.582233
0.615132
0.531804
0.571478
0.484128
0.532416
0.496767
0.563056
0.601608
0.589557
0.554816
0.589563
0.528921
0.594148
0.492899
0.565102
0.571207
0.569072
0.518682
0.616407
0.526896
0.563723
0.520684
0.542281
0.570115
0.544031
0.618493
0.546872
0.571406
0.551092
0.561484
0.569586
0.535433
0.587243
0.605026
0.551951
0.607849
0.498088
0.606007
0.588578
0.54285
0.560592
0.566103
0.57038
0.524795
0.596644
0.561743
0.518561
0.558915
0.597022
0.527464
0.565947
0.499931
0.561875
0.576163
0.566406
0.540659
0.564255
0.565678
0.598755
0.565272
0.570937
0.592265
0.48723
0.545769
0.552923
0.584236
0.575618
0.510344
0.563644
0.534595
0.532578
0.493122
0.469911
0.477481
0.576514
0.558441
0.575619
0.5577
0.583084
0.574298
0.569187
0.553039
0.499509
0.549619
0.567317
0.554336
0.565012
0.538184
0.608011
0.549252
0.565755
0.568826
0.540795
0.553023
0.563867
0.57379
0.53778
0.572014
0.542766
0.541664
0.537149
0.596764
0.517289
0.541529
0.525077
0.555964
0.521799
0.518965
0.542892
0.593453
0.518506
0.610013
0.583963
0.586904
0.497239
0.568443
0.552569
0.524022
0.55032
0.574191
0.567588
0.475553
0.558538
0.518428
0.567162
0.58794
0.574097
0.528133
0.573886
0.566099
0.558723
0.522417
0.527773
0.566349
0.558879
0.496041
0.490985
0.566117
0.501242
0.504644
0.537562
0.527293
0.566814
0.519991
0.518383
0.525459
0.558803
0.537148
0.517049
0.489642
0.558839
0.523033
0.587242
0.583207
0.568075
0.57043
0.539702
0.513248
0.529343
0.485254
0.485676
0.568951
0.57902
0.544278
0.573077
0.559241
0.562055
0.554734
0.496769
0.529303
0.603056
0.554764
0.586141
0.507144
0.575417
0.566318
0.59762
0.59833
0.54856
0.52058
0.524863
0.552625
0.559499
0.572575
0.56897
0.524001
0.512655
0.613564
0.519552
0.481452
0.50882
0.552311
0.528664
0.549382
0.520807
0.545117
0.548595
0.486363
0.592416
0.585074
0.527687
0.56419
0.527791
0.538292
0.566621
0.524411
0.603717
0.537338
0.542175
0.577908
0.517869
0.522221
0.569748
0.54953
0.5181
0.56463
0.571043
0.548582
0.56098
0.526934
0.547865
0.510773
0.536311
0.562368
0.542636
0.538232
0.555601
0.556755
0.508802
0.504704
0.495511
0.566871
0.579946
0.496328
0.559971
0.582949
0.539684
0.541707
0.595441
0.498475
0.534421
0.513312
0.514874
0.572007
0.559523
0.58965
0.580076
0.543667
0.540826
0.544589
0.54852
0.50763
0.509379
0.538105
0.49692
0.60298
0.531703
0.549975
0.517515
0.539751
0.590021
0.519762
0.497938
0.527501
0.507712
0.564443
0.562685
0.530501
0.489037
0.51968
0.503043
0.569801
0.578854
0.580851
0.57227
0.545742
0.57064
0.566659
0.600094
0.55429
0.569871
0.517913
0.564776
0.544546
0.529486
0.483404
0.599777
0.530049
0.56379
0.519345
0.562346
0.468227
0.48831
0.504865
0.559302
0.516174
0.510261
0.546313
0.54802
0.573774
0.523821
0.555673
0.581629
0.568316
0.566683
0.472445
0.525871
0.573649
0.510121
0.549884
0.516862
0.492662
0.546296
0.523418
0.531264
0.526486
0.520761
0.50498
0.504994
0.573907
0.566602
0.567041
0.542527
0.515263
0.52179
0.516122
0.551546
0.530927
0.565036
0.507515
0.541308
0.49475
0.567389
0.510323
0.507716
0.574957
0.566304
0.527499
0.547756
0.473023
0.506397
0.529766
0.493247
0.53583
0.55775
0.577902
0.561894
0.577355
0.550299
0.536362
0.526189
0.508927
0.52209
0.523159
0.596379
0.525389
0.552416
0.546339
0.511741
0.52849
0.589598
0.584666
0.602162
0.575212
0.470129
0.502196
0.607682
0.553169
0.518031
0.570895
0.594048
0.598559
0.534549
0.52107
0.547167
0.485645
0.472374
0.553731
0.48155
0.549972
0.518102
0.498075
0.522395
0.521941
0.546749
0.574202
0.488529
0.486002
0.533764
0.502917
0.526373
0.494736
0.514043
0.520149
0.553965
0.504198
0.545748
0.574765
0.54887
0.536612
0.509819
0.544656
0.536833
0.541701
0.499787
0.52599
0.547724
0.559297
0.525827
0.57682
0.51191
0.563405
0.477839
0.510409
0.498763
0.579147
0.546521
0.566301
0.592164
0.536978
0.548564
0.568918
0.542074
0.546977
0.501806
0.517341
0.552622
0.515725
0.560485
0.540093
0.481394
0.531381
0.514914
0.504654
0.474693
0.52235
0.523536
0.570666
0.491645
0.545098
0.555946
0.48147
0.504075
0.567393
0.504536
0.530903
0.521459
0.533472
0.473052
0.49156
0.520244
0.510562
0.522913
0.51218
0.521409
0.488497
0.551047
0.548561
0.512773
0.499162
0.533568
0.564124
0.524582
0.539905
0.565849
0.476203
0.486427
0.530225
0.471678
0.587194
0.548244
0.503701
0.526137
0.53891
0.490981
0.579441
0.566829
0.477225
0.571521
0.55538
0.531342
0.490016
0.503948
0.492887
0.520163
0.561585
0.587058
0.496821
0.512256
0.5286
0.49945
0.596789
0.510558
0.494979
0.477454
0.510314
0.509563
0.516096
0.527618
0.532833
0.535249
0.505477
0.508729
0.491545
0.573895
0.508505
0.469831
0.509839
0.508374
0.489707
0.551005
0.511597
0.561195
0.533062
0.545654
0.57412
0.536693
0.538699
0.525184
0.533662
0.585465
0.533134
0.505606
0.48737
0.543634
0.484683
0.468244
0.48467
0.550185
0.479132
0.47781
0.530755
0.551948
0.54452
0.55487
0.490554
0.480316
0.512996
0.519641
0.500437
0.564179
0.500744
0.566579
0.475605
0.46992
0.503583
0.494268
0.561169
0.516982
0.545417
0.528089
0.515033
0.513535
0.507972
0.555325
0.498781
0.504209
0.561476
0.498172
0.558407
0.47413
0.478012
0.521331
0.50623
0.511591
0.500738
0.526489
0.555882
0.586226
0.598746
0.574299
0.476154
0.47738
0.508502
0.521989
0.477298
0.474223
0.490392
0.48182
0.543814
0.566908
0.518682
0.536519
0.563332
0.475502
0.516686
0.51399
0.528827
0.553466
0.486386
0.528593
0.53041
0.554552
0.571419
0.505407
0.504003
0.558952
0.586032
0.553627
0.485477
0.562639
0.552184
0.537985
0.566939