/*--------------------------------*- C++ -*----------------------------------*\
| =========                 |                                                 |
| \\      /  F ield         | OpenFOAM: The Open Source CFD Toolbox           |
|  \\    /   O peration     | Version:  2212                                  |
|   \\  /    A nd           | Website:  www.openfoam.com                      |
|    \\/     M anipulation  |                                                 |
\*---------------------------------------------------------------------------*/
FoamFile
{
    version     2.0;
    format      ascii;
    arch        "LSB;label=32;scalar=64";
    class       volScalarField;
    location    "0.038";
    object      k;
}
// * * * * * * * * * * * * * * * * * * * * * * * * * * * * * * * * * * * * * //

dimensions      [0 2 -2 0 0 0 0];

internalField   nonuniform List<scalar> 
31639
(
0.0172461
0.0168537
0.0171083
0.0177111
0.0170823
0.0167178
0.016845
0.0173856
0.0172213
0.0174547
0.0174652
0.0174181
0.0169787
0.0175508
0.0166208
0.0165956
0.0173335
0.0168783
0.0164487
0.0169424
0.0156806
0.0175649
0.017592
0.016534
0.0164225
0.0171303
0.0168987
0.0144693
0.0168123
0.0176676
0.0174692
0.0167236
0.0175609
0.0164518
0.0160614
0.0176264
0.0153454
0.0178214
0.0175267
0.0152011
0.0159711
0.0159566
0.0173436
0.0175201
0.0175409
0.0174796
0.0166744
0.0168616
0.0173057
0.0176553
0.017433
0.015303
0.017753
0.0156496
0.0167126
0.0172289
0.0157796
0.0169772
0.0168221
0.0157536
0.0170784
0.0174914
0.0164914
0.0168454
0.0172082
0.0176558
0.0170099
0.0169618
0.0162778
0.0176294
0.0175582
0.0162507
0.0172952
0.0169485
0.01765
0.0160592
0.0174184
0.0168797
0.0166625
0.0174376
0.016427
0.015143
0.0175407
0.0171418
0.0170889
0.0174186
0.0176149
0.0175279
0.0161276
0.0177141
0.0170573
0.0171143
0.0158484
0.0167447
0.0161988
0.0167208
0.0168907
0.0169344
0.017029
0.0158102
0.0176825
0.017438
0.0166822
0.0156332
0.0157771
0.0175246
0.0156203
0.0154891
0.01628
0.0156535
0.0171862
0.0158472
0.0168022
0.0166775
0.0169344
0.0156051
0.0169582
0.0169706
0.0174738
0.0168271
0.0174262
0.0174082
0.0173103
0.0171976
0.0171197
0.0175886
0.0169411
0.0163506
0.0161674
0.0173206
0.0174317
0.0173177
0.0173952
0.0167977
0.0174105
0.0169568
0.0157644
0.0155415
0.0173648
0.0169485
0.0169197
0.0174485
0.017473
0.0155388
0.0153496
0.0175881
0.017405
0.0159357
0.0158257
0.0174644
0.0164269
0.0171939
0.0164977
0.0173496
0.0161184
0.0176505
0.0170319
0.0162433
0.0160579
0.0165211
0.0174952
0.0162289
0.0164254
0.0157065
0.015969
0.0167413
0.016075
0.0176568
0.0173943
0.0155489
0.0163426
0.0165292
0.0160318
0.0169659
0.0176977
0.0173931
0.017056
0.0176906
0.0170161
0.0168895
0.0166994
0.0168394
0.016473
0.0153262
0.0172077
0.0177442
0.016653
0.017621
0.0159498
0.015802
0.0179877
0.0174562
0.0172956
0.0168244
0.0169412
0.0167907
0.0167921
0.0173008
0.0156766
0.0167623
0.0175612
0.0177385
0.01714
0.0171708
0.0171134
0.0168892
0.0167222
0.0165481
0.0174568
0.0153707
0.016852
0.0168491
0.0172034
0.0174712
0.017443
0.0175159
0.016059
0.016544
0.0175126
0.0174291
0.0171952
0.0169286
0.0156837
0.0169597
0.0157256
0.0170157
0.0173997
0.0165595
0.0159819
0.0173519
0.0172012
0.0177587
0.0161249
0.0158704
0.0172619
0.0173191
0.0157274
0.0175301
0.0164799
0.0156185
0.0166956
0.0172093
0.0168647
0.0166433
0.016585
0.0173887
0.0166326
0.0165362
0.0159205
0.0168202
0.0165383
0.0161156
0.0166586
0.0176719
0.0174998
0.0167204
0.0160853
0.0172798
0.0172511
0.0171299
0.0176858
0.017478
0.0172326
0.0175135
0.0166765
0.0169459
0.015486
0.0164594
0.0173759
0.0165311
0.017048
0.0166556
0.0171319
0.0178438
0.0176866
0.0171207
0.0158158
0.0168863
0.0163626
0.017463
0.016953
0.0176056
0.0177021
0.0167666
0.0159271
0.0164706
0.0161006
0.0157933
0.0173927
0.0161988
0.017631
0.0167142
0.0165774
0.0161154
0.0178185
0.0167279
0.0168333
0.0175546
0.0171892
0.0165372
0.0168399
0.0161635
0.0169071
0.0166927
0.016032
0.0167666
0.0165968
0.0150366
0.015507
0.0174114
0.0175991
0.0171019
0.0156983
0.0162049
0.0172908
0.0161899
0.0161162
0.0175968
0.017752
0.0166418
0.0174758
0.0176288
0.0160287
0.0175316
0.0156082
0.0157095
0.0175495
0.01739
0.0174397
0.0176507
0.0173855
0.0161157
0.0167676
0.016727
0.017554
0.017779
0.0177654
0.0167491
0.0164829
0.0172612
0.0172931
0.017173
0.0165639
0.0168874
0.0166336
0.0169531
0.0172898
0.0165861
0.0160219
0.0173215
0.0177845
0.0167393
0.0176674
0.0175035
0.0168208
0.016041
0.0167824
0.0167954
0.0156835
0.0177713
0.0161774
0.0172055
0.0173668
0.0155265
0.0168917
0.0168364
0.0157867
0.0170993
0.0161127
0.0169575
0.0177202
0.0173523
0.0154912
0.0171722
0.0161116
0.0171905
0.017461
0.0175833
0.0175647
0.016205
0.0172811
0.0156555
0.0166608
0.0156472
0.0175635
0.0173286
0.0174882
0.0174082
0.0162631
0.0177785
0.0168469
0.017254
0.0167787
0.0164075
0.0169358
0.0172791
0.0171072
0.0172812
0.0171461
0.0173923
0.016884
0.0160377
0.0170316
0.0173231
0.0172356
0.0155144
0.0175514
0.0174188
0.0168517
0.017045
0.0171888
0.0171652
0.0175681
0.0155898
0.0172101
0.0175412
0.0155355
0.0170577
0.0171592
0.0161364
0.0157596
0.0158018
0.0167494
0.0158271
0.0168275
0.0166151
0.0166989
0.0177239
0.01594
0.0173691
0.0175771
0.0168739
0.0173712
0.0167561
0.0175536
0.0169005
0.0172055
0.0176501
0.0168156
0.0158558
0.0169172
0.0176086
0.0174422
0.0173464
0.0176394
0.0166169
0.0171918
0.0174227
0.0177086
0.0176916
0.0160456
0.0167905
0.0152762
0.0170698
0.0167134
0.0159913
0.0158038
0.0167454
0.017322
0.0174558
0.0158169
0.0173307
0.0166228
0.0167887
0.0174231
0.0137408
0.0167175
0.0156865
0.0165919
0.0174411
0.0177522
0.0172838
0.0169972
0.0154164
0.0173327
0.0168794
0.0172544
0.0157445
0.0160347
0.0167926
0.0158953
0.0160827
0.0171572
0.0157025
0.01674
0.0156007
0.0173528
0.0159155
0.0176295
0.0174046
0.0173864
0.017506
0.0165589
0.0173927
0.0175282
0.0171202
0.0174741
0.0169235
0.0173594
0.0178557
0.0166707
0.0175291
0.0176003
0.016793
0.016337
0.0176631
0.0169054
0.0154092
0.0156613
0.016946
0.0176456
0.0175842
0.0168069
0.0179059
0.0179354
0.0172631
0.0170384
0.0168861
0.0168419
0.016112
0.016803
0.0172816
0.0176676
0.0164694
0.0162555
0.0162126
0.0165037
0.0167479
0.0153188
0.0173381
0.0165989
0.0172652
0.0169635
0.0173813
0.0170079
0.0160618
0.0171263
0.0175097
0.0162981
0.0174245
0.0176794
0.016681
0.0167719
0.0145011
0.0162956
0.0168129
0.0169174
0.0160994
0.0160006
0.0169524
0.0160821
0.0173008
0.0164952
0.0168947
0.0174873
0.0168556
0.0156595
0.0166658
0.0169643
0.0175574
0.0158916
0.0152221
0.0174789
0.0157565
0.017027
0.0177852
0.0159214
0.0168476
0.0176666
0.0170988
0.0158838
0.0174657
0.0171032
0.015774
0.0173695
0.017027
0.0167102
0.0172886
0.0154832
0.0164725
0.0170226
0.0167635
0.0168682
0.0172012
0.0178412
0.0174224
0.0172298
0.0175849
0.0174496
0.0173443
0.0164303
0.0172761
0.017643
0.0178988
0.0162773
0.0169493
0.0171284
0.0180291
0.016122
0.0154475
0.0175948
0.0161548
0.0177906
0.0166109
0.015976
0.0170489
0.0174672
0.017204
0.0172442
0.0155488
0.0173336
0.0170302
0.0156114
0.0175902
0.0174271
0.0142821
0.0159983
0.0162884
0.016787
0.0169982
0.016976
0.0168457
0.0169033
0.0174314
0.0169172
0.0168661
0.0160681
0.0176432
0.0157403
0.0168704
0.0169064
0.0166179
0.0177289
0.0168592
0.0163525
0.015661
0.0160573
0.0168716
0.0175102
0.016111
0.0176815
0.0170981
0.0173731
0.0159972
0.016604
0.0173387
0.0177045
0.0175265
0.0172668
0.0169417
0.0170319
0.0177163
0.0177042
0.0175814
0.0164317
0.0174507
0.0159864
0.0175953
0.0175073
0.0167949
0.0161677
0.016655
0.0151598
0.0175208
0.0171869
0.0178168
0.0168277
0.0164365
0.0158615
0.0172843
0.0156658
0.0154446
0.0162027
0.0165673
0.0159914
0.0168812
0.0158648
0.0171855
0.01725
0.0153867
0.0176943
0.0161018
0.0163622
0.0165721
0.016573
0.0173797
0.0175534
0.0176777
0.0175562
0.0168828
0.0169271
0.0167908
0.0167729
0.0156673
0.0126706
0.017614
0.0167405
0.0173776
0.017449
0.0158443
0.0175272
0.0176357
0.0173093
0.0173407
0.0172722
0.0170637
0.0176416
0.0177254
0.0169992
0.0174867
0.0174916
0.0161789
0.0174845
0.0166224
0.017323
0.016432
0.0167676
0.0164383
0.0177996
0.0167266
0.0169825
0.0169925
0.0161736
0.0176659
0.0171369
0.0167119
0.0160622
0.0172599
0.0155414
0.0173807
0.0174206
0.0164637
0.0177259
0.0177636
0.0176809
0.0158083
0.0169219
0.0170637
0.017085
0.0161173
0.0173253
0.0174561
0.0164969
0.0169166
0.0164345
0.0173357
0.0167413
0.0168296
0.0155685
0.0173061
0.0171953
0.0173763
0.0165934
0.0168398
0.0170597
0.0168562
0.0166032
0.0171584
0.0173408
0.016733
0.015551
0.0155848
0.0167238
0.0153162
0.0158301
0.017107
0.0170787
0.0173609
0.0155036
0.0166867
0.017554
0.0161787
0.0156748
0.0169299
0.0160942
0.0174233
0.0163504
0.0175924
0.0164822
0.0166274
0.0176707
0.0155665
0.0165887
0.0166751
0.0174087
0.017629
0.0175097
0.0161993
0.0172168
0.0176231
0.0166253
0.0176427
0.0174048
0.0172856
0.0174792
0.0169253
0.0178329
0.0177651
0.0177931
0.0172035
0.0166475
0.0170762
0.0168356
0.0157118
0.0165874
0.0173323
0.0174425
0.0177605
0.01682
0.0176586
0.0174626
0.0164661
0.0175048
0.0174684
0.0173196
0.0174793
0.0159352
0.0166681
0.0174094
0.0154743
0.0169972
0.0167715
0.0169299
0.0167072
0.0176541
0.0172918
0.0173971
0.016816
0.0173233
0.0170207
0.0175803
0.0170274
0.0168485
0.0160711
0.0174862
0.0162599
0.0166555
0.0169623
0.016593
0.0171204
0.0176603
0.016004
0.017641
0.0160254
0.0170582
0.0168879
0.0166786
0.0168005
0.0175907
0.0158521
0.0172895
0.0174994
0.0177177
0.0170942
0.0171051
0.0153332
0.0175205
0.0174558
0.0172275
0.0172787
0.0174326
0.0169337
0.0173464
0.0169428
0.0161357
0.0169135
0.0176319
0.0155373
0.0162612
0.0180068
0.0173996
0.0165166
0.0167431
0.0171383
0.0165077
0.0167449
0.016233
0.0174074
0.0176999
0.0154597
0.0171093
0.0174827
0.0175062
0.0178833
0.0166285
0.0174434
0.0162088
0.016152
0.0176378
0.0174786
0.0167675
0.016108
0.0173455
0.0174605
0.0164903
0.0176073
0.0174658
0.0175177
0.0172924
0.0173954
0.0170812
0.017012
0.0166661
0.016537
0.0157361
0.0170829
0.0169712
0.0160906
0.0175148
0.0157173
0.0166096
0.0168862
0.0160463
0.0167867
0.0166412
0.0171744
0.0170875
0.0174717
0.0160005
0.0160463
0.0167819
0.015851
0.0164506
0.0174429
0.0167456
0.0175145
0.0171783
0.0168021
0.0176449
0.0166937
0.0171519
0.0167483
0.016783
0.0172231
0.0162955
0.0169907
0.0174004
0.0175382
0.0177377
0.0160423
0.0157904
0.0168898
0.0174773
0.0161752
0.0166225
0.0173739
0.0168327
0.0179748
0.0168566
0.0166306
0.0174771
0.0158968
0.0174799
0.0178124
0.0161082
0.0165126
0.0167644
0.0166965
0.0177038
0.0176368
0.017368
0.0162673
0.0174004
0.0158758
0.0167557
0.017627
0.0167208
0.0179329
0.0156017
0.0168858
0.0172509
0.0169953
0.015776
0.0157116
0.0174179
0.0176456
0.0167199
0.017596
0.0172305
0.0167813
0.0159693
0.0164434
0.017205
0.0169235
0.0168912
0.0177339
0.0174958
0.0179339
0.0175879
0.017211
0.0172381
0.0172811
0.0161755
0.0175309
0.0172377
0.0170023
0.0171557
0.017694
0.0169481
0.0176043
0.0167494
0.0154082
0.017752
0.0166021
0.0175303
0.0166298
0.0174158
0.0162103
0.0172392
0.0179185
0.0169049
0.0168968
0.0158224
0.0173347
0.0175758
0.017114
0.0158773
0.0179827
0.0169387
0.0170495
0.0176293
0.0175444
0.0173778
0.0167927
0.0170875
0.0178967
0.0161927
0.016318
0.0161224
0.016415
0.0170983
0.015772
0.0176674
0.0175066
0.0178893
0.016739
0.0168096
0.0169665
0.0174789
0.0169771
0.0171971
0.0175731
0.0177675
0.0171169
0.0174405
0.0169606
0.0166709
0.0172231
0.016667
0.0177862
0.0176857
0.0176885
0.017813
0.0175548
0.0165373
0.0178723
0.0171465
0.0171349
0.0166516
0.0171197
0.0176955
0.016875
0.0173935
0.016734
0.0169037
0.0173153
0.0163189
0.0159051
0.0167164
0.0169419
0.0178011
0.0166076
0.0157368
0.0171774
0.0174728
0.0164739
0.0166288
0.0169538
0.0176742
0.0175684
0.0166589
0.0166258
0.0169255
0.0175588
0.0167012
0.0170273
0.0170155
0.0157949
0.0167838
0.0167831
0.0173793
0.017538
0.0169611
0.0176449
0.017417
0.0168776
0.017121
0.0159666
0.0162641
0.0158138
0.0177098
0.0171366
0.0177851
0.0182248
0.0173526
0.0157811
0.0174619
0.0167573
0.0173513
0.0172734
0.0173792
0.0158415
0.017711
0.0160612
0.0169435
0.0170744
0.0170016
0.017951
0.0168557
0.0173868
0.0161504
0.0168082
0.0170989
0.0176347
0.016431
0.0165083
0.0172388
0.0175001
0.0173135
0.0172495
0.0176566
0.0160834
0.0170536
0.0168237
0.0165137
0.0173795
0.0177892
0.0176862
0.0174405
0.0177747
0.0161599
0.016095
0.0161629
0.0177459
0.0158906
0.0173575
0.0172106
0.0159997
0.0166998
0.017408
0.0175951
0.0164886
0.0166734
0.0165986
0.0170161
0.0177239
0.0170688
0.016028
0.0169746
0.0178537
0.0175794
0.0179089
0.0176548
0.0181002
0.0177093
0.0175968
0.0163221
0.0158737
0.0170294
0.0165012
0.0177257
0.0160909
0.0171171
0.0168899
0.0176879
0.0163301
0.0174133
0.0173807
0.0172179
0.0168796
0.0160614
0.0175286
0.0167466
0.0178796
0.0170424
0.0178553
0.0176971
0.0170056
0.0158708
0.0160185
0.0167765
0.0173348
0.0165787
0.0180211
0.0162058
0.0174701
0.017318
0.0167788
0.0172015
0.0174463
0.017665
0.0176263
0.0177079
0.0171045
0.017229
0.0158131
0.0165832
0.0176689
0.0163229
0.0173264
0.0167844
0.0161123
0.0168431
0.0165696
0.0168172
0.0172606
0.0174512
0.0161921
0.0167612
0.017042
0.0160821
0.0165905
0.0167861
0.016983
0.0173439
0.0161171
0.0160643
0.0168673
0.0167707
0.0176535
0.0178644
0.0176057
0.0165445
0.0166792
0.0170119
0.0164883
0.0176084
0.0160357
0.0169339
0.0169498
0.0177494
0.0174965
0.0170637
0.017207
0.017603
0.0161021
0.0170861
0.0177051
0.0166158
0.0150788
0.016976
0.016171
0.017159
0.0156995
0.0177262
0.0178222
0.0177166
0.0170623
0.0160845
0.0159494
0.017502
0.0177699
0.0177394
0.0170591
0.017223
0.0172292
0.0177819
0.0175135
0.015714
0.0171015
0.0171286
0.0172033
0.0167152
0.0173512
0.0156258
0.0177508
0.0174898
0.0170364
0.0170694
0.0173342
0.016904
0.0177232
0.0172718
0.0162101
0.0168001
0.0174328
0.0167247
0.017062
0.0172842
0.0157311
0.0161346
0.0176224
0.0178264
0.0175372
0.0178169
0.0173104
0.0174885
0.0171873
0.0170568
0.0171852
0.0175299
0.016708
0.0170174
0.016457
0.016906
0.0175194
0.0155826
0.0171303
0.0157167
0.017491
0.0157681
0.0158161
0.0167278
0.0155388
0.0171893
0.0172054
0.0174803
0.0175149
0.0165856
0.0163886
0.0179337
0.0166348
0.0162055
0.0170753
0.0164831
0.017638
0.0173194
0.0171759
0.0161435
0.0175525
0.0175115
0.0176485
0.0158776
0.0165301
0.0170651
0.0174876
0.0179524
0.0159791
0.0158797
0.0176029
0.0172779
0.0177258
0.016911
0.0155592
0.0173045
0.0175261
0.0158865
0.0156872
0.0175387
0.0161406
0.0161268
0.0175484
0.0178426
0.0172863
0.0179797
0.0167817
0.0168338
0.0176234
0.0165049
0.0175897
0.0166569
0.0172076
0.0175699
0.0167226
0.0158897
0.0173462
0.0174212
0.016676
0.016836
0.0170287
0.0164809
0.0154713
0.0170944
0.0173555
0.017592
0.0166713
0.0172247
0.0158459
0.0173525
0.0178127
0.0157527
0.017585
0.0170711
0.0152729
0.0158862
0.0170113
0.0168676
0.017427
0.0167786
0.0161925
0.0174497
0.0177971
0.01766
0.0172817
0.0176097
0.015933
0.0176213
0.0169115
0.0159905
0.0160136
0.0151669
0.0159978
0.0171928
0.0168493
0.0172015
0.0169407
0.0162301
0.0164538
0.015603
0.0156037
0.0179534
0.0178356
0.0162062
0.0177122
0.0176625
0.0162088
0.0168692
0.0171879
0.0165082
0.0166006
0.0175817
0.0163877
0.0155931
0.0176386
0.0178092
0.016645
0.0176917
0.0168717
0.016378
0.0161331
0.0169038
0.0158458
0.0160803
0.0170921
0.0171396
0.0168267
0.0177136
0.0176391
0.0168662
0.0176085
0.0124243
0.0169212
0.0158845
0.0168738
0.0176851
0.0167641
0.0165207
0.0167631
0.0161009
0.0171363
0.0168358
0.0164979
0.0159736
0.0154205
0.0154406
0.0167563
0.0159811
0.0169441
0.015934
0.0167911
0.0175643
0.0172066
0.016858
0.0170379
0.0173597
0.0168676
0.0173714
0.0157507
0.017066
0.0176676
0.0176635
0.0166872
0.0179342
0.0163483
0.0174867
0.0167662
0.0158234
0.0175717
0.017658
0.0172228
0.0172252
0.017622
0.0172234
0.015471
0.0155492
0.0166953
0.0177759
0.0171289
0.017447
0.0166369
0.0167998
0.0163101
0.0158314
0.0158272
0.0158399
0.0173033
0.0170783
0.0175813
0.0165762
0.016702
0.0179167
0.0159789
0.016922
0.0177859
0.0176289
0.0163269
0.0166851
0.0173674
0.0176908
0.0176611
0.0144854
0.0172417
0.017483
0.0171883
0.0169393
0.0179184
0.0175001
0.0176364
0.0170766
0.0165019
0.0169604
0.0177058
0.0172679
0.0168267
0.0159619
0.0175333
0.017541
0.0176273
0.0173787
0.0156609
0.0152378
0.0167205
0.0173793
0.0169872
0.017047
0.0173364
0.0173823
0.017394
0.0166842
0.0174166
0.0169871
0.0175218
0.0161248
0.016109
0.0166424
0.0178439
0.016076
0.0174534
0.0159933
0.0168676
0.0169319
0.0178528
0.0169371
0.0174498
0.0177736
0.0175426
0.0171228
0.0175044
0.016946
0.0166855
0.0155426
0.0177733
0.0151396
0.0159098
0.0147879
0.0154814
0.0156962
0.0167847
0.0170633
0.0160441
0.0166338
0.0152529
0.0161749
0.0165535
0.0176533
0.0157159
0.0159341
0.0173774
0.0157377
0.0167551
0.0173795
0.0173611
0.016779
0.0160307
0.0156617
0.0166017
0.0178085
0.0164571
0.0158937
0.0172993
0.0166728
0.0171002
0.0168191
0.0161482
0.017658
0.0155284
0.0159253
0.0169151
0.0176989
0.0167023
0.0168923
0.0170014
0.0169395
0.0154466
0.0162283
0.016657
0.0175953
0.0173153
0.015866
0.015358
0.0168745
0.0177171
0.0167505
0.0168994
0.0164946
0.0166149
0.016799
0.0158488
0.017613
0.0165796
0.0158528
0.015311
0.0172831
0.0168946
0.0176858
0.0170466
0.0174534
0.0159246
0.0168435
0.0155277
0.0153502
0.0176388
0.0161614
0.0169742
0.0169285
0.0165939
0.0158879
0.0176555
0.0174278
0.0176722
0.0172045
0.0149887
0.0168915
0.0154642
0.0177439
0.0160659
0.0176285
0.0152655
0.0171772
0.0174785
0.0166463
0.0167017
0.0154544
0.0164746
0.0168495
0.0174254
0.0172835
0.0176545
0.0176272
0.0159622
0.0176833
0.0154496
0.0170707
0.0172077
0.0175186
0.0175722
0.016653
0.0177896
0.016865
0.0165331
0.0165114
0.0170611
0.017584
0.0164192
0.0161438
0.0176669
0.0173786
0.0167668
0.0178332
0.0171484
0.0172571
0.0174698
0.0174498
0.0176088
0.0167379
0.0165955
0.0175381
0.0174544
0.015307
0.0167775
0.0163699
0.0177303
0.0171331
0.0174648
0.0159603
0.0158701
0.0169866
0.017266
0.0173934
0.017557
0.0174865
0.0170014
0.0173025
0.016042
0.0172587
0.016838
0.0176051
0.017592
0.0175854
0.0171058
0.017619
0.0163845
0.0175973
0.0163454
0.0166622
0.0167104
0.0169811
0.0166367
0.0173144
0.0157754
0.0175189
0.0174315
0.0168965
0.0159452
0.0177679
0.0172542
0.0175374
0.01679
0.0169263
0.0174702
0.0158049
0.0175817
0.0169927
0.0170477
0.0163532
0.0164613
0.0165437
0.0158137
0.0166451
0.0178101
0.0170769
0.0154048
0.0172737
0.0157117
0.0171944
0.0171547
0.0155646
0.0156496
0.0165667
0.0170841
0.0174794
0.0166484
0.0169172
0.0169266
0.0153868
0.0166865
0.0175947
0.0175812
0.0175951
0.0170604
0.0172649
0.0160133
0.0159765
0.0177995
0.0169293
0.0172438
0.0174092
0.017861
0.017011
0.0170523
0.0155069
0.0172444
0.0175157
0.0166159
0.0176309
0.0174615
0.0171668
0.0162278
0.0173205
0.01676
0.0153526
0.0170061
0.0162268
0.0158912
0.0172311
0.0169848
0.0176003
0.017545
0.0170975
0.0177782
0.0152694
0.0166443
0.0177119
0.0177553
0.0156324
0.0172361
0.0161101
0.0163684
0.0175915
0.0165369
0.0172293
0.0178791
0.0173379
0.0154197
0.0174033
0.0159637
0.0174831
0.0172234
0.0170684
0.0174794
0.0170407
0.0174639
0.0158944
0.0174694
0.0175892
0.0160881
0.0171359
0.0168873
0.0167992
0.0174757
0.0168499
0.0174616
0.0177256
0.0176362
0.0168615
0.0176029
0.0169488
0.0172748
0.0163972
0.0163154
0.0158067
0.0155471
0.0172035
0.0172657
0.0168621
0.0177036
0.0163912
0.0176617
0.0155827
0.0178298
0.0177314
0.0173088
0.0176304
0.0163694
0.0155374
0.0167885
0.0159294
0.017457
0.0169506
0.0155963
0.0167625
0.0178505
0.0173923
0.0157493
0.0164073
0.0154615
0.0178958
0.0158422
0.0174946
0.0161927
0.0160988
0.0176856
0.0176697
0.0175886
0.0172783
0.0157494
0.0171603
0.0177341
0.0161233
0.0176925
0.0171714
0.017835
0.0153987
0.0172349
0.0165563
0.0172187
0.0166982
0.0166425
0.0166682
0.016597
0.0168448
0.0168429
0.0171144
0.0167218
0.0177519
0.0161479
0.0168003
0.016945
0.0173355
0.0177739
0.0161021
0.0173391
0.0159717
0.0166648
0.0175602
0.0176097
0.016925
0.0172109
0.017326
0.0165327
0.0167987
0.0168395
0.0157916
0.0156826
0.017186
0.0174218
0.0162942
0.0167612
0.0174458
0.0159896
0.0170707
0.016102
0.0172809
0.0176808
0.0169253
0.0158067
0.0174544
0.0157224
0.0171973
0.0177542
0.0153191
0.0179462
0.0161026
0.016682
0.0166932
0.0158088
0.0166138
0.0164467
0.0155013
0.0176624
0.0176634
0.0151496
0.0166342
0.0171142
0.0171249
0.0171807
0.0178193
0.0175548
0.0165738
0.0163746
0.0156265
0.0154013
0.0146935
0.017733
0.0172321
0.0172494
0.0172861
0.0158193
0.0157764
0.0167304
0.0175986
0.0154809
0.0172362
0.0168065
0.0169548
0.0171733
0.0163905
0.0173175
0.0166011
0.0169871
0.0177841
0.0150136
0.0169084
0.0173085
0.0174858
0.0172072
0.0174553
0.0170507
0.0158828
0.01782
0.0181687
0.0168763
0.0168648
0.0160885
0.0166916
0.0172496
0.017554
0.016865
0.0167407
0.0165819
0.0155861
0.016664
0.0176742
0.0169884
0.0179454
0.0170186
0.0169272
0.0177696
0.0159541
0.017398
0.0158025
0.0177561
0.0173006
0.0166411
0.0180105
0.0165708
0.0169502
0.0177662
0.0167588
0.01756
0.0169879
0.0173583
0.0158964
0.0168955
0.0167713
0.0162732
0.0173928
0.0164845
0.0165074
0.0177287
0.0159887
0.0176029
0.0168538
0.0175708
0.016573
0.0171466
0.01596
0.0161069
0.0177479
0.0159771
0.016816
0.0174363
0.0156943
0.0168828
0.0174121
0.0166035
0.0159231
0.0164796
0.0168475
0.0166461
0.0173188
0.0169353
0.0175513
0.016848
0.017539
0.0154408
0.0159659
0.0177255
0.016618
0.0156751
0.0159626
0.016987
0.0141939
0.0156972
0.0168685
0.0167987
0.0177764
0.0162398
0.0174567
0.0175788
0.0177078
0.0174704
0.0177015
0.0166648
0.016398
0.0173813
0.0166618
0.0164527
0.0175039
0.0167289
0.0154874
0.0157118
0.0167984
0.0147394
0.0173638
0.0173647
0.0164509
0.0173916
0.0174482
0.0171931
0.0180136
0.0166356
0.0158232
0.0165656
0.0167602
0.0173696
0.016452
0.0171261
0.0177091
0.01679
0.0165868
0.0169566
0.017785
0.0174133
0.0181102
0.0176263
0.0169984
0.0171786
0.0162293
0.0166585
0.0177223
0.0163891
0.0177177
0.0164438
0.0173835
0.0151893
0.0173101
0.0168214
0.0172856
0.0164483
0.0172669
0.0167919
0.0173938
0.0152124
0.0163408
0.0168326
0.0166275
0.0170295
0.0169531
0.0169418
0.0175962
0.017137
0.0156732
0.0164442
0.0158465
0.0170539
0.0169079
0.0159512
0.0180255
0.016969
0.0169826
0.0174935
0.0163351
0.0160217
0.0176458
0.0159717
0.0156261
0.0155652
0.0155799
0.0155326
0.0165722
0.0177063
0.0174654
0.0168514
0.0170017
0.0173457
0.0166282
0.0173282
0.0156116
0.0175239
0.0127794
0.0173681
0.0157277
0.0156943
0.017407
0.0157428
0.0170585
0.0172959
0.0174363
0.0162356
0.0170566
0.0167691
0.0168101
0.0158794
0.0174079
0.0171147
0.0174993
0.017008
0.0159136
0.0170866
0.0167724
0.0166709
0.0156022
0.0162529
0.0161421
0.015551
0.0157389
0.0168495
0.0166263
0.0159467
0.0166078
0.0175682
0.0175414
0.017758
0.0127575
0.0157069
0.0175668
0.0158333
0.0174035
0.0155791
0.0176456
0.0174462
0.0174597
0.0158911
0.0169003
0.0176951
0.0176716
0.0172151
0.0175724
0.0168704
0.0170757
0.0167725
0.0157548
0.0171106
0.0165626
0.0166192
0.0166573
0.0157623
0.0167766
0.0175272
0.016316
0.0163796
0.0157784
0.0172648
0.0172467
0.0154628
0.0167789
0.0168568
0.0172881
0.0159293
0.0169645
0.0170399
0.0180652
0.0140252
0.0170411
0.0167214
0.0156932
0.0175492
0.0162212
0.0161175
0.0172203
0.01767
0.0156225
0.0175647
0.0171104
0.0158267
0.0156472
0.0175692
0.0176405
0.0157379
0.016922
0.015577
0.016311
0.0177076
0.0165052
0.0172283
0.0173263
0.0177132
0.0165561
0.0165953
0.0164218
0.0168927
0.0170959
0.0164835
0.017427
0.0158832
0.0159596
0.0170591
0.0168417
0.0172682
0.0165708
0.0173309
0.0173531
0.0169539
0.0175605
0.0172742
0.016692
0.0162612
0.0173002
0.0166603
0.0163501
0.0171217
0.0177469
0.0173857
0.0168177
0.0158067
0.0171677
0.0163736
0.0156222
0.0165058
0.016917
0.0156165
0.017234
0.0161972
0.0149994
0.0156541
0.0172242
0.0147979
0.0166767
0.0173953
0.017132
0.0157531
0.0171815
0.0180971
0.0159093
0.0155323
0.0160165
0.0174224
0.0168248
0.0166768
0.0174952
0.0157432
0.0173879
0.0168731
0.0176921
0.0177465
0.0129934
0.0169345
0.0173325
0.0174482
0.0167086
0.0166598
0.0143487
0.0170109
0.0176287
0.0165227
0.0156172
0.0168407
0.0173769
0.0171118
0.015573
0.0170889
0.0173806
0.017586
0.0167438
0.0170619
0.0155112
0.0157252
0.015676
0.0169039
0.016659
0.0171782
0.0177563
0.0174977
0.0151547
0.0174962
0.0175223
0.0172516
0.0166404
0.0174684
0.0162414
0.0160538
0.0166073
0.0169518
0.0162945
0.015415
0.0172156
0.0166188
0.0174029
0.0161982
0.0149614
0.0164606
0.0174593
0.0171561
0.0161871
0.0165236
0.0174519
0.0175142
0.0164083
0.0166821
0.0173622
0.0177052
0.0172822
0.0177198
0.0172144
0.0171476
0.0155129
0.0168987
0.0159517
0.0174235
0.0171223
0.016461
0.0157735
0.0177729
0.0155195
0.0165873
0.015812
0.0167146
0.0151045
0.0169388
0.0167978
0.0168339
0.0167761
0.0162968
0.0175476
0.0159022
0.0172891
0.0166608
0.0167274
0.0152557
0.0173449
0.0169458
0.0159528
0.0163315
0.0168609
0.0168151
0.0170752
0.0141818
0.0170643
0.016677
0.0168067
0.0163403
0.0164531
0.0164204
0.0143072
0.0174842
0.0168805
0.0106123
0.0159983
0.017286
0.0174416
0.0172922
0.0161029
0.0142594
0.0174459
0.0159261
0.0173654
0.0177105
0.0170591
0.016149
0.0175062
0.0156201
0.0151889
0.0153112
0.0170939
0.0167288
0.0165058
0.0177407
0.0173376
0.0170576
0.0161909
0.015295
0.0178468
0.0169749
0.0178952
0.0173724
0.0158117
0.0165569
0.0170036
0.0157733
0.0168338
0.016553
0.0169716
0.018221
0.0168759
0.0168548
0.0157892
0.0168045
0.0164632
0.0172192
0.0166879
0.0156248
0.0160225
0.0170971
0.0173123
0.0158436
0.0172411
0.0162986
0.01722
0.0161028
0.0160037
0.0142815
0.0176007
0.0174431
0.0171757
0.0175044
0.0165973
0.0159718
0.015423
0.0144674
0.0169493
0.0155451
0.0167225
0.0165223
0.0174689
0.0166197
0.0173636
0.0162144
0.01108
0.0159198
0.0174114
0.0117453
0.0169347
0.0178377
0.0169573
0.0177021
0.0156871
0.0159702
0.0161545
0.0176989
0.0141317
0.0177151
0.0159154
0.014757
0.0173723
0.016016
0.0174981
0.0115719
0.0152574
0.0170433
0.0173913
0.0176581
0.0172394
0.0175407
0.017177
0.0171472
0.0174483
0.0173001
0.0167364
0.0164181
0.0142371
0.0173715
0.0163857
0.016426
0.0175928
0.0176298
0.0170612
0.0156474
0.0175921
0.0172511
0.0166946
0.0159211
0.0155765
0.0172245
0.0175984
0.0174571
0.0174861
0.0169506
0.0169558
0.0156938
0.0173884
0.0168798
0.0171051
0.0165574
0.0155812
0.0147245
0.0165477
0.0179937
0.0172042
0.0168328
0.0160509
0.0164782
0.0161134
0.0157449
0.0174311
0.0165105
0.01344
0.0139584
0.0150215
0.0158562
0.0171319
0.0166409
0.0168605
0.01649
0.0150522
0.0169094
0.0174162
0.015208
0.0179628
0.0154458
0.017585
0.0160928
0.0174112
0.0173379
0.0169736
0.0172352
0.0164679
0.0158962
0.0161538
0.0164278
0.0172251
0.0169608
0.0161067
0.0161557
0.0169716
0.0155624
0.0168507
0.0161342
0.0173755
0.0163032
0.0166638
0.0136049
0.0174728
0.0177329
0.0169561
0.0172816
0.0165585
0.016696
0.0172905
0.0171683
0.0170894
0.0176842
0.016992
0.0155778
0.0154321
0.0180478
0.015663
0.0155785
0.0153757
0.0171112
0.0176464
0.0168093
0.017737
0.0180323
0.0176074
0.0172168
0.0164893
0.0156678
0.0168384
0.0149894
0.0171103
0.0168741
0.0166151
0.0165682
0.0161636
0.016753
0.0177127
0.0151287
0.0162493
0.01681
0.0152708
0.0174551
0.0146875
0.0150752
0.0155505
0.0172907
0.0159906
0.0156545
0.0160626
0.0154068
0.0168237
0.0140813
0.0142277
0.0167976
0.015686
0.0152143
0.0167309
0.0157917
0.0163227
0.0167501
0.016216
0.0155994
0.0169171
0.0159793
0.0163126
0.0155876
0.0164231
0.0164384
0.0145784
0.0175399
0.0166824
0.0168968
0.0162183
0.0158479
0.0155612
0.0166961
0.0166667
0.0175474
0.0169404
0.0172502
0.0163884
0.0168713
0.0174253
0.0173609
0.0140236
0.0142942
0.0153756
0.0173643
0.0154729
0.0168822
0.0138937
0.0162798
0.0169376
0.0163595
0.0165911
0.0162353
0.0164002
0.0164184
0.0177086
0.0159669
0.0164136
0.0177619
0.0153774
0.0165112
0.0157165
0.0172762
0.0160919
0.0155017
0.0167509
0.0156789
0.0142627
0.0147456
0.0156876
0.0162035
0.0145613
0.0176498
0.0160566
0.0152818
0.0164108
0.0173822
0.0164573
0.0148427
0.0177438
0.0168803
0.0155721
0.0164088
0.0167237
0.0157181
0.0166425
0.0167628
0.0164917
0.0155272
0.0152572
0.0165921
0.0159629
0.0148199
0.0151283
0.0152202
0.0167492
0.0152911
0.0173308
0.0166416
0.0166504
0.0161573
0.01743
0.0155846
0.0167743
0.0162273
0.01149
0.0175205
0.0149366
0.0167722
0.0173488
0.0174785
0.0143028
0.0172042
0.0175991
0.0157983
0.0168952
0.0165071
0.016083
0.0142805
0.0166327
0.0158901
0.0174436
0.0178878
0.0161603
0.017588
0.0157499
0.0158468
0.0153449
0.0141132
0.0145844
0.017587
0.0146035
0.0172994
0.0158823
0.0149765
0.0163983
0.017618
0.0145436
0.012003
0.015748
0.0170468
0.017317
0.0169247
0.0110457
0.0163209
0.0171736
0.0170103
0.0176864
0.0162548
0.0146708
0.0174941
0.0146481
0.0168073
0.0163179
0.0161155
0.016043
0.0169296
0.0156943
0.0155904
0.0144991
0.0157271
0.0171192
0.0165791
0.0165191
0.015252
0.0159812
0.0161057
0.0157275
0.0170986
0.015165
0.0155545
0.0168777
0.0173158
0.0151756
0.0172199
0.0159906
0.0179021
0.0148927
0.0174719
0.0163585
0.0169032
0.0168886
0.0160487
0.0156266
0.0178362
0.0166341
0.0167065
0.0164294
0.0154123
0.0171475
0.0174294
0.0153726
0.0156245
0.0160897
0.0148807
0.0160332
0.0167478
0.0143902
0.0176627
0.0144843
0.0161211
0.016649
0.0146896
0.0159957
0.0163897
0.0156296
0.016495
0.0155874
0.0166942
0.0148821
0.0170053
0.0149326
0.0160871
0.0134019
0.0165107
0.0151234
0.0154922
0.0169983
0.0153626
0.0158707
0.0177589
0.0168597
0.0169205
0.0173808
0.0146672
0.0166342
0.0159318
0.0166353
0.0167405
0.0161826
0.0174884
0.0168993
0.0153977
0.0152825
0.0171104
0.0165411
0.0166235
0.0143203
0.0173844
0.0178364
0.017163
0.0165394
0.0155424
0.0157952
0.0162352
0.0152835
0.0154846
0.0170076
0.0163102
0.015983
0.0162297
0.0161621
0.0164383
0.0149109
0.0158997
0.0154419
0.0143557
0.0175692
0.0163886
0.0156388
0.0173492
0.0163994
0.0161759
0.0168317
0.0145174
0.0154263
0.0149605
0.015049
0.0177185
0.0168721
0.0140681
0.0173929
0.0147696
0.0164386
0.0167179
0.0163325
0.0172511
0.0160922
0.0165763
0.0162286
0.0160367
0.0159477
0.017178
0.0149018
0.0152942
0.0160331
0.0144517
0.0160485
0.0145907
0.0157534
0.0174053
0.0166262
0.0139597
0.0140626
0.0153959
0.0150284
0.0158931
0.0154578
0.0161595
0.0168787
0.0140929
0.0168164
0.0163964
0.015985
0.0148405
0.0163634
0.0146527
0.0136452
0.0155425
0.0152318
0.0153422
0.0159149
0.0158258
0.0161548
0.0151626
0.0170878
0.0152702
0.0162674
0.0154944
0.0163847
0.015902
0.0149336
0.0167156
0.0161809
0.0143121
0.0154419
0.0160334