/*--------------------------------*- C++ -*----------------------------------*\
| =========                 |                                                 |
| \\      /  F ield         | OpenFOAM: The Open Source CFD Toolbox           |
|  \\    /   O peration     | Version:  2212                                  |
|   \\  /    A nd           | Website:  www.openfoam.com                      |
|    \\/     M anipulation  |                                                 |
\*---------------------------------------------------------------------------*/
FoamFile
{
    version     2.0;
    format      ascii;
    arch        "LSB;label=32;scalar=64";
    class       volScalarField;
    location    "0.038";
    object      nut;
}
// * * * * * * * * * * * * * * * * * * * * * * * * * * * * * * * * * * * * * //

dimensions      [0 2 -1 0 0 0 0];

internalField   nonuniform List<scalar> 
31639
(
4.69148e-05
4.50631e-05
4.61299e-05
4.99048e-05
4.5209e-05
4.40131e-05
4.33574e-05
4.73515e-05
4.65286e-05
4.85181e-05
4.82267e-05
4.82952e-05
4.59204e-05
4.92389e-05
4.40254e-05
4.193e-05
4.71614e-05
4.40529e-05
4.1911e-05
4.53667e-05
3.64013e-05
4.85658e-05
4.93215e-05
4.21844e-05
4.12713e-05
4.6001e-05
4.53344e-05
3.98545e-05
4.35444e-05
4.94446e-05
4.86234e-05
4.30278e-05
4.92405e-05
4.14194e-05
3.83562e-05
4.92635e-05
3.48131e-05
5.03116e-05
4.88584e-05
3.34731e-05
3.84437e-05
3.79827e-05
4.82243e-05
4.83924e-05
4.83431e-05
4.8657e-05
4.39937e-05
4.41118e-05
4.71545e-05
4.9578e-05
4.84105e-05
3.44641e-05
4.98096e-05
3.5788e-05
4.33067e-05
4.63462e-05
3.68057e-05
4.5581e-05
4.49693e-05
3.67829e-05
4.56742e-05
4.78748e-05
4.11385e-05
4.49921e-05
4.65409e-05
4.97453e-05
4.56897e-05
4.5605e-05
3.96204e-05
4.94883e-05
4.90172e-05
4.20334e-05
4.77782e-05
4.55655e-05
4.92139e-05
3.81632e-05
4.84372e-05
4.41251e-05
4.42113e-05
4.77922e-05
4.13614e-05
3.3149e-05
4.90877e-05
4.65528e-05
4.6907e-05
4.83758e-05
4.94385e-05
4.89569e-05
3.93352e-05
4.99477e-05
4.61467e-05
4.57425e-05
3.75261e-05
4.45169e-05
4.03058e-05
4.42972e-05
4.45904e-05
4.55187e-05
4.5921e-05
3.71199e-05
4.95737e-05
4.84028e-05
4.44802e-05
3.62467e-05
3.71566e-05
4.88608e-05
3.61307e-05
3.51429e-05
4.04036e-05
3.58831e-05
4.76197e-05
3.74752e-05
4.44941e-05
4.28792e-05
4.57031e-05
3.58282e-05
4.40369e-05
4.42609e-05
4.79892e-05
4.4856e-05
4.77354e-05
4.81492e-05
4.78665e-05
4.6432e-05
4.55871e-05
4.90139e-05
4.53444e-05
4.09031e-05
3.99377e-05
4.80054e-05
4.86042e-05
4.81386e-05
4.85426e-05
4.34265e-05
4.78014e-05
4.56644e-05
3.70407e-05
3.56754e-05
4.80327e-05
4.55029e-05
4.5355e-05
4.83765e-05
4.85704e-05
3.5681e-05
3.43157e-05
4.94112e-05
4.79737e-05
3.77609e-05
3.75303e-05
4.84879e-05
4.04851e-05
4.62196e-05
4.20752e-05
4.74273e-05
3.86368e-05
4.95857e-05
4.53345e-05
3.94276e-05
3.88851e-05
4.20172e-05
4.88119e-05
3.90034e-05
4.04947e-05
3.64518e-05
3.76018e-05
4.43805e-05
3.83075e-05
4.94918e-05
4.81355e-05
3.61021e-05
4.25512e-05
4.32769e-05
3.82737e-05
4.57689e-05
5.00139e-05
4.78703e-05
4.61135e-05
4.96742e-05
4.60284e-05
4.57071e-05
4.43135e-05
4.43129e-05
4.3513e-05
3.42121e-05
4.61811e-05
5.00825e-05
4.43592e-05
4.928e-05
3.75079e-05
3.69933e-05
5.0744e-05
4.79764e-05
4.72103e-05
4.48775e-05
4.55523e-05
4.35567e-05
4.32703e-05
4.7835e-05
3.65764e-05
4.35653e-05
4.89459e-05
4.98421e-05
4.73686e-05
4.74982e-05
4.53701e-05
4.50986e-05
4.43852e-05
4.36777e-05
4.82662e-05
3.42836e-05
4.49415e-05
4.37658e-05
4.67527e-05
4.82356e-05
4.73894e-05
4.91136e-05
3.8594e-05
4.18872e-05
4.82819e-05
4.82364e-05
4.72409e-05
4.4397e-05
3.64748e-05
4.49253e-05
3.65765e-05
4.45762e-05
4.79028e-05
4.17473e-05
3.79865e-05
4.728e-05
4.67025e-05
5.00823e-05
3.91003e-05
3.69656e-05
4.70805e-05
4.74384e-05
3.70562e-05
4.91819e-05
4.0685e-05
3.61443e-05
4.42955e-05
4.69154e-05
4.51428e-05
4.21805e-05
4.12258e-05
4.73939e-05
4.41409e-05
4.336e-05
3.80736e-05
4.48451e-05
4.37151e-05
3.83399e-05
4.2132e-05
4.95769e-05
4.83675e-05
4.29147e-05
3.86314e-05
4.76693e-05
4.75412e-05
4.4876e-05
4.9804e-05
4.87158e-05
4.63833e-05
4.88135e-05
4.4117e-05
4.4567e-05
3.58522e-05
4.15889e-05
4.86854e-05
4.37096e-05
4.70666e-05
4.27609e-05
4.54928e-05
4.95544e-05
4.97503e-05
4.59701e-05
3.71875e-05
4.4072e-05
4.05056e-05
4.85811e-05
4.45155e-05
4.90485e-05
4.96993e-05
4.31518e-05
3.80006e-05
4.0337e-05
3.87595e-05
3.65225e-05
4.84292e-05
3.94816e-05
4.87759e-05
4.45381e-05
4.23969e-05
3.90445e-05
5.01361e-05
4.30888e-05
4.22199e-05
4.86986e-05
4.56027e-05
4.0705e-05
4.47963e-05
3.94817e-05
4.53303e-05
4.43796e-05
3.82115e-05
4.35961e-05
4.38098e-05
3.31668e-05
3.52741e-05
4.8326e-05
4.93316e-05
4.74903e-05
3.64793e-05
3.88888e-05
4.7631e-05
3.97207e-05
3.98854e-05
4.90879e-05
4.97808e-05
4.38708e-05
4.85857e-05
4.95025e-05
3.83617e-05
4.92055e-05
3.56585e-05
3.60746e-05
4.8723e-05
4.81669e-05
4.85228e-05
4.95883e-05
4.75632e-05
3.90944e-05
4.49314e-05
4.45625e-05
4.88847e-05
4.97198e-05
5.00591e-05
4.44622e-05
4.33824e-05
4.68924e-05
4.77422e-05
4.67916e-05
4.3606e-05
4.4751e-05
4.40987e-05
4.48504e-05
4.73557e-05
4.40791e-05
3.82221e-05
4.66312e-05
5.02442e-05
4.33691e-05
4.90409e-05
4.91745e-05
4.49103e-05
3.82622e-05
4.4764e-05
4.46895e-05
3.63346e-05
4.98274e-05
3.91713e-05
4.6088e-05
4.84601e-05
3.54265e-05
4.51572e-05
4.48396e-05
3.71411e-05
4.57847e-05
3.88072e-05
4.4951e-05
4.95039e-05
4.69413e-05
3.51585e-05
4.64292e-05
3.88945e-05
4.64908e-05
4.85435e-05
4.89396e-05
4.86035e-05
3.91322e-05
4.7881e-05
3.65349e-05
4.41029e-05
3.59804e-05
4.92226e-05
4.80985e-05
4.87781e-05
4.83758e-05
4.07577e-05
4.95544e-05
4.49305e-05
4.68617e-05
4.46306e-05
3.95468e-05
4.49682e-05
4.73761e-05
4.68653e-05
4.76142e-05
4.60262e-05
4.76109e-05
4.44459e-05
3.80638e-05
4.48798e-05
4.74386e-05
4.73975e-05
3.531e-05
4.89238e-05
4.83135e-05
4.4851e-05
4.68153e-05
4.72908e-05
4.55982e-05
4.93629e-05
3.68666e-05
4.66455e-05
4.88466e-05
3.5464e-05
4.55415e-05
4.6524e-05
3.8823e-05
3.69985e-05
3.71635e-05
4.28507e-05
3.67708e-05
4.46396e-05
4.46517e-05
4.26182e-05
4.93147e-05
3.78382e-05
4.81781e-05
4.92389e-05
4.50909e-05
4.78276e-05
4.35834e-05
4.87881e-05
4.49501e-05
4.54276e-05
4.97518e-05
4.50135e-05
3.73527e-05
4.53732e-05
4.90623e-05
4.84999e-05
4.7335e-05
4.94856e-05
4.39208e-05
4.65282e-05
4.7989e-05
4.97735e-05
4.9257e-05
3.84589e-05
4.44618e-05
3.41031e-05
4.42461e-05
4.43162e-05
3.78214e-05
3.62197e-05
4.32283e-05
4.76209e-05
4.82258e-05
3.71296e-05
4.72793e-05
4.20099e-05
4.48013e-05
4.76807e-05
3.46007e-05
4.44299e-05
3.59135e-05
4.37697e-05
4.85534e-05
4.99742e-05
4.76759e-05
4.47453e-05
3.56538e-05
4.71683e-05
4.54228e-05
4.75755e-05
3.64994e-05
3.79726e-05
4.47023e-05
3.74006e-05
3.87705e-05
4.63299e-05
3.62569e-05
4.34257e-05
3.6848e-05
4.71095e-05
3.7859e-05
4.95421e-05
4.82145e-05
4.82107e-05
4.88944e-05
4.10034e-05
4.81896e-05
4.87913e-05
4.5853e-05
4.80101e-05
4.54867e-05
4.82118e-05
4.99799e-05
4.25452e-05
4.87582e-05
4.93559e-05
4.48904e-05
4.11791e-05
4.96398e-05
4.53293e-05
3.48644e-05
3.56483e-05
4.5284e-05
4.88816e-05
4.93144e-05
4.44931e-05
5.02525e-05
5.00038e-05
4.76031e-05
4.57257e-05
4.38106e-05
4.45359e-05
3.8878e-05
4.47652e-05
4.6532e-05
4.94399e-05
4.03132e-05
3.99102e-05
3.96218e-05
4.32639e-05
4.46537e-05
3.46177e-05
4.72718e-05
4.20731e-05
4.70237e-05
4.4978e-05
4.83354e-05
4.48516e-05
3.82909e-05
4.65234e-05
4.91167e-05
4.00377e-05
4.81516e-05
4.98764e-05
4.48906e-05
4.45427e-05
3.97768e-05
3.98538e-05
4.49314e-05
4.53404e-05
3.86887e-05
3.81876e-05
4.5505e-05
4.09667e-05
4.71474e-05
4.07411e-05
4.4155e-05
4.86585e-05
4.50614e-05
3.67272e-05
4.17353e-05
4.54987e-05
4.91172e-05
3.7343e-05
3.40322e-05
4.83981e-05
3.67424e-05
4.60586e-05
4.99991e-05
3.75439e-05
4.5199e-05
4.87128e-05
4.50552e-05
3.67685e-05
4.85659e-05
4.48366e-05
3.73814e-05
4.82494e-05
4.59677e-05
4.41253e-05
4.75981e-05
3.52987e-05
4.19262e-05
4.53719e-05
4.34707e-05
4.21683e-05
4.51394e-05
4.93786e-05
4.87385e-05
4.72551e-05
4.88265e-05
4.8721e-05
4.78337e-05
4.10844e-05
4.77165e-05
4.90799e-05
5.03564e-05
3.99875e-05
4.55422e-05
4.5839e-05
5.11744e-05
3.86915e-05
3.50192e-05
4.94127e-05
3.98948e-05
5.0298e-05
4.36496e-05
3.82917e-05
4.55309e-05
4.86205e-05
4.54315e-05
4.67845e-05
3.62084e-05
4.79357e-05
4.58367e-05
3.56426e-05
4.92339e-05
4.82132e-05
3.84786e-05
3.81553e-05
3.9139e-05
4.32842e-05
4.58703e-05
4.55425e-05
4.47437e-05
4.53813e-05
4.83804e-05
4.52892e-05
4.48857e-05
3.83132e-05
4.97587e-05
3.63465e-05
4.51275e-05
4.42007e-05
4.28554e-05
5.00738e-05
4.51118e-05
4.0486e-05
3.63423e-05
3.78311e-05
4.4109e-05
4.89215e-05
3.96474e-05
4.97815e-05
4.4739e-05
4.82476e-05
3.79845e-05
4.37769e-05
4.76049e-05
4.98595e-05
4.89127e-05
4.78722e-05
4.56132e-05
4.47603e-05
4.96603e-05
4.95619e-05
4.89046e-05
4.05378e-05
4.86187e-05
3.83025e-05
4.91731e-05
4.74331e-05
4.45509e-05
3.91197e-05
4.39755e-05
3.39114e-05
4.89405e-05
4.55774e-05
5.00967e-05
4.46112e-05
4.2889e-05
3.78744e-05
4.87135e-05
3.65905e-05
3.44426e-05
3.88114e-05
4.06206e-05
3.82616e-05
4.47704e-05
3.67794e-05
4.76774e-05
4.65438e-05
3.4518e-05
4.96331e-05
3.84931e-05
4.15131e-05
4.38087e-05
4.26435e-05
4.74991e-05
4.92069e-05
5.01144e-05
4.87391e-05
4.44762e-05
4.57594e-05
4.33266e-05
4.36075e-05
3.63703e-05
2.83213e-05
4.92619e-05
4.44075e-05
4.75955e-05
4.84106e-05
3.7299e-05
4.87973e-05
4.91615e-05
4.77343e-05
4.80834e-05
4.76496e-05
4.62036e-05
4.95176e-05
4.99314e-05
4.54538e-05
4.84148e-05
4.83724e-05
3.91095e-05
4.8581e-05
4.27115e-05
4.72935e-05
4.31476e-05
4.4811e-05
4.1579e-05
5.00671e-05
4.39714e-05
4.55103e-05
4.4397e-05
3.85744e-05
4.97476e-05
4.59611e-05
4.27517e-05
3.79932e-05
4.76237e-05
3.59496e-05
4.87138e-05
4.73896e-05
4.30579e-05
4.91645e-05
5.01253e-05
4.89867e-05
3.69498e-05
4.54149e-05
4.45001e-05
4.54839e-05
3.89785e-05
4.80192e-05
4.85472e-05
4.30594e-05
4.51767e-05
4.29681e-05
4.71284e-05
4.29082e-05
4.4435e-05
3.57287e-05
4.79691e-05
4.64479e-05
4.85384e-05
4.11664e-05
4.52182e-05
4.63606e-05
4.49625e-05
4.19592e-05
4.65846e-05
4.80411e-05
4.42167e-05
3.58503e-05
3.58042e-05
4.44752e-05
3.49079e-05
3.83091e-05
4.60074e-05
4.61308e-05
4.83562e-05
3.55859e-05
4.44696e-05
4.91819e-05
3.9454e-05
3.67114e-05
4.59707e-05
3.88813e-05
4.69496e-05
3.98853e-05
4.88122e-05
4.12675e-05
4.25021e-05
4.95618e-05
3.59146e-05
4.36821e-05
4.411e-05
4.82527e-05
4.91247e-05
4.90256e-05
3.89506e-05
4.74614e-05
4.88298e-05
4.25414e-05
4.95689e-05
4.81633e-05
4.68541e-05
4.8713e-05
4.55908e-05
5.00632e-05
4.998e-05
4.99155e-05
4.72638e-05
4.28862e-05
4.61583e-05
4.51524e-05
3.7015e-05
4.40633e-05
4.7088e-05
4.86086e-05
4.93597e-05
4.43918e-05
4.96197e-05
4.82882e-05
4.33657e-05
4.80332e-05
4.84605e-05
4.72369e-05
4.77643e-05
3.78652e-05
4.34398e-05
4.82888e-05
3.4927e-05
4.48723e-05
4.45037e-05
4.42871e-05
4.41177e-05
4.96541e-05
4.7594e-05
4.84766e-05
4.45402e-05
4.73646e-05
4.56873e-05
4.86725e-05
4.59097e-05
4.36712e-05
3.84065e-05
4.86343e-05
3.87801e-05
4.37245e-05
4.4577e-05
4.34823e-05
4.60965e-05
4.95744e-05
3.78847e-05
4.92905e-05
3.838e-05
4.61421e-05
4.34239e-05
4.40775e-05
4.47028e-05
4.93788e-05
3.7435e-05
4.756e-05
4.86126e-05
4.88409e-05
4.58224e-05
4.55982e-05
3.44602e-05
4.86794e-05
4.8208e-05
4.70119e-05
4.7822e-05
4.85386e-05
4.56629e-05
4.61526e-05
4.56353e-05
3.93017e-05
4.43191e-05
4.94442e-05
3.61849e-05
3.98899e-05
5.09431e-05
4.82986e-05
4.1877e-05
4.35866e-05
4.57861e-05
4.18484e-05
4.45622e-05
4.0087e-05
4.81145e-05
4.91592e-05
3.47615e-05
4.57531e-05
4.90552e-05
4.79845e-05
4.96144e-05
4.41064e-05
4.84934e-05
3.92714e-05
3.89515e-05
4.94665e-05
4.84369e-05
4.50684e-05
3.93362e-05
4.79676e-05
4.84434e-05
4.07334e-05
4.90388e-05
4.87465e-05
4.8948e-05
4.68695e-05
4.8432e-05
4.57586e-05
4.62523e-05
4.44967e-05
4.24186e-05
3.70543e-05
4.60374e-05
4.57414e-05
3.92042e-05
4.90178e-05
3.63649e-05
4.3682e-05
4.45466e-05
3.83197e-05
4.43661e-05
4.27608e-05
4.69664e-05
4.54441e-05
4.80537e-05
3.76948e-05
3.78773e-05
4.37971e-05
3.75803e-05
4.30368e-05
4.85675e-05
4.44036e-05
4.87993e-05
4.51405e-05
4.47317e-05
4.89667e-05
4.29426e-05
4.53579e-05
4.47456e-05
4.45453e-05
4.64128e-05
3.9384e-05
4.54613e-05
4.79085e-05
4.9269e-05
5.00209e-05
3.76581e-05
3.72668e-05
4.50593e-05
4.87752e-05
3.98781e-05
4.36973e-05
4.67019e-05
4.49499e-05
5.09581e-05
4.43435e-05
4.396e-05
4.74496e-05
3.76408e-05
4.8694e-05
4.92258e-05
3.87009e-05
4.1606e-05
4.47168e-05
4.28418e-05
4.95289e-05
4.90793e-05
4.66244e-05
3.92495e-05
4.82552e-05
3.76264e-05
4.39962e-05
4.83701e-05
4.21088e-05
5.04432e-05
3.60234e-05
4.50601e-05
4.66481e-05
4.54817e-05
3.62462e-05
3.68276e-05
4.87099e-05
4.93213e-05
4.31602e-05
4.94821e-05
4.66188e-05
4.48782e-05
3.77354e-05
4.02685e-05
4.63164e-05
4.49102e-05
4.49598e-05
4.97215e-05
4.89944e-05
5.03707e-05
4.9417e-05
4.63744e-05
4.6207e-05
4.77218e-05
3.83233e-05
4.83094e-05
4.72993e-05
4.58792e-05
4.61466e-05
4.92179e-05
4.41243e-05
4.94538e-05
4.42466e-05
3.49361e-05
4.99909e-05
4.1692e-05
4.87808e-05
4.28162e-05
4.86184e-05
3.89074e-05
4.74298e-05
5.08243e-05
4.48047e-05
4.53212e-05
3.6825e-05
4.81052e-05
4.89213e-05
4.68624e-05
3.7549e-05
5.13706e-05
4.4995e-05
4.684e-05
4.88902e-05
4.87232e-05
4.80192e-05
4.46647e-05
4.46864e-05
5.02137e-05
3.87999e-05
3.93287e-05
3.84749e-05
4.07219e-05
4.61974e-05
3.67024e-05
4.95341e-05
4.87506e-05
4.9828e-05
4.41303e-05
4.45605e-05
4.55074e-05
4.86724e-05
4.54697e-05
4.54095e-05
4.90007e-05
4.89309e-05
4.46406e-05
4.87001e-05
4.57744e-05
4.39776e-05
4.73105e-05
4.26425e-05
4.96769e-05
4.93842e-05
5.00139e-05
4.99669e-05
4.87673e-05
4.19647e-05
5.05334e-05
4.56592e-05
4.60077e-05
4.4105e-05
4.64497e-05
4.99667e-05
4.51638e-05
4.81922e-05
4.34246e-05
4.51209e-05
4.72613e-05
3.95162e-05
3.69258e-05
4.45342e-05
4.36107e-05
4.92988e-05
4.24016e-05
3.67353e-05
4.61924e-05
4.83586e-05
4.06185e-05
4.25539e-05
4.56428e-05
4.96503e-05
4.90529e-05
4.40443e-05
4.10894e-05
4.52906e-05
4.77277e-05
4.31089e-05
4.56616e-05
4.5555e-05
3.65129e-05
4.28079e-05
4.27934e-05
4.71853e-05
4.84721e-05
4.52953e-05
4.89997e-05
4.74334e-05
4.51703e-05
4.58613e-05
3.87175e-05
4.05112e-05
3.62e-05
4.87505e-05
4.62548e-05
4.96083e-05
5.20122e-05
4.76017e-05
3.70194e-05
4.80386e-05
4.32947e-05
4.69183e-05
4.68319e-05
4.8212e-05
3.70286e-05
4.98755e-05
3.8307e-05
4.56709e-05
4.57943e-05
4.47914e-05
5.0691e-05
4.43522e-05
4.75413e-05
3.95486e-05
4.4502e-05
4.514e-05
4.81911e-05
4.19035e-05
4.0125e-05
4.77165e-05
4.84686e-05
4.69149e-05
4.75825e-05
4.93946e-05
3.86413e-05
4.44158e-05
4.42029e-05
4.07006e-05
4.81833e-05
4.9687e-05
4.97326e-05
4.86282e-05
5.02546e-05
3.88512e-05
3.81732e-05
3.89798e-05
4.98398e-05
3.69523e-05
4.81688e-05
4.66855e-05
3.83881e-05
4.30805e-05
4.81825e-05
4.89981e-05
4.13999e-05
4.25661e-05
4.36179e-05
4.57774e-05
4.94672e-05
4.55496e-05
3.87807e-05
4.55746e-05
4.99505e-05
4.86585e-05
4.9955e-05
4.95034e-05
5.15119e-05
4.97438e-05
4.83259e-05
3.925e-05
3.70351e-05
4.56503e-05
4.18759e-05
4.92135e-05
3.76677e-05
4.63796e-05
4.46201e-05
4.99193e-05
3.94501e-05
4.714e-05
4.79798e-05
4.64306e-05
4.3469e-05
3.81866e-05
4.84926e-05
4.22677e-05
4.98832e-05
4.5219e-05
5.08833e-05
4.98362e-05
4.57917e-05
3.69021e-05
3.78605e-05
4.45616e-05
4.63207e-05
4.22704e-05
5.08815e-05
3.85034e-05
4.92988e-05
4.77243e-05
4.2922e-05
4.72017e-05
4.85712e-05
4.91987e-05
4.94939e-05
4.95178e-05
4.60532e-05
4.68569e-05
3.68271e-05
4.25875e-05
4.96125e-05
3.92449e-05
4.72556e-05
4.44024e-05
3.93146e-05
4.50603e-05
4.70005e-05
4.48316e-05
4.75573e-05
4.84198e-05
3.84935e-05
4.4468e-05
4.57696e-05
3.81379e-05
4.26291e-05
4.47299e-05
4.40452e-05
4.74472e-05
3.87145e-05
3.8496e-05
4.48753e-05
4.34418e-05
4.96859e-05
5.06172e-05
4.94723e-05
4.37427e-05
4.41152e-05
4.60578e-05
4.32585e-05
4.88429e-05
3.85659e-05
4.54816e-05
4.45949e-05
4.99354e-05
4.76639e-05
4.444e-05
4.54494e-05
4.88131e-05
3.82837e-05
4.58286e-05
4.94989e-05
4.33077e-05
3.28132e-05
4.52048e-05
3.81771e-05
4.64228e-05
3.59025e-05
4.95237e-05
5.0068e-05
4.90741e-05
4.61316e-05
3.87766e-05
3.79468e-05
4.85098e-05
4.96815e-05
4.89989e-05
4.59265e-05
4.54376e-05
4.7641e-05
4.98217e-05
4.88156e-05
3.67944e-05
4.4359e-05
4.67516e-05
4.71648e-05
4.33444e-05
4.69656e-05
3.65886e-05
4.9637e-05
4.86668e-05
4.61126e-05
4.613e-05
4.73715e-05
4.53026e-05
4.99265e-05
4.73394e-05
3.91313e-05
4.478e-05
4.78167e-05
4.43763e-05
4.57256e-05
4.6852e-05
3.60678e-05
3.97416e-05
4.92923e-05
4.99286e-05
4.85837e-05
4.98819e-05
4.75611e-05
4.8939e-05
4.66959e-05
4.58233e-05
4.71495e-05
4.88916e-05
4.28697e-05
4.46678e-05
4.3255e-05
4.53082e-05
4.858e-05
3.57356e-05
4.6045e-05
3.68129e-05
4.86318e-05
3.69721e-05
3.73269e-05
4.46644e-05
3.57463e-05
4.49469e-05
4.66678e-05
4.87096e-05
4.88127e-05
4.23214e-05
4.24117e-05
5.07409e-05
4.11564e-05
3.87619e-05
4.44115e-05
4.14997e-05
4.94228e-05
4.71058e-05
4.61279e-05
3.83164e-05
4.8315e-05
4.87614e-05
4.95537e-05
3.75148e-05
4.07492e-05
4.56456e-05
4.80443e-05
5.0345e-05
3.90752e-05
3.74047e-05
4.7767e-05
4.54919e-05
4.98545e-05
4.55223e-05
3.58058e-05
4.69948e-05
4.84639e-05
3.78534e-05
3.60341e-05
4.89766e-05
3.97893e-05
3.95931e-05
4.9318e-05
4.99433e-05
4.78731e-05
5.1014e-05
4.49852e-05
4.34467e-05
4.91447e-05
4.17092e-05
4.93335e-05
4.261e-05
4.6785e-05
4.87666e-05
4.45601e-05
3.78941e-05
4.83273e-05
4.88588e-05
4.35518e-05
4.49501e-05
4.5551e-05
4.08774e-05
4.29242e-05
4.60825e-05
4.63894e-05
4.92129e-05
4.30597e-05
4.77607e-05
3.72478e-05
4.79081e-05
5.01747e-05
3.64449e-05
4.85003e-05
4.59339e-05
3.41418e-05
3.77928e-05
4.57961e-05
4.51818e-05
4.82234e-05
4.3195e-05
3.90628e-05
4.8617e-05
4.98657e-05
4.93431e-05
4.6869e-05
4.95868e-05
3.76168e-05
4.92023e-05
4.5236e-05
3.79722e-05
3.82705e-05
3.32769e-05
3.8841e-05
4.7368e-05
4.3582e-05
4.65985e-05
4.55216e-05
4.07191e-05
4.19193e-05
3.58628e-05
3.57515e-05
5.07795e-05
5.01528e-05
3.89585e-05
4.94144e-05
4.84762e-05
3.8778e-05
4.47179e-05
4.56678e-05
4.05991e-05
4.29784e-05
4.9663e-05
3.97676e-05
3.54796e-05
4.96187e-05
5.01276e-05
4.19236e-05
4.93417e-05
4.33551e-05
4.0353e-05
3.87104e-05
4.48578e-05
3.75536e-05
3.80671e-05
4.60879e-05
4.72555e-05
4.45216e-05
4.88221e-05
4.92692e-05
4.48133e-05
4.93181e-05
2.93685e-05
4.46833e-05
3.77719e-05
4.5604e-05
4.9124e-05
4.47861e-05
4.20679e-05
4.47196e-05
3.9102e-05
4.6744e-05
4.49318e-05
4.24096e-05
3.76907e-05
3.54627e-05
3.48712e-05
4.32362e-05
3.80208e-05
4.47007e-05
3.84392e-05
4.36482e-05
4.9214e-05
4.65331e-05
4.37661e-05
4.58559e-05
4.72089e-05
4.48985e-05
4.81854e-05
3.65993e-05
4.58629e-05
4.96886e-05
4.97004e-05
4.42636e-05
5.09944e-05
4.04319e-05
4.77388e-05
4.44724e-05
3.71793e-05
4.79708e-05
4.97744e-05
4.72995e-05
4.77586e-05
4.88626e-05
4.63545e-05
3.51182e-05
3.61313e-05
4.42099e-05
5.01236e-05
4.58925e-05
4.87144e-05
4.2424e-05
4.36532e-05
4.0032e-05
3.70048e-05
3.70177e-05
3.66963e-05
4.76599e-05
4.62139e-05
4.94381e-05
4.37052e-05
4.30721e-05
5.0474e-05
3.68469e-05
4.5509e-05
4.96555e-05
4.90859e-05
4.25892e-05
4.3814e-05
4.79816e-05
4.96651e-05
4.92637e-05
3.81678e-05
4.57747e-05
4.81704e-05
4.66999e-05
4.5605e-05
5.05746e-05
4.8134e-05
4.94044e-05
4.62816e-05
4.15924e-05
4.57939e-05
4.91017e-05
4.76289e-05
4.51171e-05
3.75969e-05
4.90483e-05
4.86739e-05
4.87909e-05
4.82903e-05
3.68204e-05
3.40774e-05
4.43514e-05
4.76645e-05
4.40268e-05
4.64255e-05
4.80877e-05
4.83667e-05
4.86477e-05
4.29504e-05
4.77206e-05
4.52704e-05
4.85245e-05
3.78358e-05
3.7676e-05
4.35637e-05
4.93452e-05
3.8795e-05
4.85348e-05
3.81382e-05
4.42282e-05
4.53466e-05
4.97282e-05
4.42305e-05
4.88318e-05
4.89192e-05
4.83105e-05
4.6216e-05
4.78527e-05
4.55703e-05
4.28192e-05
3.54959e-05
5.00773e-05
3.32136e-05
3.64577e-05
3.90769e-05
3.61278e-05
3.62836e-05
4.39574e-05
4.5929e-05
3.84451e-05
4.25946e-05
3.38275e-05
3.89435e-05
4.36851e-05
4.91522e-05
3.65742e-05
3.73454e-05
4.82752e-05
3.66244e-05
4.43177e-05
4.76481e-05
4.65678e-05
4.50305e-05
3.82813e-05
3.64907e-05
4.31291e-05
4.99198e-05
4.03791e-05
3.76307e-05
4.62355e-05
4.25433e-05
4.61191e-05
4.49534e-05
3.82921e-05
4.9303e-05
3.56465e-05
3.70088e-05
4.38687e-05
4.8847e-05
4.25229e-05
4.40194e-05
4.43518e-05
4.56901e-05
3.51091e-05
3.94083e-05
4.38913e-05
4.96504e-05
4.75467e-05
3.66926e-05
3.43909e-05
4.41249e-05
5.02432e-05
4.47079e-05
4.50426e-05
4.23843e-05
4.41201e-05
4.50079e-05
3.77296e-05
4.94027e-05
4.21595e-05
3.7628e-05
3.42137e-05
4.78937e-05
4.53288e-05
4.95908e-05
4.61325e-05
4.83985e-05
3.76634e-05
4.387e-05
3.54697e-05
3.37595e-05
4.82483e-05
3.86554e-05
4.39769e-05
4.54084e-05
4.67766e-05
3.76909e-05
4.9605e-05
4.83807e-05
4.96682e-05
4.6603e-05
3.1921e-05
4.51663e-05
3.58141e-05
4.9692e-05
3.81135e-05
4.93138e-05
3.40838e-05
4.65269e-05
4.72351e-05
4.22532e-05
4.30808e-05
3.48969e-05
4.14597e-05
4.51994e-05
4.83038e-05
4.70817e-05
4.93213e-05
4.90183e-05
3.76735e-05
4.954e-05
4.32704e-05
4.61908e-05
4.67115e-05
4.86634e-05
4.81782e-05
4.51958e-05
4.97802e-05
4.39956e-05
4.21009e-05
4.20135e-05
4.62055e-05
4.89116e-05
4.16028e-05
3.93998e-05
4.90452e-05
4.68933e-05
4.47384e-05
5.08329e-05
4.66044e-05
4.62383e-05
4.75409e-05
4.88215e-05
4.8902e-05
4.49203e-05
4.36306e-05
4.8609e-05
4.76507e-05
3.99887e-05
4.49219e-05
4.11557e-05
4.96182e-05
4.61995e-05
4.88999e-05
3.80912e-05
3.81903e-05
4.55808e-05
4.80135e-05
4.82613e-05
4.96255e-05
4.86642e-05
4.56643e-05
4.73913e-05
3.86255e-05
4.52578e-05
4.51411e-05
4.91278e-05
4.9034e-05
4.92422e-05
4.44813e-05
4.96551e-05
3.95681e-05
4.94183e-05
4.13422e-05
4.42952e-05
4.33543e-05
4.55532e-05
4.41482e-05
4.78297e-05
3.72098e-05
4.87431e-05
4.84146e-05
4.43115e-05
3.83352e-05
4.9796e-05
4.74867e-05
4.88546e-05
4.47454e-05
4.54517e-05
4.79355e-05
3.72957e-05
4.93545e-05
4.42608e-05
4.57889e-05
4.09841e-05
4.16067e-05
4.09191e-05
3.69575e-05
4.26587e-05
5.03139e-05
4.58388e-05
3.58669e-05
4.62758e-05
3.67286e-05
4.61355e-05
4.63464e-05
3.54649e-05
3.67706e-05
4.17955e-05
4.58006e-05
4.79899e-05
4.28762e-05
4.78911e-05
4.44317e-05
4.13087e-05
4.21681e-05
4.94926e-05
4.92288e-05
4.89917e-05
4.77145e-05
4.67782e-05
3.7572e-05
3.85295e-05
4.97379e-05
4.35914e-05
4.56626e-05
4.81228e-05
5.04843e-05
4.56928e-05
4.70099e-05
3.54381e-05
4.81606e-05
4.87888e-05
4.26345e-05
4.95349e-05
4.90086e-05
4.64947e-05
4.29134e-05
4.74874e-05
4.30854e-05
3.54261e-05
4.56774e-05
3.86271e-05
3.69212e-05
4.5821e-05
4.53277e-05
4.81643e-05
4.80606e-05
4.61021e-05
4.93382e-05
3.40256e-05
4.27534e-05
4.97395e-05
4.95246e-05
3.60244e-05
4.55568e-05
3.95831e-05
4.2928e-05
4.93562e-05
4.21632e-05
4.69104e-05
5.03933e-05
4.74069e-05
3.53842e-05
4.82311e-05
3.76741e-05
4.90066e-05
4.76859e-05
4.64902e-05
4.90328e-05
4.6061e-05
4.89349e-05
3.77718e-05
4.90138e-05
4.94057e-05
3.91372e-05
4.6738e-05
4.51305e-05
4.34634e-05
4.8232e-05
4.40591e-05
4.85296e-05
4.96184e-05
4.98661e-05
4.50109e-05
4.92366e-05
4.52814e-05
4.76538e-05
4.00701e-05
4.25481e-05
3.70198e-05
3.63893e-05
4.63224e-05
4.70697e-05
4.50414e-05
4.95388e-05
4.39448e-05
4.9593e-05
3.60352e-05
5.00057e-05
4.99368e-05
4.71847e-05
4.96428e-05
3.97993e-05
3.55569e-05
4.46685e-05
3.68729e-05
4.87538e-05
4.5459e-05
3.55259e-05
4.39866e-05
5.00233e-05
4.71122e-05
3.69508e-05
4.08628e-05
3.52139e-05
5.04541e-05
3.68674e-05
4.83748e-05
4.19966e-05
3.78246e-05
4.91484e-05
4.94041e-05
4.92302e-05
4.78535e-05
3.77227e-05
4.67602e-05
4.9579e-05
3.92041e-05
4.92194e-05
4.6782e-05
4.95666e-05
3.56688e-05
4.78637e-05
4.28794e-05
4.69883e-05
4.28001e-05
4.43434e-05
4.32155e-05
4.25245e-05
4.33431e-05
4.38985e-05
4.7516e-05
4.4686e-05
4.98929e-05
3.93299e-05
4.46745e-05
4.55104e-05
4.79398e-05
4.95698e-05
3.73841e-05
4.83022e-05
3.86853e-05
4.43837e-05
4.92737e-05
4.93037e-05
4.39438e-05
4.66107e-05
4.74616e-05
4.29511e-05
4.5167e-05
4.41678e-05
3.71469e-05
3.69788e-05
4.65959e-05
4.83124e-05
4.49282e-05
4.31739e-05
4.83712e-05
3.82771e-05
4.62213e-05
3.82133e-05
4.73256e-05
4.95781e-05
4.54177e-05
3.71854e-05
4.8428e-05
3.68816e-05
4.65796e-05
4.91935e-05
3.57989e-05
5.03059e-05
3.91352e-05
4.27819e-05
4.37847e-05
3.72427e-05
4.22787e-05
4.318e-05
3.49006e-05
4.87844e-05
4.94424e-05
3.34325e-05
4.24465e-05
4.74492e-05
4.56523e-05
4.64132e-05
5.02549e-05
4.86645e-05
4.43284e-05
4.12256e-05
3.61242e-05
3.48652e-05
4.05591e-05
5.00419e-05
4.83238e-05
4.74173e-05
4.74255e-05
3.76206e-05
3.74751e-05
4.45854e-05
4.85751e-05
3.54161e-05
4.70346e-05
4.51574e-05
4.39899e-05
4.74538e-05
4.28009e-05
4.80945e-05
4.12969e-05
4.48445e-05
4.99198e-05
3.26922e-05
4.61208e-05
4.86972e-05
4.86266e-05
4.7305e-05
4.83738e-05
4.587e-05
3.73271e-05
5.01234e-05
5.11525e-05
4.53436e-05
4.54714e-05
4.26269e-05
4.49003e-05
4.72534e-05
4.78919e-05
4.54859e-05
4.43916e-05
4.4091e-05
3.62728e-05
4.31607e-05
4.96983e-05
4.71541e-05
5.09228e-05
4.56533e-05
4.45465e-05
4.98454e-05
3.78144e-05
4.80395e-05
3.7388e-05
4.95494e-05
4.72366e-05
4.30997e-05
5.07085e-05
4.2603e-05
4.47113e-05
4.98471e-05
4.37079e-05
4.97762e-05
4.80298e-05
4.79094e-05
3.7257e-05
4.51936e-05
4.47365e-05
4.02283e-05
4.83394e-05
4.36247e-05
4.37577e-05
4.97943e-05
3.77557e-05
4.9277e-05
4.5318e-05
4.9098e-05
4.28824e-05
4.62197e-05
3.74767e-05
3.87529e-05
5.05316e-05
3.80133e-05
4.50507e-05
4.8098e-05
3.70681e-05
4.43505e-05
4.84622e-05
4.23132e-05
3.85118e-05
4.13662e-05
4.37024e-05
4.34579e-05
4.82462e-05
4.41274e-05
4.89292e-05
4.62308e-05
4.86263e-05
3.52446e-05
4.05359e-05
4.96698e-05
4.44569e-05
3.66946e-05
3.87795e-05
4.52221e-05
3.84783e-05
3.72644e-05
4.52963e-05
4.44875e-05
5.00571e-05
4.33467e-05
4.84634e-05
4.8734e-05
4.84842e-05
4.85458e-05
4.85942e-05
4.325e-05
4.22113e-05
4.83783e-05
4.44018e-05
4.31912e-05
4.92935e-05
4.49801e-05
3.62662e-05
3.66043e-05
4.42399e-05
3.91416e-05
4.72013e-05
4.81579e-05
4.33104e-05
4.86376e-05
4.82756e-05
4.78852e-05
5.08605e-05
4.44934e-05
3.75281e-05
4.32592e-05
4.35336e-05
4.82989e-05
4.3441e-05
4.73331e-05
4.94139e-05
4.40988e-05
4.26778e-05
4.56873e-05
4.94188e-05
4.74988e-05
5.16075e-05
4.82699e-05
4.40673e-05
4.50368e-05
3.93523e-05
4.28732e-05
4.94832e-05
4.00273e-05
4.97963e-05
4.30104e-05
4.83601e-05
3.69515e-05
4.74887e-05
4.52368e-05
4.82779e-05
4.46252e-05
4.68864e-05
4.48238e-05
4.8556e-05
3.60374e-05
3.91548e-05
4.5316e-05
4.26805e-05
4.60849e-05
4.53171e-05
4.54949e-05
4.92832e-05
4.60962e-05
3.60602e-05
4.14803e-05
3.72534e-05
4.59963e-05
4.49794e-05
3.81315e-05
5.10654e-05
4.52797e-05
4.44229e-05
4.80354e-05
4.07429e-05
3.85019e-05
4.969e-05
3.84308e-05
3.66667e-05
4.39519e-05
4.30422e-05
3.87839e-05
4.15761e-05
4.94974e-05
4.8501e-05
4.30384e-05
4.5919e-05
4.81895e-05
4.50431e-05
4.78863e-05
3.61843e-05
4.89135e-05
3.02556e-05
4.82962e-05
3.7703e-05
3.71561e-05
4.86862e-05
3.6701e-05
4.45197e-05
4.64043e-05
4.84108e-05
4.24648e-05
4.68459e-05
4.34886e-05
4.47361e-05
4.28115e-05
4.74371e-05
4.6124e-05
4.87285e-05
4.52784e-05
3.80686e-05
4.74835e-05
4.47205e-05
4.42339e-05
4.47299e-05
3.95813e-05
4.17379e-05
3.59212e-05
3.70613e-05
4.51798e-05
4.38157e-05
3.90842e-05
4.2606e-05
4.84338e-05
4.94323e-05
4.92854e-05
2.92898e-05
3.61453e-05
4.92106e-05
3.70286e-05
4.77096e-05
3.64632e-05
4.89695e-05
4.85001e-05
4.84672e-05
3.7934e-05
4.40593e-05
4.96642e-05
4.95084e-05
4.62949e-05
4.94127e-05
4.48573e-05
4.60439e-05
4.47124e-05
3.73708e-05
4.61441e-05
4.19025e-05
4.51456e-05
4.48416e-05
3.99127e-05
4.43074e-05
4.92629e-05
4.14145e-05
4.17025e-05
3.71189e-05
4.79415e-05
4.78637e-05
3.49693e-05
4.48153e-05
4.50315e-05
4.68217e-05
3.78417e-05
4.54599e-05
4.49079e-05
5.04649e-05
3.61177e-05
4.4625e-05
4.4423e-05
3.53933e-05
4.86839e-05
3.83499e-05
3.88797e-05
4.64509e-05
4.94831e-05
3.58572e-05
4.86782e-05
4.65285e-05
4.50978e-05
3.59015e-05
4.95093e-05
4.95533e-05
3.55621e-05
4.52415e-05
3.49385e-05
3.84752e-05
4.94457e-05
4.31102e-05
4.61738e-05
4.84941e-05
4.96592e-05
4.37055e-05
4.24833e-05
4.43265e-05
4.39768e-05
4.59042e-05
4.25724e-05
4.90943e-05
3.79327e-05
4.27032e-05
4.49611e-05
4.36502e-05
4.75144e-05
4.43156e-05
4.70491e-05
4.74763e-05
4.52809e-05
4.95429e-05
4.73937e-05
4.35705e-05
4.14208e-05
4.77817e-05
4.3886e-05
4.27724e-05
4.71194e-05
4.97538e-05
4.75845e-05
4.78075e-05
4.22101e-05
4.74292e-05
4.17695e-05
3.73886e-05
4.47071e-05
4.65179e-05
3.73194e-05
4.67725e-05
4.41781e-05
3.36965e-05
3.71179e-05
4.77247e-05
3.63296e-05
4.38554e-05
4.7937e-05
4.64786e-05
3.73291e-05
4.64883e-05
5.05427e-05
3.8312e-05
3.73809e-05
3.79802e-05
4.89456e-05
4.49585e-05
4.42353e-05
4.88611e-05
3.6934e-05
4.73091e-05
4.52995e-05
4.96156e-05
4.99862e-05
3.18733e-05
4.53774e-05
4.71791e-05
4.80607e-05
4.55701e-05
4.43285e-05
3.83366e-05
4.62914e-05
4.97885e-05
4.17198e-05
3.56847e-05
4.33029e-05
4.87186e-05
4.69608e-05
3.68012e-05
4.40795e-05
4.80603e-05
4.89723e-05
4.44991e-05
4.41212e-05
3.50267e-05
3.77389e-05
3.74911e-05
4.52682e-05
4.38054e-05
4.61219e-05
4.98803e-05
4.8915e-05
4.03439e-05
4.85837e-05
4.89759e-05
4.6862e-05
4.26766e-05
4.85081e-05
4.35615e-05
3.86819e-05
4.25788e-05
4.53777e-05
4.60057e-05
4.12139e-05
4.68777e-05
4.31794e-05
4.87136e-05
3.84743e-05
3.56154e-05
4.3607e-05
4.94531e-05
4.79281e-05
4.26724e-05
4.35342e-05
4.81582e-05
4.8892e-05
4.29394e-05
4.34567e-05
4.86725e-05
4.99823e-05
4.74625e-05
4.96459e-05
4.78776e-05
4.74763e-05
3.61368e-05
4.36876e-05
3.75035e-05
4.72193e-05
4.87668e-05
4.24166e-05
3.72666e-05
4.97715e-05
3.69458e-05
4.17135e-05
3.89665e-05
4.465e-05
3.63175e-05
4.67087e-05
4.4823e-05
4.45835e-05
4.53293e-05
3.96312e-05
4.92249e-05
3.81835e-05
4.70772e-05
4.51207e-05
4.41839e-05
3.7009e-05
4.82448e-05
4.67942e-05
3.88126e-05
4.04017e-05
4.38524e-05
4.32578e-05
4.55654e-05
3.66331e-05
4.62224e-05
4.32752e-05
4.54806e-05
4.18428e-05
4.15637e-05
4.14101e-05
3.70387e-05
4.84785e-05
4.50989e-05
1.84125e-05
3.8386e-05
4.54568e-05
4.90412e-05
4.80066e-05
3.90755e-05
3.83396e-05
4.89702e-05
3.75662e-05
4.80964e-05
4.94526e-05
4.61216e-05
3.85104e-05
4.88168e-05
3.67702e-05
3.51278e-05
3.51914e-05
4.7096e-05
4.43525e-05
4.25397e-05
4.97117e-05
4.74022e-05
4.58994e-05
3.88857e-05
3.40472e-05
5.00976e-05
4.5341e-05
5.036e-05
4.86095e-05
3.74395e-05
4.42536e-05
4.43642e-05
4.30515e-05
4.47738e-05
4.2137e-05
4.36019e-05
5.1877e-05
4.57308e-05
4.28711e-05
3.76708e-05
4.63258e-05
4.43267e-05
4.73142e-05
4.31197e-05
3.70639e-05
3.82537e-05
4.67075e-05
4.70077e-05
4.20512e-05
4.78717e-05