/*--------------------------------*- C++ -*----------------------------------*\
| =========                 |                                                 |
| \\      /  F ield         | OpenFOAM: The Open Source CFD Toolbox           |
|  \\    /   O peration     | Version:  2212                                  |
|   \\  /    A nd           | Website:  www.openfoam.com                      |
|    \\/     M anipulation  |                                                 |
\*---------------------------------------------------------------------------*/
FoamFile
{
    version     2.0;
    format      ascii;
    arch        "LSB;label=32;scalar=64";
    class       volScalarField;
    location    "0.038";
    object      p;
}
// * * * * * * * * * * * * * * * * * * * * * * * * * * * * * * * * * * * * * //

dimensions      [0 2 -2 0 0 0 0];

internalField   nonuniform List<scalar> 
31639
(
0.0129819
0.00904262
0.0148551
0.00662422
0.00912451
0.0127328
0.0142526
0.0135788
0.00965482
0.00823982
0.0141524
0.00920366
0.00956256
0.0124334
0.0108251
0.0151893
0.0176112
0.0180147
0.00295713
0.0138159
0.0100452
0.00776909
0.0105805
0.0065454
0.0113523
0.0134412
0.0130705
0.0412725
0.0136555
0.0136227
0.00731919
0.0194499
0.00970333
0.0052596
0.0236518
0.0135657
0.00780518
0.0141594
0.014145
0.0115767
0.00925842
0.0132491
0.0103627
0.0143878
0.0148226
0.00619199
0.00927944
0.00733667
0.0158886
0.00667216
0.00615671
0.00494458
0.024077
0.0146968
0.00481484
0.0179936
0.00790631
0.0131503
0.00905268
0.00631138
0.00693318
0.0132762
0.0110071
0.0135414
0.0238842
0.00390107
0.00239736
0.00757979
0.00937747
0.00587081
0.00834869
0.0177356
0.00814847
0.00351354
0.0241959
0.0192539
0.00836334
0.00774837
0.00897355
0.00850253
0.012936
0.0124104
0.0122277
0.00681597
0.0120916
0.0112186
0.0103903
0.0073301
0.00237315
0.00978084
0.00555004
0.0176534
0.00649382
0.00863677
0.00414087
0.0130691
0.00705227
0.00498777
0.00946373
0.0125507
0.0223392
0.0223244
0.0113853
0.00866039
0.00480796
0.00600953
0.0127195
0.00637558
0.00737928
0.011486
0.0142067
0.0123954
0.0132471
0.00780115
0.00347643
0.0138362
0.0237384
0.0146609
0.0224493
0.00696832
0.019636
0.00603803
0.00313593
0.00665208
0.0126618
0.0124337
0.00895989
0.00674914
0.0082332
0.00997024
0.0235005
0.00104069
0.0150253
0.00353631
0.00423913
0.00755049
0.00789777
0.00864495
0.00620162
0.00692167
0.00686249
0.010193
0.0111102
0.00636191
0.00928861
0.0120954
0.0226024
0.00787873
0.0116824
0.0241365
0.00706835
0.0162405
0.00506741
0.0045571
0.00591457
0.00452442
0.00333109
0.00830669
0.0158151
0.00749653
0.00413024
0.0177879
0.00796901
0.0132219
0.0188823
0.0189541
0.0147375
0.0165258
0.00519932
0.00362019
0.0169324
0.0124287
0.0168422
0.00966023
0.0120054
0.00808208
0.01087
0.0195661
0.00757615
0.0114335
0.00947848
0.0156183
0.0132925
0.0138362
0.0138882
0.0135722
0.0162826
0.0114357
0.012448
0.0154215
0.015704
0.00820105
0.015951
0.0048637
0.00553758
0.00576025
0.00555136
0.00880833
0.00566973
0.0140302
0.0117826
0.0178425
0.0156399
0.0165947
0.00806388
0.00672872
0.00281293
0.00476454
0.0199301
0.00544029
0.00542858
0.011574
0.02247
0.0120041
0.0144531
0.012105
0.0121407
0.0120994
0.0169521
0.0090724
0.00938718
0.0115582
0.0122288
0.0169628
0.0147525
0.00842983
0.0152289
0.0148963
0.0105534
0.019338
0.00509896
0.0140147
0.017796
0.0154158
0.0158386
0.00269974
0.00249319
0.0161296
0.0132804
0.00480077
0.00682059
0.014532
0.0168874
0.0158921
0.00702083
0.0182178
0.00537824
0.0188315
0.0153856
0.00272761
0.000787786
0.00619956
0.0157675
0.0180929
0.00878421
0.00940103
0.0131535
0.00405539
0.0129984
0.0150278
0.00628855
0.00505493
0.00879985
0.0124396
0.0088999
0.0120582
0.00199222
0.0228797
0.014338
0.0128164
0.0293056
0.00598153
0.0130733
0.0162008
0.0077982
0.015264
0.00556048
0.0170176
0.00756147
0.00620373
0.0190639
0.0196005
0.019467
0.0258646
0.0139569
0.0140003
0.0170424
0.016258
0.00309493
0.0156996
0.0174887
0.00140766
0.00504283
0.00506651
0.0147825
0.00436722
0.0176941
0.00235792
0.00694333
0.00801588
0.00746038
0.0169747
0.00538712
0.00483649
0.0107948
0.00433751
0.0123097
0.00286268
0.0104124
0.0170595
0.00720806
0.0285639
0.0228557
0.0101321
0.00931031
0.0131034
0.0025122
0.0197074
0.0152939
0.0150302
0.0144308
0.00603622
0.0220639
0.00446591
0.0118797
0.0161182
0.0144756
0.0162825
0.00524352
0.00606485
0.00628808
0.0066189
0.0172968
0.004955
0.0178347
0.0237503
0.0243259
0.00753053
0.0165092
0.0186378
0.00422536
0.0020757
0.0181415
0.0038027
0.00543118
0.0168224
0.00458558
0.0148554
0.0146884
0.0221246
0.00830482
0.016988
0.00829036
0.0157016
0.00480195
0.00630597
0.00537555
0.0108373
0.0110036
0.0163067
0.0178622
0.0109625
0.0284679
0.00309296
0.00760494
0.00686067
0.00367504
0.0109431
0.0117207
0.0162938
0.010628
0.0199271
0.0124649
0.00586186
0.00394716
0.00658938
0.0229118
0.0191505
0.0159893
0.0200386
0.0151483
0.00494797
0.00740867
0.00493285
0.00455148
0.0043187
0.00531291
0.00915147
0.000467546
0.0182698
0.00269971
0.0202488
0.0053795
0.0169223
0.0046819
0.0173364
0.0183978
0.0138547
0.00663321
0.0268584
0.0180229
0.0141568
0.0135453
0.00451602
0.0159561
0.00246173
0.00703559
0.00711263
0.00738706
0.0138963
0.00608999
0.00715179
0.0158675
0.0294557
0.0145562
0.0160027
0.0117103
0.0125102
0.0112028
0.00932053
0.0089934
0.0220919
0.0106871
0.000954976
0.0159087
0.0290501
0.0103089
0.0215979
0.0124622
0.0148694
0.00650368
0.00538763
0.0169599
0.00614406
0.0135177
0.0135326
0.0164936
0.00403554
0.00497591
0.0176385
0.00747144
0.00262968
0.00316754
0.0121857
0.00422629
0.00757882
0.0079849
0.0185093
0.0180982
0.0195619
0.0184305
0.0160589
0.00781406
0.0164593
0.00740958
0.0175314
0.019691
0.00609128
0.016109
0.00676669
0.0132427
0.0189295
0.0125291
0.00339309
0.01551
0.0431677
0.00335631
0.0101051
0.00685743
0.0150657
0.00196125
0.00521206
0.0062344
0.00519056
0.0164429
0.00133544
0.0104195
0.0212543
0.00937339
0.0108709
0.0063012
0.0231477
0.00405275
0.00858441
0.0221053
0.0284356
0.0103041
0.0147609
0.0120126
0.0080165
0.00620077
0.00473679
0.0194192
0.00224134
0.0127814
0.0122956
0.0116428
0.00350561
0.00531186
0.0186548
0.0210595
0.00268351
0.00307496
0.00345636
0.00202564
0.0248436
0.00712451
0.00295247
0.0198382
0.0220978
0.0197311
0.00415733
0.0178001
0.0165364
0.0187974
0.00213705
0.0220923
0.022144
-0.000354431
0.019176
0.0185235
0.0192817
0.012256
0.0205704
0.000898787
0.00335775
0.0187622
0.00278071
0.00338374
0.00573746
0.0139444
0.00941729
0.0172873
0.00115727
0.00614382
0.00988977
0.020757
0.00134281
0.0164631
0.00254051
0.0287711
0.0290781
0.00684934
0.0415569
0.00704456
0.00701204
0.0114153
0.0117391
0.0081285
0.0111472
0.029903
0.00818389
0.0161368
0.000676015
0.00731254
0.0113404
0.00641232
0.0184627
0.00142788
0.00441165
0.0111072
0.00397681
0.0100512
0.0102536
0.00553656
0.0233136
0.0040364
0.00285079
0.00043409
0.0129529
0.0212226
0.00319326
0.000667398
0.00391375
0.00433078
0.00338673
0.0197187
-3.27545e-05
0.00132744
0.000912311
0.0177268
0.00222087
0.0185597
0.0189742
0.019789
0.00579329
6.74101e-05
0.000278116
0.0030139
0.000877243
0.0121572
0.00105552
0.0121434
0.0192581
0.00163074
0.00706239
0.00947768
0.0231865
0.0214079
0.0167892
0.00801685
0.00386078
0.0222653
0.0191464
0.00179521
0.00197357
0.00825364
0.0139754
0.00574987
0.00123837
0.000106974
0.000973016
0.0184845
0.0154745
0.00708586
0.0425721
0.0152106
0.0118402
0.00818965
0.0127934
0.0164278
0.0162906
0.0113928
0.00727301
0.00911668
0.0094373
0.0154658
0.00356377
0.0110965
0.00131583
0.0120869
0.0282018
0.0196134
0.0181032
0.0134484
0.0106166
0.0256347
0.0119302
0.0143063
0.0063377
0.0227516
0.0214528
0.00313214
0.0117529
0.0133437
0.000249718
0.0260779
0.00718316
0.00122216
0.00350642
0.00199264
0.0231644
0.0211477
0.0215923
0.00325666
0.00012606
0.0182988
0.0123095
0.0192987
0.0199054
0.0199419
0.00130408
4.6817e-05
0.0189163
0.0164846
0.0170369
0.0199613
0.00112045
0.00712617
0.0292783
0.00413208
0.0023391
0.0204988
0.011608
0.00489847
0.0186746
0.0183899
0.0149645
0.00865057
0.00575272
0.0136031
0.00783047
0.000409664
0.000749516
0.00152854
0.00577097
0.00219011
0.0231972
0.00824004
0.000629791
0.000716545
0.017755
0.00626804
0.000769052
0.0429471
0.0058235
0.00694529
0.00934485
0.0105551
0.00894435
0.0114306
0.0108035
0.00725293
0.00833659
0.0120278
0.00766436
0.00715926
0.00812195
0.0107204
0.0204416
0.0115789
0.0109415
0.0179443
0.0232193
0.0195431
0.0054679
0.0107683
0.00310332
0.012185
0.0240296
0.000930201
0.00223253
0.00201668
0.00620894
0.00719412
0.0178157
0.0170461
0.00506542
0.00208465
0.0139014
0.023092
0.000577474
0.0189763
0.00754925
0.0175132
0.0160769
0.0169472
0.0218273
0.0203232
0.0262388
0.018604
0.0155661
0.019365
0.0174762
0.0180699
0.00650055
0.0227705
0.00639351
0.00168143
0.00425627
0.0176869
9.36599e-05
0.0146376
0.0034593
0.004824
0.0146858
0.00881549
0.0219725
0.00408885
0.0153662
0.00497409
0.0252899
0.00728375
0.000693381
0.00106227
0.0206333
0.0137889
0.000940362
0.00227053
0.00131493
0.00438584
0.000604789
0.000297059
0.0173663
0.0168211
0.00020334
0.0168729
0.0149275
0.018057
0.00988646
0.0097867
0.00791582
0.0126905
0.0132936
0.00618606
0.00100283
0.0116337
0.0159283
0.0117667
0.0218208
0.0195398
0.0116706
0.0189911
0.0072139
0.0293414
0.00343378
0.0191353
0.0114478
0.000102095
0.0130285
0.0033373
0.00695747
0.0028871
0.00290654
0.0146401
0.0207806
0.00509567
0.0183737
0.000869398
0.000889671
0.000906735
0.0242052
0.0243579
0.0231575
0.0249243
0.0205439
0.0189778
0.00637304
0.00411307
0.00703769
0.00185847
0.0135524
0.00607158
0.0159592
0.00883175
0.00706764
0.00220243
-0.000116374
0.00515978
0.00275676
0.0216079
0.00939266
0.00507114
0.00487047
0.00901952
0.000895637
0.015179
0.00492253
0.0189965
0.0036538
0.00248057
0.0124831
0.0124253
0.0193364
0.0230068
0.020152
0.0153419
0.00863039
0.00937067
0.0182661
0.000143319
0.00100752
0.0179652
0.0183627
-0.000114477
0.000411658
0.00259734
0.0181029
0.00476405
0.0110014
0.0233464
0.0227882
0.0116113
0.0272994
0.00877383
0.00758713
0.00782154
0.00506042
0.0031425
0.0190759
0.00323081
0.0116489
0.0141097
0.0215191
0.00678542
0.00783145
0.00745593
0.0173242
0.0175546
0.0175899
0.0249833
0.00232772
0.0202635
0.0199721
0.0203874
0.0110604
0.000408822
0.023966
0.0247047
0.0227508
0.0134175
0.0141912
0.0154931
0.0144479
0.0172306
0.0132482
0.000545469
0.0181219
0.00843097
0.00577215
0.0184369
0.00139853
0.000825838
0.00321725
0.00301408
0.0220832
0.00887361
0.00325689
0.00452645
0.00801017
0.016341
0.00766507
0.00703427
0.0147433
0.0103173
0.000307226
0.0190092
0.0120372
0.0199747
0.0100684
0.00209456
0.015477
0.0153741
0.000759121
0.00887694
0.00826772
0.000620906
0.000755023
0.0188384
0.0216401
0.00871985
0.0112691
0.00130604
0.0200334
0.0249613
0.0209139
0.0144337
0.006745
0.0195779
0.0147901
0.00781973
0.0108811
0.00604562
0.00614609
0.00974535
0.018543
0.00335335
0.0121267
0.00766099
0.00691196
0.000227409
0.0207259
0.00812943
0.0213979
0.00589447
0.017519
0.0202294
0.0100556
0.0101022
0.0211061
0.0170928
0.0192101
0.00743723
0.00863037
0.016985
0.0162163
0.0128624
0.0136297
0.0197827
0.020243
0.0266527
0.0156677
0.0176843
0.00113121
0.000746217
0.0181274
0.0165461
0.00849982
0.0196594
0.00282699
0.0138544
0.0154285
0.019365
0.00239134
0.0198638
0.0180522
0.0215292
0.0204575
0.0213881
0.0100876
0.0183853
0.00815947
0.0141349
0.0137133
0.0130316
0.0222434
0.0206044
0.0199511
0.0168627
0.00914288
0.0119184
0.0131419
0.0202535
0.0129952
5.55775e-05
0.0211041
0.0232383
0.0109615
0.00925555
0.00388349
0.00277944
0.00771159
0.0204544
0.0064069
0.0068592
0.0251977
0.0102695
0.00382384
0.00525821
0.000457086
0.00980054
0.0110987
0.0100926
0.0188728
0.000686386
0.0218472
0.0019391
0.0212263
0.0205144
0.0250524
0.00965338
0.00992358
0.00846155
0.0158835
0.0141228
0.016546
0.0255132
0.0185627
0.0196654
0.0130065
0.0158347
0.0093748
0.0166463
0.0144368
0.00315886
0.00285869
0.0116352
0.000937803
0.00829089
0.0220061
0.0231911
0.00422246
0.0212967
0.0138443
0.0223818
0.0122702
0.0126057
0.00169924
0.000933425
0.0162756
0.0147039
0.00709377
0.00933686
0.00881958
0.0136495
0.00944127
0.0184644
0.0197996
0.0253701
0.0195084
0.0210601
0.0127522
0.00897849
0.0104946
0.00093954
0.00179636
0.00344977
0.00924345
0.00834205
0.0146367
0.00861917
0.0154258
0.0174772
0.0193628
0.00892671
0.00556093
0.0259334
0.0135716
0.0232
0.0229096
0.0101999
0.0234008
0.00237926
0.0197165
0.00590272
0.0111217
0.0044306
0.00862764
0.00965009
0.0221813
0.0225668
0.00070774
0.0203035
0.024225
0.0276974
0.00901216
0.0170687
0.0195948
0.0198952
0.00802046
0.00864975
0.0184636
0.0279547
0.0183798
0.00340189
0.0162468
0.0273281
0.0158182
0.015615
0.015124
0.00752054
0.022913
0.0198011
0.0231061
0.00202143
0.0165016
0.00136048
0.0136514
0.0193762
0.00414768
0.0195006
0.0059981
0.0185456
0.0252409
0.01091
0.000551884
0.0123392
0.0132143
0.000761381
0.00817535
0.00829044
0.0130439
0.0095288
0.026616
0.0212667
0.00836841
0.00826472
0.0205889
0.0115745
0.0195773
0.0258153
0.0199368
0.00070724
0.000676743
0.0210931
0.0183182
0.0128354
0.0142801
0.0163877
0.0135704
0.0140974
0.0230835
0.0202274
0.0242926
0.018233
0.0159755
0.00227052
0.0233865
0.00308249
0.00884395
0.0218458
0.0233901
0.0188882
0.00987769
0.00883394
0.000485213
0.020462
0.0126521
0.0216758
0.0119103
0.0229446
0.0243121
0.0153378
0.0163794
0.00978522
0.00478017
0.0265245
0.0126407
0.016237
0.0126131
0.0116414
0.0168885
0.0268522
0.0155294
0.0145786
0.028839
0.00251398
0.0226773
0.0139946
0.0279326
0.0144759
0.0116442
0.0225056
0.0230611
0.00415173
0.00862597
0.00480208
0.00591547
0.01993
0.01057
0.0114814
0.000478111
0.0091852
0.0333853
0.00942718
0.00986435
0.0136123
0.0140478
0.0132759
0.0209855
0.0215241
0.0155788
0.00834226
0.021298
0.0119564
0.0220721
0.0197497
0.0199244
0.0219818
0.0224673
0.0206174
0.00787516
0.000644796
0.023604
0.00713913
0.0248085
0.0276625
0.0259078
0.00944285
0.0236773
0.0158898
0.0025215
0.00207155
0.00346474
0.0211277
0.0219108
0.0217708
0.0201939
0.0241475
0.00986552
0.00817405
0.022158
0.0245705
0.0117024
0.0218133
0.0234377
0.0155425
0.00900869
0.0266573
0.023796
0.0204763
0.0165822
0.0212193
0.0173805
0.0228631
0.00191406
0.0172853
0.020488
0.0234384
0.016724
0.0222682
0.0111521
0.0280655
0.0175149
0.00233473
0.0212361
0.0050949
0.000146908
0.00481251
0.0167252
0.0142398
0.0165423
0.0212674
0.0230912
0.00873579
0.0182584
0.0104222
0.0141943
0.0134347
0.0132492
0.00815279
0.0217234
0.0145628
0.0151125
0.0215165
0.0151029
0.00752
0.00722373
0.0151687
0.0159263
0.0144949
0.0202154
0.020686
0.00120218
0.0142965
0.0215394
0.020544
0.0148447
0.0151788
0.0124922
0.0155148
0.0271313
0.00135137
0.00744265
0.0226108
0.00349368
0.00996832
0.0107855
0.0102841
0.0251671
0.0266819
0.00334098
0.0272909
0.0242796
0.0174103
0.0173644
0.024679
0.0179936
0.0228045
0.0214144
0.00428528
0.00951788
0.0259586
0.000478624
0.000761095
0.0248225
0.0231499
0.004034
0.0245545
0.0180482
0.0158055
0.0102671
0.0233042
0.0227404
0.00825533
0.0215468
0.0200194
0.0176066
0.0157289
0.000969057
0.00166748
0.00119044
0.0181285
0.0208053
0.0133962
0.0236654
0.0262426
0.0129495
0.0114948
0.00805785
0.00482488
0.0287148
0.000128949
0.00330158
0.0103305
0.0012641
0.000281077
0.000530702
0.0110298
0.00808123
0.000999439
0.0356446
0.0225639
0.0170519
0.0264043
0.0147329
0.0283493
0.00461988
0.00911761
0.00952929
0.0272757
0.0273815
0.0147971
0.00774397
0.0155202
0.014007
0.0183157
0.0169991
0.0176958
0.0207341
0.00154404
0.0221275
0.0223507
0.0225224
0.0218764
0.0183623
0.0181042
0.0139443
0.0128348
0.0235293
0.0204177
0.006587
0.00514369
0.0138356
0.0198279
0.0264561
0.00641301
0.00742981
0.00770427
0.0197352
0.0249765
0.0262796
0.0258051
0.00209088
0.00124804
0.0245401
0.00079023
0.0241346
0.0251223
0.00508357
0.00705628
0.00317303
0.0234779
0.00891899
0.02063
0.0161845
0.0162686
0.0253217
0.0258196
0.0116158
0.0283648
0.0280915
0.0191218
0.0175589
8.58873e-05
0.000699966
0.019526
0.0176691
0.0213444
0.02774
0.0422525
0.0282732
0.02228
0.0282862
0.0224335
0.00278361
0.0206685
0.0238434
0.00322259
0.0224012
0.00546567
0.000610189
0.0219336
0.000776879
0.010216
0.0110955
0.0109814
0.0101162
0.000485104
0.00216689
0.00696756
0.0268714
0.0250455
0.0181462
0.0107838
0.0136455
0.00862351
0.010834
0.00800883
0.0104845
0.0102847
0.00927102
0.0191919
0.0164536
0.0220701
0.0163163
0.0221003
0.00154013
0.0216336
0.00112963
0.0285766
0.0222989
0.0145887
0.0183622
0.00890224
0.0116879
0.00407344
0.00299129
0.00715838
0.004821
0.0132025
0.0216407
0.0101118
0.0169489
0.0154669
0.00607345
0.0152114
0.0267856
0.00154023
0.0034561
0.00144432
0.0176625
0.0251874
0.020373
0.00659528
0.00518248
0.0248522
0.00319234
0.0249188
0.0235588
0.0429483
0.0250079
0.0247192
0.0282255
0.0264939
0.0254111
0.0198454
0.00510169
0.0205187
0.00486447
0.021028
0.0217481
-1.06301e-06
0.0266119
0.0124218
0.00248653
0.0208636
0.0263016
0.0205402
0.0235983
0.0205762
0.0104144
0.0127322
0.0198113
0.0223631
0.0244801
0.0262734
0.000801386
0.00346978
0.0167262
0.0221744
0.02083
0.018438
0.0194168
0.00143754
0.0184362
0.00994028
0.0104198
0.0101526
0.00885827
0.0117363
0.0141729
0.00060344
0.0226068
0.0235774
0.0199005
0.00132637
0.0234224
0.0142297
0.0149824
0.016913
0.0176694
0.0206181
0.0161052
0.0362841
0.00414113
0.0146886
0.0228697
0.0176304
0.0176282
0.00342261
0.0160307
0.0250957
0.0281179
0.0206522
0.0094715
0.0243502
0.00868333
0.016255
0.0259582
0.0273588
0.0162498
0.027656
0.0274214
0.0272359
0.0253772
0.017189
0.0264036
0.0249766
0.0219036
0.00980673
0.0197174
0.00776794
0.00215616
0.0201978
0.00639453
0.025746
0.0262409
0.0255499
0.023772
0.015066
0.0239371
0.0270444
0.0084372
0.00593721
0.0117044
0.0289934
0.0197421
0.0190074
0.00488095
0.00425021
0.0228385
0.00145829
0.0138492
0.0283963
0.0244078
0.0207638
0.0214572
0.0128755
0.0113815
0.00299991
0.0221021
0.000332264
0.00805881
0.0247636
0.00108672
0.00307874
0.00477444
0.0062822
0.00369684
0.0174493
0.0196157
0.0228554
0.0149889
0.00922035
0.0330668
0.00917893
0.0105945
0.0113059
0.0238387
0.0215015
0.0270324
0.0243454
0.00762549
0.0135707
0.0131895
0.0131669
0.015373
0.0186646
0.0187245
0.0217904
0.0207273
0.0193811
0.0142462
0.0105765
0.0107418
0.00263447
0.0204807
0.0243996
0.00871541
0.00360823
0.0365704
0.0137969
0.024996
0.0168254
0.0253434
0.0303884
0.019667
0.00882518
0.00749845
0.0161912
0.0269551
0.0257425
0.00666793
0.0286173
0.000260516
-0.000210159
0.0247068
0.0275434
0.0137566
0.0113897
0.0230857
0.0059042
0.0257899
0.0278563
0.0112095
0.0227631
0.0236364
0.0351255
0.00636501
0.0266183
0.015618
0.0162938
0.0224144
0.0267397
0.00301152
0.0208806
0.0286111
0.0278461
0.0298031
0.00637799
0.0233716
0.0227794
0.00328629
0.0184639
0.0266778
0.019092
0.00269108
0.00829314
0.0175816
0.00576829
0.0193324
0.00820036
0.000714235
0.000920117
0.0117575
0.00338732
0.0253936
0.0148446
0.00651253
0.0113433
0.0263141
0.0263962
0.0233672
0.024465
0.0259659
0.0149725
0.00269652
0.005612
0.0129607
0.0221498
0.0222227
0.0228277
0.0230906
0.0157713
0.0154619
0.0139971
0.0192097
0.0170485
0.0171691
0.0185233
0.0280459
0.0202045
0.0222206
0.0189498
0.0210204
0.0207747
0.0105116
0.0203962
0.0159517
0.00985904
0.0143346
0.0323582
0.0161524
0.0360454
0.02135
0.00619618
0.009594
0.0187893
0.0306552
0.0172321
0.0162751
0.00731116
0.0214356
0.000689154
0.00184337
0.000356109
0.0266915
0.026465
0.0268548
0.0138039
0.0290235
0.00516694
0.0275108
0.0279054
0.0268147
0.00279547
0.0306051
0.0270429
0.00206883
0.0286393
0.0162902
0.0170869
0.0160527
0.0223311
0.0242457
0.0199074
0.0209274
0.0221538
0.0137155
0.0132224
0.00342369
0.0278647
0.0219315
0.0250724
0.0191609
0.0243942
0.0272756
0.0101323
0.0262207
0.0026934
0.0195991
0.00928876
0.0010759
0.000172879
0.0117991
0.0245409
0.00926692
0.0224106
0.022805
0.00769361
0.023966
0.00894138
0.0287625
0.0227827
0.0283569
0.0213801
0.0116018
0.0225459
0.0236111
0.0261994
0.00604283
0.0232331
0.0232444
0.0243505
0.0261531
0.018675
0.0247077
0.0199044
0.00269591
0.0236818
0.00598773
0.0176701
0.018645
0.0128025
0.020441
0.0309199
0.0156058
0.014427
0.0152166
0.0105692
0.0198244
0.00736924
0.0131693
0.0243003
0.0115159
0.0229308
0.00687893
0.0245107
0.0204507
0.00638749
0.017334
0.0254932
0.00673824
0.0201087
0.0132265
0.0018066
0.000180741
0.00182833
0.0256505
0.0168432
0.01921
0.0146425
0.0143426
0.0257379
0.0279161
0.0270285
0.0204811
0.0266219
0.021761
0.0281507
0.0148043
0.0286785
0.0285011
0.028491
0.0275988
0.026818
0.00324019
0.0225308
0.0268906
0.0205033
0.0185312
0.0299308
0.0269529
0.0135462
0.0279585
0.00282718
0.0254075
0.0265746
0.0185763
0.0177249
0.0240384
0.0251627
0.0239664
0.00119284
0.0280021
0.0211342
0.00799027
0.000426642
0.0277315
0.00852305
0.00357301
0.00232424
0.000320327
0.0198678
0.0063208
0.0333394
0.0101273
0.0238848
0.0127791
0.00971025
0.0139481
0.0233579
0.00999111
0.027709
0.0230505
0.0135436
0.0259142
0.0231655
0.0198824
0.031055
0.0209849
0.0266808
0.0171473
0.0287714
0.0170642
0.0169575
0.00360086
0.021608
0.0204176
0.0216706
0.024955
0.0182649
0.0288625
0.0215999
0.0209951
0.00294217
0.0064602
0.0289879
0.0152488
0.00566435
0.0153642
0.0382411
0.00928185
0.0299502
0.0069615
0.00137133
0.011521
0.0119659
0.0106254
0.0198163
0.00612041
0.0184826
0.0231731
0.0165188
0.00551649
0.00597322
0.0271436
0.00169827
0.0202002
0.0187932
0.0124694
0.0253319
0.0302235
0.0131445
0.0253068
0.0236804
0.0209463
0.00042329
0.0204352
0.0228439
0.0270271
0.0275916
0.0311584
0.028942
0.00360359
0.0023907
0.0292104
0.00349389
0.0262128
0.028043
0.0260143
0.00564779
0.0320165
0.0123015
0.0231989
0.0278754
0.0251704
0.0259343
0.0248998
0.0237032
0.0216795
0.012738
0.0237941
0.0179944
0.00210504
0.011803
0.026057
0.0236948
0.0306825
0.032358
0.00165572
0.0168867
0.00277074
0.00527684
0.0272478
0.00520944
0.00445369
0.0286321
0.0066005
0.0111631
0.0164757
0.0276583
0.000295431
0.0270192
0.0232633
0.0128131
0.0265738
0.0282824
0.014645
0.0266424
0.0215749
0.0286172
0.0265778
0.0261546
0.0193095
0.0296416
0.0206227
0.00599996
0.0063197
0.0287872
0.0214417
0.0262964
0.0319562
0.0236775
0.0252446
0.0314999
0.00630588
0.0286058
0.0279391
0.028725
0.0157425
0.0414192
0.00485137
0.00811479
0.0127309
0.011763
0.0310642
0.00938168
0.0227926
0.0180917
0.0188894
0.0176596
0.00643284
0.0115942
0.00754569
0.0270245
0.00126431
0.028779
0.0293264
0.0296834
0.0140218
0.024621
0.0367445
0.0228704
0.00206037
0.0263759
0.00885196
0.0110688
0.0302559
0.0141941
0.0298816
0.0303837
0.0203385
0.00324812
0.0269724
0.0259053
0.0268488
0.0199629
0.0265452
0.0265219
0.0255989
0.0226027
0.0232736
0.0239523
0.0240728
0.0197924
0.0184101
0.00184404
0.0276061
0.0167008
0.0179036
0.019531
0.00993952
0.00834127
0.033279
0.0259044
0.0237168
0.0301776
0.0312084
0.0116913
0.00479184
0.00807944
0.0326612
0.0168264
0.00859241
0.0279144
0.00728409
0.0243504
0.0139702
0.00612993
0.00586627
0.022848
0.0132759
0.0250483
0.00104167
0.0220501
0.00231312
0.0238848
0.0136661
0.0199556
0.0204733
0.0194228
0.0251375
0.0243682
0.0274634
0.00846939
0.0375052
0.0361983
0.0318416
0.0219258
0.0216634
0.0168666
0.022934
0.025616
0.0269153
0.0307806
9.72972e-05
0.0119724
0.0132384
0.0407035
0.027571
0.00341898
0.0283866
0.00348884
0.0161853
0.0185735
0.0113492
0.00827596
0.0319967
0.0259631
0.00881753
0.0174521
0.0330206
0.0112526
0.00694155
0.000583361
0.016118
0.00240378
0.0297131
0.00703155
0.0315372
0.0374342
0.00962386
0.0262958
0.000353933
0.000376607
0.00913854
0.0304391
0.0304204
0.0289905
0.0257353
0.00192878
0.0198604
0.042653
0.0190266
0.0256023
0.0244091
0.0253555
0.025711
0.0203589
0.0281753
0.0249757
0.00876448
0.00216475
0.0024491
0.00247078
0.0239471
0.0267769
0.0149915
0.0267273
0.00630624
0.0065402
0.00743896
0.0230566
0.0312146
0.0307831
0.0323109
0.0182586
0.00907822
0.0283494
0.00859355
0.0229419
0.0248937
0.025781
0.0140432
0.028316
0.0128112
0.0234638
0.0243639
0.0233006
0.0123178
0.0174739
0.0432666
0.0108989
0.00278852
0.0222295
0.0190085
0.0237297
0.0153123
0.0178602
0.0192761
0.020574
0.0170221
0.0248298
0.0359292
0.0184466
0.0278733
0.0128391
0.0228716
0.0174009
0.0220693
0.0239738
0.0226193
0.0305108
0.00431739
0.0299507
0.0198282
0.000949393
0.0129959
0.031421
0.0281396
0.0166283
0.00395905
0.0254448
0.00919355
0.0322912
0.00925008
0.0263276
0.0249232
0.0293186
0.0222404
0.0270273
0.0184729
0.00310864
0.0242322
0.0027744
0.0294424
0.000289249
0.00101273
0.00615339
0.00223928
0.0201304
0.0010572
0.0325798
0.0328147
0.0275609
0.0283788
0.0308702
0.0309289
0.029891
0.0302942
0.00846751
0.0329841
0.0298073
0.00657288
0.0282405
0.0347274
0.0194491
0.000110974
0.0272085
0.0295682
0.0254294
0.023708
0.0267457
0.031799
0.00302371
0.0279925
0.00138299
0.000751256
7.64295e-05
0.0243816
0.0172558
0.00753073
0.014149
0.0276958
0.0408823
0.0194442
0.0253505
0.0260165
0.031615
0.00257355
0.0429915
0.0291759
0.00848184
0.0207139
0.0100659
0.0217721
0.026788
0.0102439
0.0287766
0.0223894
0.0121557
0.0191033
0.0117019
0.0236356
0.0189908
0.0303037
0.0311456
0.0088856
0.0161987
0.0196437
0.0191669
0.0259951
0.0365921
0.0132766
0.0258926
0.0198139
0.0130697
0.0167976
0.0330554
0.0185857
0.0170552
-0.000149336
0.0351188
0.0343832
0.00112581
0.0283428
0.00217092
0.0213372
0.0324415
0.00482703
0.0301454
0.0300623
0.0320025
0.0307074
0.0246685
0.0253591
0.0276975
0.00753911
0.026719
0.00932301
0.00249237
0.0141464
0.00381548
0.0253558
0.0274685
0.0117142
0.0116929
0.0142837
0.0321048
0.00362363
0.0274479
0.0163518
0.0317181
0.0224812
0.0310155
0.0299143
0.0334419
0.0297098
0.00140221
0.0197574
0.0295711
0.0206433
0.0269183
0.0259621
0.00547548
0.0312037
0.0236523
0.0326741
6.01447e-05
0.0297404
0.00753308
0.0160166
0.00215409
0.025346
0.0245449
0.0384297
0.0234854
0.00786286
0.0290937
0.027772
0.000857616
0.000600102
0.0378484
0.0259643
0.0090405
0.0420628
0.0103895
0.0163777
0.0283703
0.00037446
0.00328326
0.0430069
0.00826537
0.0124083
0.0122525
0.0202045
0.0277244
0.0159946
0.0116367
0.0283752
0.0318919
0.029488
0.0275191
0.0161857
0.0277538
0.0194912
0.011966
0.0244632
0.024075
0.0195431
0.0221217
0.0160583
0.0150803
0.0280231
0.0287738
0.0291889
0.0243002
0.0345091
0.0234694
0.024352
0.0228988
0.0240274
0.0290577
0.020893
0.00467087
0.0316167
0.0306136
0.0285742
0.00486149
0.0272172
0.0237061
0.0265513
0.0241751
0.0324034
0.0283952
0.00372715
0.0114613
0.0320566
0.0323168
0.0349005
0.00315421
0.0156149
0.0109733
0.0298934
0.0289255
0.0309811
0.0346315
0.0349668
0.0300603
0.0343366
0.029622
0.0291275
0.0187255
0.0309961
0.0262285
0.0343075
0.0414064
0.0259971
0.0242878
0.0428252
0.0214473
0.0152755
0.0319638
0.0176317
0.0343273
0.000982635
0.0266662
0.0165011
0.039497
0.0257334
0.0245405
0.032673
0.015723
0.00104615
0.0144405
0.0397866
0.000264576
-0.00016252
0.0263144
0.0102608
0.0110764
0.0109025
0.00783017
0.00664466
0.00742873
0.00599072
0.011735
0.0304973
0.0341471
0.00347168
0.0307914
0.0273048
0.00273595
0.0258706
0.0315655
0.031991
0.0180512
0.0222257
0.0169777
0.0313453
0.0176758
0.0272878
0.0242806
0.0180315
0.0251158
0.0306558
0.0173745
0.0170206
0.0249091
0.0244769
0.0207511
0.0333818
0.00392052
0.0351321
0.0213657
0.0182968
0.0201077
0.031619
0.0138101
0.0106532
0.0317366
0.0281468
0.0289243
0.0308984
0.0393767
0.0356687
0.0319031
0.0288273
0.0314611
0.0331096
0.0320743
0.0198983
0.0337165
0.0322161
0.00938094
0.0288298
0.0213506
0.0336282
0.0279323
0.0331189
0.016649
0.0298141
0.0210586
0.0245042
0.0309922
0.0335079
0.00905729
0.0273698
0.0217852
0.0210343
0.0222278
0.0342754
0.0280706
0.0296086
0.000597594
0.0251527
7.13576e-05
0.0294564
0.00246841
0.0404255
0.0102052
0.0209238
0.00822115
0.00792378
0.00714582
0.0271811
0.0295451
0.02029
0.0207882
0.027132
0.0184992
0.0310004
0.0318271
0.0231327
0.0349064
0.0302551
0.0351104
0.0304174
0.028442
0.0327071
0.0184803
0.0239646
0.0247336
0.0196557
0.00442248
0.0329872
0.0323855
0.0383548
0.0100309
0.030311
0.0270109
0.010737
0.0245814
0.0300389
0.026215
0.0341787
0.0324559
0.0309946
0.0337594
0.0251262
0.0322777
0.0336701
0.0325786
0.0319777
0.0267128
0.0299116
0.0236392
0.034572
0.0289786
0.0430381
0.042374
0.0279511
0.0342056
0.0274596
0.0269935
0.0262756
0.022468
0.031699
0.0281095
0.0303265
0.0316665
0.034649
0.0305081
0.0259799
0.0289221
0.0290145
0.0338061
0.0280431
0.029915
0.0318381
0.0330601
0.00236378
0.0305997
0.00324851
0.00373208
0.00412467
0.0020883
0.030127
0.00643753
0.000732595
0.0221602
0.0298587
0.0408266
0.0415651
0.0344994
0.0276248
0.0338161
0.0184019
0.0380387
0.0244213
0.0268449
0.0292501
0.0316336
0.0207409
0.0312404
0.0326338
0.0236751
0.0253789
0.0325126
0.0256033
0.0374728
0.0326938
0.0362758
0.0112162
0.00205073
0.0302732
0.0300025
0.029501
0.0364504
0.0309452
0.0371207
0.0310215
0.0333698
0.0195479
0.034683
0.025049
0.0334542
0.0265869
0.0338574
0.0348276
0.0212267
0.0307994
0.0228541
0.0319272
0.0227943
0.0322431
0.0280176
0.0269698
0.0322024
0.031146
0.0280238
0.0311742
0.0213159
0.0371656
0.0290666
0.0308345
0.0318389
0.0331821
0.00905781
0.0224791
0.0336255
0.00332004
0.00437208
0.0342643
0.0301588
0.000525577
0.0409259
0.0272592
0.0377341
0.0296817
0.0258647
0.0258542
0.0356669
0.0298921
0.0256393
0.0270027
0.0290864
0.0298177
0.0295522
0.0383765
0.0328038
0.0329565
0.0221796
0.022249
0.0347043
0.0280593
0.0328532
0.0328355
0.03706
0.0408705
0.0390249
0.0260958
0.0347333
0.0274335
0.0322405
0.0315423
0.0270133
0.0123269
0.0341784
0.0412601
0.033514
0.0257609
0.0297057
0.0257693
0.0424433
0.0237855
0.0305382
0.0258464
0.0270521
0.032358
0.0341789
0.027278
0.0327138
0.0320655
0.029112
0.033232
0.0322667
0.0322079
0.028858
0.0347311
0.0348925
0.0342929
0.0294242
0.0338559
0.033925
0.0335719
0.0107382
0.0343799
0.0244047
0.0252343
0.0309887
0.0370214
0.0246191
0.0299823
0.0347653
0.0294025
0.03009
0.0260292
0.0389159
0.0289999
0.0340658
0.0246805
0.0247672
0.0298033
0.0344753
0.024557
0.0293231
0.0291076
0.0339032
0.0344619
0.0293785
0.0296834
0.0369436
0.0368221
0.030369
0.0363976
0.0356424
0.0321246
0.0366286
0.0149781
0.0364498
0.0344876
0.0339401
0.0342682
0.0327372
0.0342203
0.0378051
0.0309145
0.0340356
0.0272449
0.0311804
0.0280716
0.0322057
0.0322049
0.0390204
0.0327663
0.0387665
0.0388699
0.0279263
0.0318624
0.0333882
0.022412
0.0288104
0.0298819
0.0298972
0.0380282
0.03311
0.025866