/*--------------------------------*- C++ -*----------------------------------*\
| =========                 |                                                 |
| \\      /  F ield         | OpenFOAM: The Open Source CFD Toolbox           |
|  \\    /   O peration     | Version:  2212                                  |
|   \\  /    A nd           | Website:  www.openfoam.com                      |
|    \\/     M anipulation  |                                                 |
\*---------------------------------------------------------------------------*/
FoamFile
{
    version     2.0;
    format      ascii;
    arch        "LSB;label=32;scalar=64";
    class       surfaceScalarField;
    location    "0.038";
    object      phi;
}
// * * * * * * * * * * * * * * * * * * * * * * * * * * * * * * * * * * * * * //

dimensions      [0 3 -1 0 0 0 0];

oriented        oriented;

internalField   nonuniform List<scalar> 
68568
(
-1.48522e-07
1.53399e-07
-2.89401e-08
2.40625e-08
1.43043e-07
-7.31274e-08
-7.59553e-08
6.03965e-09
1.73117e-07
-1.32241e-07
-5.88749e-08
1.79983e-08
-4.37226e-09
2.18882e-09
-1.65928e-07
1.68111e-07
-1.23106e-09
1.39036e-07
9.88232e-10
-1.38793e-07
1.37056e-07
-4.82013e-10
-1.25981e-07
-1.05925e-08
8.20822e-08
-8.72979e-08
1.28046e-07
-1.2283e-07
-3.87966e-08
-2.65243e-08
1.47403e-07
1.28842e-07
-1.53323e-08
-1.08664e-07
-4.84623e-09
1.47051e-07
5.26464e-08
-5.66544e-08
9.90661e-08
1.35208e-07
-6.11571e-08
-6.32404e-08
-1.9844e-07
1.88553e-07
-1.37987e-07
6.75978e-08
-5.56611e-09
1.79917e-07
-1.85435e-07
1.34956e-08
-7.97749e-09
-6.92164e-08
-5.07838e-08
1.18838e-07
1.16243e-09
1.25989e-07
8.67186e-08
-1.2878e-07
-8.39283e-08
-5.03332e-08
-7.74979e-08
1.13267e-07
1.45639e-08
1.11054e-07
-1.16093e-07
-4.52936e-08
1.10159e-07
-4.44818e-09
-6.46088e-10
-1.05065e-07
8.4467e-08
-1.52526e-07
7.64924e-08
-8.43351e-09
1.11763e-07
-4.47584e-10
-1.11227e-07
-8.887e-11
-1.76712e-08
8.91267e-09
1.38602e-07
-1.29844e-07
-4.52253e-08
1.87328e-07
-2.70901e-08
-1.15012e-07
-6.91848e-10
-4.59456e-10
-1.34659e-07
1.35811e-07
-7.41731e-08
-4.82041e-08
1.15554e-07
6.82305e-09
-9.62989e-08
-3.95004e-08
-1.27225e-08
-6.43451e-08
1.40374e-07
8.43776e-09
7.65799e-08
4.53432e-08
-2.99572e-08
-9.19659e-08
-6.74728e-08
-9.89044e-08
1.27581e-07
4.82874e-08
-1.19163e-07
3.40269e-09
1.518e-07
-8.10683e-08
-1.43001e-07
7.22694e-08
-1.32241e-08
2.52036e-09
1.16392e-07
-1.05689e-07
1.5526e-07
-3.24315e-08
-1.10627e-08
-1.11766e-07
1.18909e-07
-9.1255e-08
-5.84637e-08
3.08093e-08
-4.73606e-10
1.08882e-07
-1.08448e-07
3.94151e-11
1.20829e-07
8.46391e-08
-8.48071e-08
6.32883e-10
-4.64933e-10
4.27159e-08
-1.58377e-07
9.21723e-08
2.34893e-08
-1.60855e-07
1.39766e-07
6.3805e-08
-7.36988e-08
-1.83369e-10
-2.90889e-10
-8.32991e-10
1.13679e-07
-1.08225e-09
1.12238e-07
-1.11899e-07
-5.42693e-10
2.03471e-10
-2.64017e-08
-1.56811e-07
1.18838e-07
1.92607e-07
-1.46654e-07
-1.64791e-07
-6.13864e-08
-1.02928e-07
2.90304e-07
-1.45294e-07
1.62648e-07
-1.3657e-07
1.19215e-07
-1.23269e-07
6.54017e-08
-5.37305e-09
1.1438e-07
-1.11661e-07
-3.52666e-09
8.07808e-10
9.75328e-08
2.50219e-08
1.16922e-08
-1.34247e-07
2.13449e-09
-1.51556e-07
1.46923e-07
3.38731e-08
-2.92399e-08
-8.41023e-09
-9.33951e-08
1.01472e-07
3.3354e-10
-1.52019e-07
1.36957e-07
1.79392e-07
-1.62295e-07
-3.64872e-10
-2.14485e-10
2.03503e-09
-1.61858e-09
1.08262e-07
-1.08679e-07
3.93093e-08
-1.14703e-07
-2.10468e-09
9.15634e-08
-9.79241e-08
3.76541e-09
2.59521e-09
-8.52146e-08
1.414e-07
-6.22557e-08
6.07012e-09
1.46218e-07
-7.57806e-08
-7.38869e-08
3.4491e-09
9.06373e-08
-9.0861e-08
-4.68178e-10
-1.11508e-07
-1.71573e-09
1.15413e-07
7.54215e-08
7.11615e-08
-7.64591e-09
-1.38937e-07
-5.96676e-09
1.35167e-07
-1.29995e-07
7.94685e-10
8.83323e-08
-1.4964e-07
-3.03716e-09
1.07834e-07
-1.78808e-08
3.35817e-08
-1.23535e-07
1.48968e-07
-2.32783e-08
-1.68841e-07
4.31519e-08
4.05516e-08
8.15294e-08
-1.19217e-08
6.41847e-08
-1.27094e-07
6.96877e-08
-6.77817e-09
1.34394e-07
-1.35481e-07
-1.44327e-10
-1.00046e-07
1.4276e-07
-3.15779e-08
-1.1136e-08
-2.04215e-07
-1.49819e-07
2.8637e-07
6.7663e-08
-1.18137e-07
2.35617e-10
1.22618e-07
-6.46682e-09
1.34391e-07
-1.42605e-07
-5.35948e-08
6.18088e-08
-1.25146e-07
6.4633e-08
6.64414e-08
-5.92821e-09
-4.22131e-08
-5.21782e-08
-4.84087e-08
-1.0063e-07
1.00919e-07
-4.48759e-10
1.59505e-10
3.98489e-08
1.73121e-07
-6.67513e-08
1.04462e-07
-6.28618e-08
4.99627e-08
-7.27328e-08
-7.98268e-08
1.48602e-07
3.95763e-09
-5.43766e-10
-2.18106e-07
-6.40404e-10
2.1929e-07
7.40207e-08
-4.64005e-08
8.4618e-08
-1.97883e-10
6.45839e-08
-6.44262e-08
4.01971e-11
-1.90348e-08
1.39265e-07
6.69081e-08
-1.87138e-07
1.69563e-07
-8.57018e-08
-8.89097e-08
5.04808e-09
1.18936e-07
3.77108e-08
-3.6086e-08
-1.20561e-07
1.62555e-07
-7.65516e-08
7.58224e-08
-1.61825e-07
3.49383e-08
1.31638e-08
1.14453e-07
-8.81256e-08
8.38698e-08
-1.61672e-07
1.24128e-07
9.594e-10
-1.21213e-07
-3.87422e-09
-3.94416e-08
-2.78294e-07
1.94466e-07
8.34917e-08
8.5821e-08
-6.6649e-09
-4.46575e-10
5.24332e-10
9.32296e-08
-9.33073e-08
-1.23309e-07
1.23175e-07
-3.26019e-10
-5.96553e-08
1.19058e-07
5.99889e-09
7.29433e-09
8.70083e-08
-4.92942e-09
-8.93732e-08
-1.27452e-07
5.62262e-08
8.90205e-08
-1.77951e-08
-4.39256e-08
-8.06462e-08
-1.00874e-08
-8.27438e-08
1.60716e-07
5.51955e-09
7.19201e-08
7.50208e-08
-1.41879e-07
-5.06167e-09
1.1336e-07
8.67482e-10
-1.14166e-07
-6.15942e-11
-6.19232e-09
-1.90307e-07
-1.39024e-08
1.99512e-07
-5.99349e-09
1.1926e-07
-1.20747e-07
5.71647e-08
-7.44475e-09
9.72843e-08
-4.36172e-10
-9.57691e-08
-1.07901e-09
1.21749e-07
-8.0462e-10
1.35087e-07
-4.60066e-08
8.04835e-08
1.23975e-10
-1.03474e-07
-3.35439e-09
1.11181e-07
-4.35174e-09
9.06939e-08
-4.99804e-08
-8.9931e-08
8.255e-11
8.97131e-08
1.35407e-10
-3.48245e-08
-1.3544e-07
1.44257e-07
2.6008e-08
-2.09015e-09
1.30072e-07
-1.27598e-07
-3.83687e-10
-8.77254e-08
-3.65e-08
1.24605e-07
-3.79236e-10
-4.21721e-09
2.05333e-09
-1.09344e-07
-1.62767e-07
8.69497e-08
8.10064e-08
-5.18937e-09
3.14086e-10
-1.00477e-07
1.004e-07
-2.36652e-10
1.37228e-07
-7.4439e-10
-2.41493e-10
-1.10139e-07
2.97515e-10
1.10083e-07
-4.49275e-08
2.08015e-08
3.21557e-08
1.30821e-07
-7.15527e-08
4.91632e-09
1.39914e-07
-1.39048e-07
-1.40895e-08
-1.23423e-07
1.39265e-07
1.90397e-08
-3.48819e-08
7.17714e-08
-7.30098e-08
1.50206e-07
3.82634e-09
1.12688e-07
1.51318e-07
-1.29773e-09
-1.5211e-07
6.82138e-08
-1.42361e-07
-4.38441e-09
7.85316e-08
1.42442e-07
-7.8536e-08
8.01449e-09
9.95812e-08
-9.74706e-08
-1.12036e-07
5.78338e-08
-3.06044e-08
-1.49279e-07
1.42327e-07
-1.90507e-08
2.60028e-08
1.60783e-07
4.57284e-08
-5.01808e-08
-1.55266e-07
-7.35239e-08
-3.0107e-08
8.03554e-08
2.32755e-08
-1.30004e-07
6.84055e-08
-5.42566e-08
1.15856e-07
-1.51533e-07
-3.34029e-09
1.57851e-07
-2.97818e-09
-1.08539e-07
2.05842e-08
-6.35773e-08
-1.62918e-07
-6.27549e-09
9.44688e-08
-1.40177e-09
-1.12056e-07
-5.2455e-10
-1.08538e-07
1.39313e-07
-7.36873e-08
6.001e-09
1.55254e-07
-8.2949e-08
-7.87878e-08
6.48269e-09
-1.33732e-07
1.79549e-07
-4.61576e-08
3.41056e-10
8.19619e-08
-8.25393e-08
-1.33155e-07
9.46152e-08
7.31339e-09
-2.34744e-09
6.46906e-10
1.04363e-07
-1.03838e-07
-1.17183e-09
1.89232e-07
-4.80428e-08
-1.03478e-07
-1.083e-07
8.11827e-08
1.14661e-07
-1.10023e-07
-2.58528e-09
-1.79812e-09
1.0157e-07
-1.00094e-07
3.21984e-10
-9.64925e-09
-1.34544e-07
1.31607e-07
1.25859e-08
-1.38886e-07
1.55628e-07
-9.82327e-09
-6.91918e-09
1.20705e-07
-6.25736e-08
-5.68555e-08
7.5609e-09
-7.95585e-09
-9.73254e-08
9.6871e-08
3.27635e-08
-6.72164e-09
-1.34581e-07
-2.0048e-08
1.10182e-07
-8.38965e-08
-6.23758e-09
1.59503e-07
-6.70443e-09
-1.36484e-08
-1.3915e-07
1.56036e-07
1.4867e-10
-2.5896e-09
-1.53595e-07
1.35813e-07
-1.34558e-09
-7.28002e-11
1.28761e-07
-1.29017e-07
2.43893e-10
1.24655e-11
-1.24858e-07
-8.14555e-08
1.25667e-07
2.10502e-08
-1.69475e-07
-1.10427e-07
1.10233e-07
4.45154e-11
1.4961e-10
-1.33531e-07
-7.23753e-09
1.88261e-09
-1.01672e-07
-2.42779e-11
1.01673e-07
2.27805e-11
-1.21788e-07
-2.81775e-10
1.22161e-07
-9.09401e-11
-9.20683e-09
1.19537e-07
-1.01709e-07
-7.62331e-09
-1.02406e-07
1.02026e-07
1.38689e-10
1.89036e-08
2.84472e-08
8.67391e-08
-1.32805e-07
7.23357e-08
-7.26506e-08
1.43472e-07
-1.43157e-07
1.02913e-07
-8.0993e-08
-2.41111e-08
2.19083e-09
1.11415e-07
-1.16709e-08
-1.06865e-07
9.25182e-09
5.67256e-09
-1.08178e-07
1.22333e-07
-1.98276e-08
-5.56405e-10
1.01891e-07
-1.00911e-07
-4.2371e-10
-1.40076e-07
-8.43745e-09
1.64205e-07
2.04944e-07
-8.73936e-08
1.85076e-07
1.5251e-07
-7.61069e-08
5.55904e-09
-3.19555e-08
2.5662e-08
-1.08183e-07
1.17107e-07
8.77296e-08
9.28215e-08
-7.43037e-09
9.24004e-08
7.1988e-08
-1.58569e-07
-5.81885e-09
8.13693e-08
7.86974e-08
-7.55681e-09
1.20844e-07
-7.47349e-08
8.2652e-08
7.32209e-08
-1.24132e-07
5.90999e-08
-8.1887e-09
6.68412e-10
-9.83359e-08
-1.23694e-09
3.43161e-10
-3.07684e-07
1.83635e-07
1.86439e-07
-1.19202e-07
3.6892e-08
9.34479e-09
4.30926e-08
4.49986e-08
-9.7436e-08
-1.2715e-07
1.91925e-09
1.26371e-07
-1.14024e-09
-9.7688e-08
9.72557e-08
-3.03533e-11
4.62612e-10
1.27489e-07
-1.65046e-07
1.95174e-07
-1.57617e-07
1.53893e-08
-1.42948e-09
1.25076e-07
-3.13299e-08
7.34862e-09
-7.29295e-08
9.69108e-08
-7.13545e-08
1.3849e-07
5.20039e-09
-1.44709e-07
7.51129e-08
7.47486e-08
-5.15257e-09
-1.09606e-07
-2.46976e-08
1.14256e-07
4.68623e-10
7.61346e-08
-5.4628e-11
-7.65486e-08
1.44637e-07
-6.57677e-08
7.63905e-08
1.33518e-09
-1.15053e-10
7.31589e-11
-9.6058e-08
1.76225e-07
-4.70517e-08
-2.91293e-08
-1.00044e-07
4.47717e-09
2.93514e-08
-1.15109e-07
8.49486e-08
-3.36302e-08
2.24194e-08
1.91689e-07
-2.3854e-09
1.64609e-07
-1.77755e-07
-6.21976e-08
-6.6684e-08
5.4584e-09
1.30117e-07
6.28789e-09
-7.0312e-08
-7.12564e-08
1.34277e-07
7.29124e-09
5.23243e-09
1.07548e-07
-1.45106e-07
-1.49032e-10
6.93225e-08
-6.88636e-09
-6.50469e-10
-1.33446e-07
1.35282e-10
1.33961e-07
-1.34771e-07
1.6376e-07
-4.14413e-08
1.10388e-08
-9.3878e-09
5.05288e-08
1.10177e-07
-1.27445e-07
7.43537e-08
-2.66794e-08
7.97712e-08
-1.39475e-07
9.40012e-08
-1.27695e-07
1.26116e-07
2.80345e-10
9.16427e-08
2.17938e-08
-1.64893e-07
-2.14795e-08
1.64578e-07
-1.81091e-07
9.92992e-08
-1.36314e-07
-1.68584e-09
1.64092e-07
2.40352e-08
6.60829e-08
-9.47292e-08
4.61112e-09
7.74656e-08
-4.43746e-08
2.84714e-10
-9.91581e-08
4.57397e-10
-2.3317e-07
2.33084e-07
-5.55219e-10
-9.46105e-08
-9.90166e-08
-9.26112e-08
1.00583e-07
-1.10379e-07
8.34625e-08
-1.05853e-07
1.69491e-08
5.44147e-09
1.2479e-07
-8.99648e-08
-9.16358e-09
-1.53616e-07
-1.10233e-08
2.0861e-08
1.43779e-07
-3.07032e-07
-3.09115e-10
-1.30361e-07
1.29565e-07
3.49562e-10
-9.27322e-08
-9.16576e-11
2.12742e-10
-1.41088e-08
-9.35524e-08
1.50023e-07
-4.23615e-08
1.07382e-07
5.36575e-09
4.32876e-08
-1.34158e-07
1.33248e-07
-3.53888e-09
-5.71872e-08
1.42412e-07
-9.85904e-08
3.11865e-10
-1.27166e-07
-2.95963e-10
9.13802e-08
-9.32142e-08
2.15404e-10
-6.59209e-08
-6.5586e-08
1.23742e-07
7.76493e-09
1.12543e-07
1.75363e-08
-9.65273e-08
-3.35523e-08
4.25768e-08
1.51684e-07
-1.85354e-07
-1.09122e-08
-1.09736e-07
-1.92816e-08
1.26607e-07
2.98539e-11
-1.26896e-07
2.5899e-10
2.38786e-08
7.58942e-09
5.4118e-08
-8.5586e-08
-1.4083e-07
7.55645e-08
-5.04673e-09
-1.14748e-07
1.11334e-07
-6.9172e-09
-3.53107e-10
1.20843e-07
3.54348e-10
-7.9837e-08
-7.15768e-08
1.44311e-07
7.10235e-09
1.28625e-07
-6.91243e-08
-6.63789e-08
6.87842e-09
1.2883e-07
-2.21262e-09
-1.03404e-11
-1.00793e-07
-9.10585e-08
9.91193e-08
-1.29039e-07
-4.66457e-08
2.07633e-09
1.74595e-07
-1.05441e-07
2.95078e-08
-1.28282e-07
1.55385e-10
-1.04949e-07
5.75996e-10
-6.89911e-10
1.33873e-07
2.55071e-08
-2.7262e-08
-1.32118e-07
4.5848e-08
-1.29097e-07
-5.78433e-11
1.0108e-10
3.87125e-08
-1.93257e-07
-7.79904e-08
1.31706e-07
8.90441e-08
2.05616e-08
-1.45252e-07
-1.82783e-08
1.42969e-07
-8.11279e-08
6.33012e-09
1.32558e-07
-1.31427e-07
9.14237e-08
4.14669e-08
-1.46348e-09
-5.64753e-10
9.87725e-11
-9.66383e-08
6.63771e-08
-4.56337e-09
-1.49228e-09
-2.92983e-09
-2.34717e-09
9.50541e-08
-8.97771e-08
8.20729e-08
1.04665e-07
-1.0318e-07
-8.35587e-08
1.48291e-07
-1.65555e-07
3.66174e-10
1.43078e-10
1.56632e-07
-1.01637e-08
-1.37555e-07
-4.23036e-08
1.52052e-07
1.09569e-08
1.18318e-07
-1.11595e-07
-5.76811e-09
-9.55249e-10
-1.00753e-09
1.13718e-07
1.63767e-07
-5.69093e-08
-2.3949e-09
9.35572e-08
-8.30121e-08
-5.21689e-10
3.31557e-10
1.40104e-07
-1.54306e-07
6.44023e-09
1.41664e-07
4.16103e-09
-1.19679e-08
1.52591e-07
-1.9112e-07
4.10873e-08
1.03345e-09
9.01497e-08
-8.81235e-10
-9.03019e-08
-1.17243e-07
1.17447e-07
-1.3057e-10
1.12264e-09
-2.42928e-10
-1.1164e-07
1.10669e-07
-3.70081e-11
-1.097e-07
-2.5342e-10
2.17129e-10
7.12864e-08
-1.02356e-07
-7.6245e-08
1.07315e-07
1.77804e-11
-1.1518e-07
1.15313e-07
-1.50458e-10
-4.13951e-08
8.65928e-08
-1.5313e-08
-1.94928e-08
-1.40516e-07
7.30703e-08
-6.07853e-09
2.80532e-08
-1.58574e-08
1.06123e-07
-1.35202e-07
6.5137e-08
6.27898e-08
7.27546e-09
-1.58044e-07
-1.10472e-07
1.11163e-07
-1.25815e-07
-4.30435e-08
5.76953e-08
1.29473e-07
-1.30218e-07
2.15811e-10
5.29384e-10
-1.76144e-09
-1.83293e-07
1.47869e-10
1.84907e-07
-1.0508e-07
4.68992e-11
1.05063e-07
-1.27284e-07
-8.45693e-11
4.72929e-10
7.21505e-08
-1.27443e-07
-6.90473e-09
2.54545e-10
-1.29093e-07
-1.78797e-10
7.60357e-08
7.64496e-08
-5.56226e-09
-7.3434e-08
-7.36574e-08
1.40829e-07
6.2629e-09
-1.16636e-07
8.89537e-10
1.15536e-07
2.1043e-10
1.23927e-07
3.05858e-08
1.10324e-07
-1.56311e-08
1.07858e-07
-5.59129e-09
-9.8728e-08
4.65449e-08
4.49288e-08
7.25423e-09
3.9933e-08
1.27955e-07
-4.2343e-08
-1.21403e-07
7.3239e-08
-7.12113e-08
-1.30985e-07
-1.05508e-07
1.15914e-07
1.2058e-07
1.08463e-07
-1.45657e-10
1.15234e-07
-1.1661e-07
1.40558e-09
-2.97087e-11
-1.30712e-07
-1.28513e-07
8.45981e-10
6.82496e-11
1.69829e-08
3.68132e-08
-1.58421e-07
1.51482e-08
-4.29951e-08
1.95866e-07
1.33641e-07
-1.07486e-07
-2.93034e-08
3.3992e-09
1.92164e-08
-2.11458e-08
1.32552e-07
-3.29291e-08
-7.84769e-08
1.05908e-07
-6.61167e-10
-1.05013e-07
-2.33482e-10
-4.15001e-08
-1.4418e-07
2.86243e-07
-1.00563e-07
1.04044e-07
-7.91884e-08
-8.20113e-10
5.40386e-12
1.02221e-07
-3.35415e-10
7.32157e-08
-7.369e-08
1.28396e-07
-1.68767e-07
-1.29749e-07
7.90327e-08
1.25829e-07
-2.31884e-09
-3.0158e-08
-8.17672e-08
7.08322e-08
8.46521e-08
8.28237e-09
1.59395e-07
-1.24186e-07
2.72138e-09
1.47421e-07
-7.96882e-08
7.01599e-09
1.19376e-07
-1.5803e-07
1.29422e-07
-7.95929e-08
-3.41686e-08
-1.38588e-08
1.85779e-09
1.03714e-07
-1.15221e-07
6.79014e-08
-1.28538e-07
-5.28419e-09
1.48591e-07
8.23346e-09
-4.4469e-08
1.33621e-07
-8.95508e-08
-2.23718e-09
-2.54796e-08
1.38983e-07
-1.55926e-07
4.24227e-08
1.15983e-07
2.08687e-08
-5.53225e-08
-1.77093e-09
-1.36352e-07
1.36253e-07
-8.9549e-10
-2.98157e-08
2.26107e-08
-9.68973e-08
1.04102e-07
7.50576e-08
-1.41237e-07
-5.07654e-09
-1.3528e-07
1.35686e-07
-1.51775e-10
-7.61355e-08
1.57164e-07
-1.22529e-07
-7.20034e-08
-7.92998e-08
1.58629e-08
-1.00078e-07
-1.0218e-10
2.08806e-07
2.62729e-08
-1.31689e-07
-1.06323e-07
-7.35e-08
1.31638e-07
2.28232e-07
-1.58416e-10
-8.91737e-08
-3.294e-11
8.93651e-08
3.23e-08
1.10453e-07
-6.37721e-10
1.48814e-07
6.25448e-09
9.64179e-08
5.65131e-08
2.69727e-09
7.32227e-08
-1.41121e-07
-5.53571e-09
-7.25978e-08
-8.17855e-08
1.4568e-07
8.70376e-09
-9.02593e-08
-4.35334e-09
-4.11533e-09
-5.9925e-08
-1.21533e-07
1.13601e-07
-6.14458e-11
-1.23396e-07
-3.34694e-09
1.20777e-07
-8.96049e-08
-1.35876e-07
9.72379e-08
1.28243e-07
-1.11826e-07
3.88339e-08
7.61984e-08
-3.20672e-09
7.02129e-08
6.99853e-08
-1.33224e-07
-6.97423e-09
-7.11708e-08
-6.86086e-08
1.3347e-07
6.30961e-09
5.16264e-08
4.79243e-08
-1.09518e-07
9.96724e-09
-6.715e-08
1.11996e-07
-3.64621e-08
-8.38368e-09
1.05459e-07
-1.05905e-07
-2.04537e-10
-9.39423e-08
6.33796e-10
8.18205e-08
1.0583e-07
-2.82523e-08
-1.59398e-07
-3.11192e-08
8.8765e-08
3.83066e-08
-9.59524e-08
-9.77726e-08
2.43849e-12
9.94271e-08
-1.65693e-09
-7.36453e-08
-4.23927e-08
9.48922e-08
1.23916e-07
-3.32977e-09
7.01335e-08
-1.3062e-07
6.55675e-08
-5.08092e-09
-5.80313e-08
4.11807e-08
-1.19874e-07
1.14572e-08
1.3095e-07
-1.05687e-07
-3.57096e-08
8.17892e-08
8.24818e-08
-7.42471e-08
7.50549e-10
-1.22423e-07
-1.14934e-10
2.67036e-08
-1.57431e-08
1.0344e-07
-1.1727e-07
5.65382e-08
5.35218e-08
7.21035e-09
7.37209e-08
-4.91636e-09
3.93768e-08
6.34063e-08
7.39902e-09
8.95105e-09
1.27401e-07
-1.0523e-08
-6.39485e-09
-8.22768e-08
8.04393e-08
1.34389e-07
-7.44398e-08
-1.56988e-07
1.57541e-07
1.64751e-07
5.83289e-08
-5.57921e-08
-1.67287e-07
1.43433e-08
-1.29561e-07
1.39097e-07
-7.85809e-08
-7.1629e-08
1.43471e-07
6.73937e-09
-4.63643e-08
-1.11698e-07
1.90174e-09
6.8077e-08
-6.75455e-09
1.30093e-07
-5.79546e-10
-4.06529e-11
2.2343e-08
-8.61102e-08
9.18204e-08
2.0484e-10
2.24202e-10
-1.35709e-07
-2.7257e-09
8.46414e-08
-8.21502e-08
1.14173e-08
-8.41475e-08
1.43835e-07
-7.11052e-08
-2.80058e-08
-1.35297e-07
1.21545e-09
1.62087e-07
9.33069e-08
-1.79499e-07
7.02756e-08
1.59168e-08
-1.2286e-07
9.03941e-08
-9.78949e-08
1.00642e-07
-6.38872e-10
-9.96772e-08
-3.2545e-10
-4.56573e-08
-1.2864e-07
4.60759e-08
1.28221e-07
-7.27657e-08
-1.22906e-07
1.48951e-07
4.67203e-08
-2.86417e-09
-1.42597e-07
1.4325e-07
2.21164e-09
-1.25557e-07
1.25398e-07
-1.6032e-09
-1.4416e-07
1.27401e-07
-6.41068e-08
1.3779e-07
7.08749e-08
-5.92087e-09
7.6808e-08
-1.37058e-07
-6.38817e-08
-1.26232e-07
8.78203e-08
-1.02418e-07
-1.35369e-08
1.42316e-07
-8.78243e-08
-3.48315e-08
1.20796e-07
-1.18761e-07
-3.3714e-09
1.33614e-09
-9.78463e-08
-2.36844e-09
4.15673e-09
1.56791e-10
-1.50059e-07
1.47038e-07
-9.06478e-08
-3.90973e-10
7.79479e-10
-9.29479e-08
7.81399e-08
1.53817e-08
-5.73685e-10
-5.55983e-08
-1.33322e-07
1.79323e-07
9.59728e-09
1.1589e-07
-5.00753e-10
5.65024e-08
4.8139e-08
-1.13483e-07
8.84174e-09
-1.09149e-07
-5.75124e-10
1.09422e-07
3.01454e-10
-1.06621e-07
1.523e-08
-2.52194e-08
6.32367e-08
-1.21208e-07
5.11822e-08
6.7895e-09
-4.66378e-09
-9.4236e-08
4.28932e-09
1.47182e-09
-1.34095e-07
1.63776e-09
5.3662e-08
7.47035e-08
-1.04792e-07
2.0119e-08
7.26959e-08
2.07145e-08
1.27503e-07
-1.28057e-07
5.70155e-10
-1.58456e-11
-2.06228e-07
1.94431e-07
8.56295e-08
-7.38323e-08
5.6983e-08
-1.46901e-07
1.12891e-07
-2.29727e-08
7.46366e-08
-6.72574e-09
-6.76776e-10
-3.59742e-11
5.78501e-08
-6.13619e-08
-1.15923e-07
1.64983e-07
-1.36786e-07
1.1369e-07
-1.49815e-08
6.78947e-10
-1.51934e-07
1.51261e-07
1.30324e-07
-1.58756e-07
-1.38322e-09
-8.728e-08
-8.30102e-08
1.63434e-07
6.85585e-09
9.45662e-08
9.67651e-11
-9.47124e-08
4.94884e-11
-1.47707e-07
7.90508e-08
7.32916e-08
-4.63568e-09
-1.99901e-07
1.24024e-07
-1.38711e-07
2.14588e-07
-1.92788e-07
2.52479e-08
-4.5692e-08
-1.13002e-07
-1.63964e-07
1.00689e-07
3.77957e-08
-1.47027e-08
-1.28445e-07
1.40011e-07
3.13675e-09
-3.31505e-09
-1.11916e-07
-9.62608e-09
1.1623e-07
-1.11456e-07
1.15098e-07
-3.62144e-08
1.68343e-07
1.2722e-07
1.32484e-07
-1.29587e-07
-1.23236e-07
3.99716e-10
1.1946e-07
-1.19942e-07
8.2055e-11
1.03287e-07
-1.11825e-07
3.87419e-09
-8.01864e-08
-6.36225e-10
7.00522e-08
1.05158e-07
-4.51163e-08
6.38187e-08
-1.23209e-07
-4.71614e-09
-2.97032e-10
1.16316e-07
-1.16144e-07
1.25165e-10
-1.20153e-07
-2.58662e-10
1.21116e-07
-7.04142e-10
-1.22395e-07
4.48846e-08
-3.40845e-08
-1.19779e-08
1.00748e-07
8.06307e-08
-1.14828e-09
-1.80231e-07
2.97883e-09
-1.0996e-10
-1.73656e-08
8.33672e-08
-1.49526e-07
8.35242e-08
-1.29067e-07
1.30988e-07
6.71125e-08
-6.24974e-09
2.79902e-08
-1.34074e-07
-3.79291e-08
1.44013e-07
4.1578e-08
1.18702e-08
3.49717e-08
-8.84199e-08
7.06886e-08
7.70974e-08
-1.41489e-07
-6.29717e-09
-1.05886e-07
1.04119e-07
1.74436e-09
2.2093e-11
-6.97212e-08
7.30835e-09
5.69516e-08
-5.48047e-08
1.28638e-07
-1.30785e-07
-1.07343e-07
2.27382e-07
-4.7332e-08
-7.27073e-08
8.81736e-08
-7.38353e-08
-7.71954e-08
6.28571e-08
7.00337e-08
-5.75123e-08
-1.39805e-07
5.5038e-08
8.63124e-09
5.96518e-08
8.25136e-08
7.72382e-08
7.92421e-08
-1.50363e-07
-6.11717e-09
1.38269e-07
8.25079e-09
-6.36662e-09
-1.40154e-07
1.055e-07
7.84412e-10
-3.76823e-10
9.95583e-08
-1.01415e-07
2.36097e-09
-5.04348e-10
-6.75931e-08
-7.95694e-08
1.40253e-07
6.90966e-09
-1.24361e-07
1.54205e-09
4.23818e-10
-1.0946e-07
-3.84451e-11
3.49875e-10
1.16279e-08
1.2722e-07
1.14919e-07
1.99192e-09
-1.02081e-09
1.52715e-10
-1.06292e-07
1.05564e-07
1.00256e-07
1.77902e-08
2.74965e-09
-1.22987e-08
3.7363e-08
-1.23998e-07
9.89336e-08
1.29006e-07
-1.28801e-07
-9.94819e-11
-1.06207e-10
-3.06399e-08
-1.22296e-07
1.78184e-07
-1.22674e-07
-1.97592e-08
1.47685e-07
-5.25129e-09
1.59042e-07
-1.34988e-07
-2.32663e-08
-2.12274e-08
1.32667e-07
1.30233e-07
-1.31181e-07
4.178e-10
5.30202e-10
1.55003e-07
-4.77873e-08
-1.52519e-07
4.53029e-08
1.28614e-07
-1.28791e-07
1.52328e-07
-1.52151e-07
9.29703e-09
-1.28311e-08
-1.01709e-07
1.05243e-07
2.75853e-08
-1.06198e-07
-4.50454e-08
1.23658e-07
8.95544e-08
8.12859e-08
-1.63629e-07
-7.21188e-09
2.10674e-07
-2.22896e-07
-1.07654e-07
-1.24645e-07
1.05989e-07
-1.35087e-08
1.30201e-08
-1.92426e-07
1.66984e-07
-8.87193e-08
1.38559e-07
-2.35706e-07
1.85866e-07
8.23494e-08
-1.64944e-07
-6.12498e-09
2.11052e-08
9.26568e-08
-1.60139e-08
-9.77481e-08
-1.53554e-09
1.26071e-07
-1.46396e-08
-1.06502e-07
-6.10488e-08
1.59018e-07
-1.11076e-07
1.31072e-08
-2.83555e-08
8.19622e-08
-4.61005e-08
-7.50622e-09
2.94203e-10
-1.03004e-07
1.03133e-07
-4.23421e-10
2.73181e-09
1.28936e-07
-1.3054e-07
-1.12789e-09
-5.10161e-08
-1.30822e-07
1.43313e-07
4.44906e-08
-4.42438e-08
1.48062e-07
5.73013e-09
-4.96073e-08
-4.58953e-08
1.30779e-07
-2.34871e-07
-7.00816e-09
-1.57028e-07
1.24125e-07
-7.44397e-08
1.27456e-07
-1.24259e-07
-4.65182e-10
-1.01519e-07
1.55079e-09
-2.30051e-09
1.02269e-07
6.40733e-08
-1.96936e-07
-1.50704e-07
-7.03965e-11
1.30567e-07
-1.30285e-07
-2.11066e-10
-1.22078e-07
-4.31453e-08
1.5655e-07
5.86584e-09
-9.41109e-09
1.14493e-07
-1.02561e-07
-1.17215e-08
1.49633e-07
-1.20472e-07
3.98747e-10
-7.94446e-11
6.65563e-08
-1.5781e-07
8.57114e-08
5.54222e-09
-1.49164e-09
-1.2094e-07
-1.55663e-09
1.31666e-07
6.13495e-09
-1.08607e-07
5.53033e-08
5.14277e-08
1.87565e-09
-1.10123e-07
3.0225e-08
1.49932e-07
-4.11578e-11
1.40344e-07
-7.087e-10
-1.39594e-07
7.45814e-09
1.2385e-07
-2.63725e-08
-1.04935e-07
1.48612e-07
-1.69443e-07
8.79023e-08
-6.70713e-08
4.7138e-08
1.18755e-07
-5.82525e-08
-6.8408e-09
8.54046e-08
9.80144e-08
-1.72273e-07
-1.39003e-08
-6.82506e-09
1.13038e-07
-1.3632e-07
1.19927e-07
3.09243e-10
-1.20284e-07
4.78667e-11
7.47259e-09
1.03775e-07
-3.86492e-09
8.20914e-08
-2.04021e-07
3.23251e-08
-1.36617e-07
2.21247e-09
-7.71043e-08
-6.56776e-08
1.35871e-07
6.91079e-09
-1.10062e-07
-5.0751e-08
3.38256e-08
1.26987e-07
-1.2303e-07
-6.38999e-10
-6.92581e-10
-7.20753e-08
1.52305e-07
-8.6216e-08
5.98619e-09
7.72713e-08
-1.53269e-07
7.97371e-08
-3.73955e-09
-1.16278e-07
-2.22662e-10
1.05937e-07
-1.08755e-07
4.76023e-09
-1.94228e-09
1.56118e-07
-8.74499e-08
8.60274e-09
-1.18693e-07
2.00385e-08
-2.01062e-08
6.1164e-08
-1.01179e-07
-2.28468e-08
1.29409e-07
-1.28546e-07
-1.84584e-10
7.02292e-08
6.29512e-08
-6.28124e-08
-7.0368e-08
8.24318e-08
1.5362e-07
-1.65839e-07
8.15886e-08
6.95111e-08
-1.4577e-07
-5.32981e-09
-1.19618e-07
6.31399e-08
4.90517e-08
7.42666e-09
2.24858e-10
1.29709e-07
2.99248e-10
8.21356e-08
7.66794e-08
-1.53307e-07
-5.50762e-09
1.09488e-07
1.20367e-07
-9.84926e-09
-1.06826e-07
-3.6919e-09
9.86047e-08
6.98244e-11
1.52141e-07
-1.53662e-07
-8.42021e-08
8.57232e-08
5.15272e-08
6.15047e-08
7.33486e-09
-6.24531e-09
-2.31765e-07
1.93557e-08
1.45433e-07
-3.64029e-09
6.32803e-09
1.57386e-07
1.35354e-07
-2.29503e-07
-1.26922e-07
1.07457e-09
-1.54114e-09
1.27388e-07
6.94173e-10
1.02451e-07
-1.03015e-07
-1.30208e-10
-8.20348e-08
1.86734e-07
-1.8328e-07
5.35943e-08
1.27083e-07
-6.68722e-08
-1.13805e-07
4.73861e-08
6.03203e-08
-1.15243e-07
7.53659e-09
1.53761e-07
-1.17979e-08
2.14709e-08
-1.3761e-07
-5.59613e-09
4.79509e-08
-1.45581e-07
-1.91512e-08
-9.79687e-08
-1.15045e-07
1.08504e-07
2.07886e-08
-5.16466e-09
-2.10436e-08
9.95513e-08
2.99967e-08
4.64425e-08
-8.05536e-08
-3.35414e-09
1.29097e-07
3.77346e-09
1.35683e-10
4.24828e-10
-2.17261e-07
-1.55603e-08
-4.60896e-10
1.1871e-07
1.50937e-08
-1.25843e-07
-1.48279e-08
2.82275e-07
-1.24284e-07
-1.43162e-07
-1.73785e-07
1.416e-07
1.18399e-07
-1.49811e-07
-7.04457e-08
7.62238e-08
-7.80898e-08
7.23118e-08
1.22126e-07
-1.26539e-07
-3.92982e-09
8.34346e-09
-4.05178e-09
-6.56044e-08
8.19682e-08
-1.90149e-07
-8.27668e-08
6.69935e-08
-2.7735e-08
-1.21811e-07
2.72303e-07
-4.27175e-08
-1.01307e-07
-1.3785e-08
-7.91581e-08
1.594e-07
2.18973e-09
-3.41559e-08
-7.33941e-08
9.19955e-08
1.55545e-08
4.0992e-08
-1.83969e-07
8.34099e-08
5.95668e-08
-1.09831e-07
1.09557e-07
-9.57991e-11
3.69842e-10
9.45895e-08
-1.81783e-10
1.43149e-08
1.28893e-07
1.16212e-07
-7.55707e-09
-8.60445e-08
-1.54989e-07
1.84858e-08
8.26505e-10
1.37306e-07
-1.00132e-07
1.49098e-07
-4.63955e-08
-5.99128e-09
3.12972e-09
1.291e-07
-3.13241e-09
1.07864e-07
4.02955e-08
-1.57371e-07
-3.06314e-08
-1.28583e-07
-1.11548e-07
-8.70986e-08
4.50306e-08
-1.14186e-08
1.11619e-07
-8.77719e-09
-9.70641e-08
-1.11632e-07
-3.14532e-09
9.74846e-08
-1.25353e-07
1.0143e-07
-6.65746e-10
-1.00164e-07
-6.00646e-10
-2.64545e-08
-1.51783e-07
-1.81657e-07
1.81361e-07
1.15973e-07
-4.85255e-08
1.11309e-08
-7.85784e-08
1.16e-07
-6.25836e-10
-1.15278e-07
-9.6149e-11
9.4233e-10
1.0497e-07
-1.06193e-07
2.80808e-10
2.97223e-08
1.22707e-07
-3.75106e-08
-7.97012e-08
-8.41253e-08
1.05576e-08
7.89592e-09
1.12074e-07
-1.15968e-07
-4.00153e-09
-1.27847e-07
1.38004e-07
-2.26135e-09
-1.36469e-07
-3.72172e-09
-1.52252e-07
1.54199e-07
-5.69765e-08
-8.71356e-08
1.50284e-07
-6.17196e-09
1.10113e-07
-1.49487e-08
6.87303e-10
-5.75144e-11
4.78453e-08
1.20325e-08
-8.24425e-10
-3.36941e-10
7.68563e-08
8.40365e-08
-5.88956e-09
-3.44673e-08
1.01975e-07
8.03722e-08
-2.87335e-07
-1.50967e-07
2.85993e-07
1.50956e-07
1.36449e-07
-5.72826e-08
-8.75027e-08
6.2355e-09
-6.77768e-10
-1.27018e-07
-3.6107e-10
5.54606e-08
6.40907e-08
-1.18479e-07
-1.07284e-09
-1.16818e-07
1.16652e-07
1.21257e-10
4.48847e-11
1.07252e-07
3.29078e-08
-1.40437e-08
1.52793e-09
1.9743e-07
-4.52729e-09
-5.39984e-08
-8.22135e-08
-3.59277e-09
-8.75552e-08
-2.35688e-08
6.99852e-10
1.09294e-07
-1.0921e-07
7.94019e-08
-1.9473e-07
1.08933e-07
-1.0867e-09
-5.93841e-10
7.10193e-08
6.61531e-08
-1.33231e-07
-3.94127e-09
-1.63972e-07
8.19023e-08
-2.31326e-08
-2.72477e-08
-3.74406e-08
1.29116e-07
-6.4428e-08
-2.99379e-08
7.2025e-08
3.12045e-08
-1.4223e-07
-9.0533e-08
9.5495e-08
1.37268e-07
7.75786e-08
-5.85207e-09
6.57856e-08
1.30578e-07
-5.37717e-08
-1.42592e-07
-3.7817e-09
1.18245e-07
1.51036e-08
-1.29567e-07
1.12679e-07
-9.57506e-08
-2.09563e-08
4.02754e-09
1.4365e-07
-1.93495e-07
1.7878e-07
1.43166e-07
-6.94675e-08
-6.68288e-08
-6.86998e-09
4.27588e-08
-1.71127e-07
-1.22312e-07
-1.22487e-07
2.6844e-11
-1.89787e-07
1.59919e-07
-1.6567e-07
1.95538e-07
8.24833e-08
-1.58464e-07
-2.63787e-08
1.20847e-07
-1.19806e-07
-4.71652e-10
-5.6926e-10
6.09187e-08
-1.21241e-07
-5.28162e-09
-6.66336e-09
8.09745e-08
-1.76956e-07
7.96606e-08
-1.37205e-07
-5.78247e-11
2.40839e-10
1.37022e-07
-1.32336e-07
1.40346e-07
-1.42285e-07
-8.70572e-08
-2.79227e-08
-7.22145e-09
6.00909e-08
7.00396e-08
-6.00551e-09
-5.32159e-08
-6.05796e-08
-5.82277e-09
-3.71307e-09
-1.04724e-07
-1.01814e-07
-1.05283e-09
-5.73974e-09
7.01832e-08
-6.98078e-08
6.93375e-10
-1.06875e-09
1.08069e-07
-1.05932e-07
-1.39259e-09
-7.44075e-10
-1.09379e-09
1.28433e-07
-1.27236e-07
-1.03075e-10
-1.33415e-07
1.43241e-08
1.13369e-07
5.72181e-09
1.2823e-07
-1.21838e-07
-4.43889e-09
-1.95321e-09
-1.08405e-07
-1.1711e-09
1.1024e-07
-6.64336e-10
-1.04709e-07
-6.3933e-08
9.76241e-08
3.42778e-08
-9.53004e-09
-1.22372e-07
7.63692e-08
-8.11036e-08
3.88546e-09
8.48983e-10
4.55204e-08
3.75338e-08
-1.28711e-07
1.10303e-07
-1.07317e-07
-7.39295e-09
4.40722e-09
-5.12213e-08
5.16418e-08
1.53689e-07
5.51747e-09
1.29487e-07
-9.6771e-08
1.21683e-08
-2.77697e-08
-1.18493e-08
-1.02611e-07
-3.1228e-08
1.98415e-07
6.0923e-09
-1.73113e-07
1.31108e-07
-3.37223e-08
-1.95546e-08
2.11469e-08
-8.06482e-08
5.99815e-09
-1.26151e-07
1.25951e-07
5.87266e-08
-7.07824e-08
-3.0337e-08
7.78381e-08
2.15863e-09
6.21743e-08
5.62143e-08
-7.68105e-08
-8.35461e-08
1.1533e-07
-1.27445e-08
-7.09038e-08
5.90117e-09
9.48413e-08
1.14064e-08
2.25945e-08
2.48831e-08
-1.06439e-08
5.17776e-08
6.00426e-08
6.93511e-09
-4.95877e-08
1.62246e-07
-1.68257e-07
-1.76136e-07
8.74461e-08
2.22651e-07
-1.49903e-07
1.06992e-07
-3.25141e-08
6.14095e-08
-1.35887e-07
-1.24288e-07
-4.28212e-08
-1.45522e-07
-5.71133e-09
-1.02302e-07
8.0758e-08
-8.89464e-08
1.1049e-07
8.51617e-09
-1.20473e-07
-1.42202e-07
-7.58636e-09
-3.87356e-09
-1.28351e-07
1.16205e-07
1.24825e-07
1.96884e-08
1.03481e-07
2.10528e-09
-1.33712e-07
1.2357e-07
-8.61049e-08
9.62473e-08
-1.02183e-07
1.33293e-08
-2.06062e-08
-3.48286e-08
5.1071e-09
8.78628e-08
-4.74713e-08
-1.12732e-07
-4.38003e-08
1.23525e-08
-7.13131e-08
-8.56576e-08
7.69161e-09
-7.03848e-08
8.08632e-08
8.07655e-08
2.36269e-08
4.27589e-08
-1.47151e-07
5.42997e-08
2.84409e-08
-7.45372e-08
-1.47166e-09
-8.05343e-08
-9.05513e-08
7.1133e-09
6.27961e-08
-7.30532e-08
-4.82233e-08
5.84804e-08
-4.93584e-08
-9.05384e-09
1.47842e-07
-1.86619e-07
3.9354e-08
-5.77192e-10
-8.30636e-09
2.7472e-08
7.97465e-08
-9.89121e-08
5.33449e-10
-9.44784e-08
-8.85578e-10
9.48306e-08
-1.01364e-07
1.00932e-07
2.03481e-10
2.28814e-10
1.31012e-07
-7.19187e-08
-1.3275e-07
-6.14139e-08
-3.83748e-08
1.01489e-07
-1.70039e-09
1.54602e-07
1.17313e-08
-1.17032e-07
5.96433e-09
-1.40546e-07
1.66589e-08
-5.67278e-10
-1.40586e-07
-1.14752e-07
1.15019e-07
-3.24581e-10
1.04499e-07
5.29185e-08
-1.4268e-07
-1.28739e-08
-1.47525e-08
2.25867e-07
-8.44052e-10
-8.23855e-08
-1.13298e-09
9.80759e-08
-9.71409e-08
9.84777e-11
-2.35326e-09
1.1822e-08
2.65138e-08
1.22871e-07
-2.54329e-08
1.16663e-07
-9.002e-09
-3.27231e-09
1.28298e-07
-1.23597e-07
-1.42866e-09
-1.03908e-07
1.10409e-07
-5.67612e-09
1.22305e-07
5.54203e-09
-3.18517e-08
-9.59958e-08
1.19189e-07
1.71657e-09
-1.18832e-07
-2.07389e-09
-7.10691e-08
-5.4074e-08
7.11447e-08
8.97716e-08
1.51682e-09
1.57497e-07
1.94587e-08
-3.61271e-08
-1.46299e-08
3.72904e-09
-7.82729e-08
1.22859e-07
-1.72925e-07