/*--------------------------------*- C++ -*----------------------------------*\
| =========                 |                                                 |
| \\      /  F ield         | OpenFOAM: The Open Source CFD Toolbox           |
|  \\    /   O peration     | Version:  2212                                  |
|   \\  /    A nd           | Website:  www.openfoam.com                      |
|    \\/     M anipulation  |                                                 |
\*---------------------------------------------------------------------------*/
FoamFile
{
    version     2.0;
    format      ascii;
    arch        "LSB;label=32;scalar=64";
    class       volVectorField;
    location    "0.038";
    object      U;
}
// * * * * * * * * * * * * * * * * * * * * * * * * * * * * * * * * * * * * * //

dimensions      [0 1 -1 0 0 0 0];

internalField   nonuniform List<vector> 
31639
(
(0.121317 0.000637851 -0.000554721)
(0.118491 -0.000401576 -1.27454e-05)
(0.120291 -0.000263068 0.000829477)
(0.123401 3.17452e-05 -0.000215531)
(0.119966 -0.000747307 -0.000311754)
(0.11914 -5.78981e-05 -4.1527e-05)
(0.118142 1.56727e-05 -0.000297143)
(0.120816 -7.96049e-05 -5.97155e-05)
(0.120663 0.00017545 -0.000239155)
(0.121731 -0.000408704 -0.000503283)
(0.122345 0.000469432 -0.000101342)
(0.121487 -0.000559037 -0.000770285)
(0.119162 -0.000403821 1.63317e-06)
(0.121579 6.95575e-06 0.000147822)
(0.117692 -0.000365382 4.91478e-05)
(0.118493 -0.00040593 0.000744679)
(0.120175 0.000341424 0.000164514)
(0.11771 4.47587e-05 0.000402263)
(0.118758 6.7683e-05 -0.000400468)
(0.119808 -9.6545e-05 -0.000139666)
(0.113656 -0.000243671 -0.000417637)
(0.122287 -0.000305116 -0.000585142)
(0.122004 0.000695458 -0.000202795)
(0.118718 0.000155873 -0.000245868)
(0.117297 -0.000147156 -0.000114107)
(0.120437 -0.000178903 7.88966e-05)
(0.119702 1.71743e-05 -0.00012241)
(0.122028 0.00082567 -8.672e-05)
(0.118117 0.000408374 0.000630325)
(0.121817 -5.84056e-05 0.000538164)
(0.122284 -0.000152753 -0.000100314)
(0.117653 -6.9321e-05 -0.000163889)
(0.122141 0.000319555 -0.000498345)
(0.118618 -0.000175438 -7.8631e-05)
(0.115188 7.36913e-05 0.000189429)
(0.122299 0.000446351 6.01203e-05)
(0.112554 -0.000325993 -8.26217e-05)
(0.123058 -0.000500179 0.000319511)
(0.121993 -0.00036614 0.000273351)
(0.11249 4.51276e-05 -0.000100749)
(0.116129 -6.87077e-05 -0.000342081)
(0.114716 -0.000431915 0.000100633)
(0.121298 0.000124861 -5.59574e-05)
(0.122723 -0.000779095 -0.000863052)
(0.121452 -0.000620434 0.000720547)
(0.12279 -0.000815537 -0.000402751)
(0.116664 0.000278181 -0.000290514)
(0.119636 0.000459048 -0.000374568)
(0.119781 -8.2276e-05 0.00019998)
(0.122939 -0.000415477 -0.000272242)
(0.12246 -0.000191676 -0.000485546)
(0.114044 0.000156957 -0.0002319)
(0.121959 0.000568887 0.000221841)
(0.113205 -0.000250421 0.000360996)
(0.120054 -0.000370041 -0.000174824)
(0.119693 0.00014926 0.000104221)
(0.114515 -6.83339e-05 -0.000648646)
(0.1197 7.60858e-05 0.000322505)
(0.119251 0.000101848 0.000360661)
(0.115176 0.00022659 -0.000179769)
(0.121076 -0.000182068 -0.000461855)
(0.121589 0.000350346 -0.000164859)
(0.117695 -0.000223764 -0.000348133)
(0.119285 -2.59347e-05 -0.000177716)
(0.12059 0.000398092 0.000157169)
(0.122984 -0.000248609 -0.000521704)
(0.120522 0.000121868 -0.000980649)
(0.119487 -0.000305706 0.000113727)
(0.116169 -9.9459e-06 -0.000386917)
(0.122963 0.00030855 -0.000191981)
(0.121097 0.000123908 -0.000157218)
(0.116341 0.00023078 -0.00117941)
(0.121431 -0.000400152 -0.000806402)
(0.119898 -0.000172533 -0.000198168)
(0.12093 0.000550206 3.09764e-05)
(0.113515 0.000293801 -0.000641873)
(0.122397 -0.00065182 0.000248454)
(0.119078 0.000242277 -0.000625498)
(0.118591 -0.000196921 0.000357295)
(0.12122 0.000272878 -4.75741e-05)
(0.117682 3.97371e-06 0.000117018)
(0.11112 -0.000211342 4.34418e-05)
(0.122424 -0.000330206 0.000149615)
(0.120161 -0.000241695 -0.000250217)
(0.120178 -7.21322e-05 -0.00013296)
(0.122317 -0.00038334 -0.00026796)
(0.123028 -2.04867e-06 0.000133131)
(0.122599 -0.000198712 -0.000436673)
(0.114367 0.000887851 -0.00142657)
(0.121728 -0.000283282 -0.000469926)
(0.120297 -0.000342749 0.000266975)
(0.11886 -0.000460329 -0.000114993)
(0.115391 -0.000505649 -0.000394656)
(0.117736 0.000527775 -0.000790972)
(0.11775 -0.000779602 -0.000378026)
(0.118426 0.000930615 0.000366373)
(0.120107 0.000203553 -0.000456557)
(0.119822 -0.00016604 0.000143925)
(0.119224 0.000168521 0.000251548)
(0.114557 -0.000986872 -8.03508e-05)
(0.120883 0.000174385 -7.37623e-05)
(0.120727 0.000306461 0.000727947)
(0.117957 -0.000280625 -0.000171145)
(0.113809 7.50601e-05 -0.000178722)
(0.115042 -5.75362e-05 -0.000354379)
(0.122847 -0.000594216 -0.000278753)
(0.113285 0.000360871 -0.000424502)
(0.114366 -0.00084611 -0.000846509)
(0.116695 0.000417381 -1.2801e-05)
(0.112841 -0.000234155 0.000625598)
(0.120884 -0.0011709 0.000284474)
(0.115477 -8.23653e-05 -0.000266819)
(0.119171 2.19361e-05 -0.000227386)
(0.11877 -0.000651106 -0.000652109)
(0.11953 0.000164039 -0.000779697)
(0.113558 -0.000509464 0.000267286)
(0.118804 0.000577079 3.16008e-05)
(0.11828 -0.000684307 -0.000146105)
(0.120771 8.51336e-05 4.06412e-05)
(0.119052 -0.000330471 7.6867e-05)
(0.120494 -0.000422542 -0.000115774)
(0.121414 -0.000495372 0.000358348)
(0.12208 2.909e-05 -0.000608366)
(0.12104 0.000323449 -0.000714448)
(0.120865 -0.000184921 -0.000818807)
(0.121743 -0.000363497 0.000128939)
(0.11896 -3.0352e-05 0.000327609)
(0.117704 0.000162681 -0.000270248)
(0.117447 -0.000592314 -0.000314027)
(0.121663 -0.000249713 0.00014521)
(0.121258 0.000112771 -0.000253785)
(0.121919 0.000174022 -0.000474235)
(0.121142 -0.000518987 -1.02372e-05)
(0.119892 -0.000171105 7.83335e-05)
(0.122051 -0.000141143 -0.000139258)
(0.119862 -0.000107027 1.11286e-05)
(0.115258 -0.000151748 -0.000317559)
(0.114359 -0.000701495 -0.000423966)
(0.122173 0.000387966 0.000571095)
(0.11942 -0.000443725 -0.000452962)
(0.119109 -0.000177386 -0.000396442)
(0.122696 0.000271704 0.0010397)
(0.121828 0.00046532 0.000273947)
(0.11381 -0.00034245 -0.00047303)
(0.114189 -0.00010943 -0.000665904)
(0.121555 -0.000215321 4.61921e-06)
(0.121332 -0.000150689 -0.000284164)
(0.114848 -0.000248914 -0.000443102)
(0.1154 -9.99403e-05 0.000145921)
(0.121919 -0.000415941 6.14603e-05)
(0.117384 -0.000113997 -0.00114882)
(0.118881 -2.41091e-06 0.000227634)
(0.119435 -0.000353084 -0.000826939)
(0.121711 -0.000161051 5.5895e-05)
(0.115664 0.000630715 -0.00118642)
(0.123378 1.50864e-07 3.64062e-05)
(0.120929 -0.000279987 -0.0002568)
(0.116175 -0.00122944 -0.0001808)
(0.114713 -0.000736483 0.000941586)
(0.118471 -0.000386289 -0.000199678)
(0.122727 -0.000150923 -0.000454484)
(0.113666 0.000228914 0.000126699)
(0.115425 0.000130832 -0.0010998)
(0.114476 -0.000405462 0.000147358)
(0.113803 -0.00116775 9.694e-05)
(0.11782 0.000212077 -0.000237498)
(0.114574 0.000382449 0.000128024)
(0.122308 -0.000677389 0.000216553)
(0.122335 -0.000456477 0.000244165)
(0.114606 0.00022637 -0.000746)
(0.115371 -0.000719377 0.000417864)
(0.118701 0.000651025 -0.000606105)
(0.11506 -8.84105e-05 -5.65752e-05)
(0.119882 -8.35147e-05 0.000480936)
(0.122913 -0.000254979 -0.000259121)
(0.121106 -0.000621498 -0.00044324)
(0.119564 0.00062181 0.000233165)
(0.121652 0.000293354 0.000427122)
(0.120135 -0.000478811 -7.52174e-05)
(0.11848 -0.000373756 -0.000173002)
(0.118776 0.000140369 -8.26886e-05)
(0.118696 -0.000585204 0.000724313)
(0.117942 2.90712e-05 0.000214231)
(0.11276 0.00105115 -0.000582104)
(0.120289 -0.000114822 0.000107368)
(0.122451 0.00026287 -0.000261277)
(0.118104 6.49776e-05 0.000583263)
(0.121966 0.0002391 -7.22115e-05)
(0.115305 -0.000243058 7.70407e-05)
(0.113285 -0.000170235 0.000378497)
(0.122891 -0.000250246 -7.78173e-05)
(0.1217 -0.00024445 -0.000294202)
(0.119733 -0.000323917 0.000535006)
(0.119011 -0.000111624 0.000261703)
(0.119474 -0.000124512 -0.000387944)
(0.119669 -0.000143141 -0.000665026)
(0.119396 0.00056135 0.000434621)
(0.121511 0.000364134 -0.000472336)
(0.115104 -0.000139881 -0.000299866)
(0.118456 0.000148057 -0.000200456)
(0.122631 5.62193e-05 0.000176681)
(0.121522 -0.000306743 1.02096e-06)
(0.120631 -0.000360125 0.000131889)
(0.119448 -0.00147884 -0.00056519)
(0.119823 -0.000586407 -0.000458957)
(0.118336 1.02308e-05 -0.000372455)
(0.11933 -0.000200748 -0.000459508)
(0.117984 0.000572974 -0.000567482)
(0.121644 6.97941e-05 -0.000498352)
(0.113689 -0.000178233 -1.73457e-05)
(0.119413 -6.83155e-05 -0.000127706)
(0.118925 0.000465852 -9.06035e-06)
(0.120111 4.11374e-05 -0.000449686)
(0.121994 -9.90637e-05 -0.000502755)
(0.121393 -0.000509228 -0.000401422)
(0.122296 -0.000145463 -0.000295514)
(0.11522 -0.00108031 -0.000384707)
(0.117523 -0.000556118 0.000476439)
(0.121568 -0.000369619 -0.000263336)
(0.122346 -0.000172838 0.000255956)
(0.1213 4.91379e-05 0.000279463)
(0.119592 -0.000398997 -0.000527331)
(0.112124 -0.000249308 0.000637487)
(0.119284 -0.000580696 0.000497813)
(0.114535 -0.000573837 -0.000311546)
(0.117705 0.000402596 6.3765e-05)
(0.121627 -0.000456349 0.000530644)
(0.117645 0.00015703 0.000435439)
(0.113946 0.000405996 -0.00026221)
(0.1199 0.000156563 0.000242833)
(0.120983 0.00043452 -0.000226115)
(0.122597 -0.000368964 -5.98705e-05)
(0.114345 -0.000303156 -2.41721e-05)
(0.113534 -0.000723603 0.000218043)
(0.120325 -0.000361769 0.000333486)
(0.121872 3.4967e-05 -0.000641579)
(0.114788 3.93491e-05 0.000463652)
(0.121936 -0.000745148 0.000272964)
(0.117171 3.66919e-05 -0.000475965)
(0.11531 -0.000437414 0.000165641)
(0.118837 0.000227546 -0.00036438)
(0.120733 -0.000305812 3.88827e-05)
(0.117958 -0.00101806 -6.21701e-05)
(0.116962 0.0002225 0.000914584)
(0.118 0.000306665 0.000355735)
(0.119724 -0.000176357 -0.000129229)
(0.118298 0.000517948 -0.000479942)
(0.117194 0.000466704 -0.000996809)
(0.113781 -0.000478994 0.000511814)
(0.118451 0.00032801 -0.000583423)
(0.118834 0.000140833 -0.000693615)
(0.116261 -0.00014957 -2.3356e-05)
(0.117822 -0.00110504 0.000299275)
(0.122011 9.81332e-05 -0.000169827)
(0.122291 0.000611372 0.000126368)
(0.11974 0.00049412 -0.000102909)
(0.115199 0.000150138 -4.40846e-05)
(0.121849 0.000269963 -0.000188336)
(0.121295 0.000361308 -0.000524845)
(0.119501 -0.000414729 -0.000336446)
(0.123087 0.000136069 0.000812417)
(0.122643 0.000109756 -0.000390093)
(0.120878 0.000222548 -0.000444588)
(0.122457 -2.68479e-05 9.225e-05)
(0.117992 0.000434979 0.000140815)
(0.119478 -0.000291433 -0.000660342)
(0.113763 0.000318163 -0.00156672)
(0.117739 -6.79284e-05 -0.000187995)
(0.121701 -0.000937003 0.000267052)
(0.117859 5.04346e-05 0.000357849)
(0.121658 0.000330741 -0.000121032)
(0.119019 0.000480039 -0.000697937)
(0.120066 -0.000201099 6.24927e-05)
(0.120895 0.000215537 0.000379523)
(0.122758 -4.0177e-05 -0.000691495)
(0.119931 0.000628535 0.000169725)
(0.11458 0.000261595 -6.76108e-06)
(0.118743 0.000163878 0.000184697)
(0.11595 0.00157057 -0.000367899)
(0.1223 -0.000270406 -0.000938278)
(0.118881 -0.000598154 -0.000321376)
(0.121702 5.45238e-05 -0.00043257)
(0.12008 0.000147809 -0.000207148)
(0.117894 -0.000134424 -0.000473495)
(0.113801 -4.54035e-05 6.45501e-06)
(0.115723 0.000110046 -0.000576563)
(0.115061 0.000296455 0.000251992)
(0.113582 -0.000332128 0.000115843)
(0.122611 -0.000379503 -0.000416287)
(0.114216 -0.000461653 -0.000575375)
(0.120531 -0.000423533 0.000215134)
(0.119858 0.00055871 -0.000287069)
(0.118817 3.98936e-05 -0.000232352)
(0.115455 -0.000193402 -0.000239347)
(0.122252 -0.000792143 -3.04062e-06)
(0.119061 9.65501e-05 -0.000742051)
(0.117007 0.000109735 0.000646088)
(0.121988 0.000176065 -0.000456902)
(0.120517 -0.000138339 -8.21575e-05)
(0.115822 0.000475984 0.000443637)
(0.118074 0.000127646 -6.59262e-05)
(0.114974 0.000200398 -5.21203e-05)
(0.119705 0.000305368 -0.000339108)
(0.118503 0.000314208 -0.000173361)
(0.115392 0.000412875 0.000873163)
(0.119457 -6.89027e-05 -0.000216736)
(0.118203 0.00105894 0.00046218)
(0.112715 0.000115087 -0.00118759)
(0.112687 0.000346726 0.000274737)
(0.121106 -0.000528873 0.000222068)
(0.122259 0.000141856 -5.34853e-05)
(0.122792 0.000223345 -0.000138341)
(0.114114 0.000285682 0.000169309)
(0.115669 -3.58336e-05 0.000462121)
(0.12148 0.000247785 0.000342515)
(0.116888 -0.000229683 -0.000262912)
(0.116752 0.000638228 -0.000822318)
(0.121427 0.000321669 0.000343086)
(0.122015 -0.000510183 -8.11821e-05)
(0.118604 -0.000785798 0.00012335)
(0.121837 -0.000934253 -0.000293737)
(0.122864 6.1946e-05 -0.000234497)
(0.114814 -0.000166613 -0.000246422)
(0.122813 -0.00104337 -0.000344426)
(0.112704 0.000268646 -0.000184318)
(0.113841 -5.23569e-05 -6.13835e-05)
(0.122316 -0.000441512 -0.000258843)
(0.121562 -0.000527013 -0.0001343)
(0.122612 0.000126691 -0.000706971)
(0.122832 0.000458533 -0.00100441)
(0.121585 -0.000143195 -0.000765332)
(0.115952 0.00116782 -0.000583589)
(0.117527 -0.000959532 0.000706585)
(0.118639 -5.39071e-05 -0.000242425)
(0.120835 -0.000941327 0.000104363)
(0.12235 0.000919642 0.000794711)
(0.122733 -0.000760604 0.000296876)
(0.119094 0.000174504 -0.000254635)
(0.117059 -0.000992028 0.000492951)
(0.118948 -8.86311e-05 -7.21737e-05)
(0.121849 -5.12834e-05 -0.000174132)
(0.121313 -5.38161e-05 -0.000976185)
(0.117857 0.000111843 -0.000245874)
(0.120322 -0.000246045 -5.62534e-05)
(0.11863 0.000615996 -0.000587009)
(0.118627 -0.000377743 -0.000350214)
(0.120903 -0.00034364 0.000224794)
(0.117402 -0.000991096 0.000872614)
(0.114926 -0.000168938 2.12283e-06)
(0.119685 0.000767094 -0.000615828)
(0.121006 6.16851e-05 0.000194892)
(0.118211 0.000148916 -0.00018196)
(0.120957 0.000388023 0.000293416)
(0.121797 -0.000584232 0.000255995)
(0.119657 0.00014286 -0.000375031)
(0.115779 0.000261789 -0.000477688)
(0.11891 0.000420004 -0.000412683)
(0.118069 0.000416676 0.000418997)
(0.113861 0.0002527 -0.000467797)
(0.121492 -0.000877644 0.000227422)
(0.113777 0.000524632 0.000448865)
(0.120796 -9.00871e-05 -0.000494169)
(0.122494 -0.00084354 -0.000210561)
(0.114643 -0.000307968 0.000177643)
(0.119542 0.000309323 2.48121e-05)
(0.11828 0.000385526 0.000443962)
(0.114326 -0.000233902 6.76218e-05)
(0.120461 -0.000155016 -0.000157591)
(0.115763 3.05562e-05 -0.000157043)
(0.118993 -5.83832e-05 0.000639217)
(0.122047 0.00045102 9.88411e-05)
(0.120628 0.000129314 0.000175067)
(0.113545 0.000331191 -6.32891e-05)
(0.120943 0.000252199 2.14287e-05)
(0.115601 0.000135716 -0.000387283)
(0.120906 -0.000109141 -1.96218e-05)
(0.121044 0.000297144 9.93004e-05)
(0.121464 -0.000250776 -0.000514698)
(0.122134 -0.000231045 -0.000478564)
(0.114574 -8.36322e-05 -0.000586448)
(0.121085 -0.00093313 0.000146703)
(0.113899 2.34044e-05 -0.000526848)
(0.118404 3.1558e-05 -0.000440135)
(0.114716 0.000107391 -0.000348301)
(0.123067 3.31298e-06 -0.000461103)
(0.122077 0.000116349 -0.000468342)
(0.122842 -2.53095e-05 2.56204e-05)
(0.122363 -0.000362771 -0.000529106)
(0.119932 -5.42063e-05 -0.000515092)
(0.121429 -9.2367e-05 0.000230826)
(0.118754 0.000256402 -5.31152e-05)
(0.119982 0.000196238 -0.000267342)
(0.11927 0.000115355 -0.000370896)
(0.115567 8.09712e-05 9.68428e-05)
(0.121229 -5.00249e-05 -0.00039688)
(0.119591 -0.000338216 -0.000123583)
(0.119778 -0.00024392 -0.000264551)
(0.121752 0.000101843 0.000111493)
(0.121361 -2.46779e-05 -0.000527697)
(0.121655 5.1216e-05 0.000190246)
(0.11884 -0.000688749 0.000134594)
(0.113917 -0.000123487 0.000697716)
(0.11866 0.000252799 0.000223716)
(0.121004 0.000136636 0.000329606)
(0.120361 -0.000291635 0.000116793)
(0.11465 -0.000575727 -0.000465543)
(0.122165 7.13102e-05 -0.000338758)
(0.121914 -0.000140064 -0.000788353)
(0.117808 0.000249538 -0.0004743)
(0.120932 -0.000342948 -0.000511547)
(0.121354 -0.00025286 -0.00108835)
(0.120965 -0.000322395 -0.000622061)
(0.121211 -0.000346865 -9.09456e-05)
(0.114229 -0.000190441 -0.000110017)
(0.12047 -0.000374539 8.55401e-05)
(0.121051 -0.000462664 0.000267779)
(0.112598 0.000144666 -4.75505e-05)
(0.120081 -0.000768542 1.50016e-05)
(0.120518 -0.000301667 -0.000202333)
(0.116971 0.000146396 0.00022774)
(0.113582 -0.000138329 0.000117461)
(0.113504 -0.00025582 0.000648147)
(0.118462 -0.000876291 0.000175494)
(0.113138 0.000437965 -0.000384993)
(0.118916 1.14308e-05 0.000194021)
(0.119834 -0.000116434 -1.24346e-05)
(0.117267 0.00056399 0.000301198)
(0.121018 0.000548627 2.15613e-05)
(0.114503 -0.000166398 0.000182943)
(0.120699 0.000390658 8.28345e-05)
(0.123 0.000228165 1.34451e-05)
(0.118895 -0.000166046 0.000102829)
(0.120788 -0.000110086 0.000562326)
(0.118612 4.28613e-05 1.69435e-05)
(0.122243 0.000824496 -0.000122914)
(0.120101 0.000435417 -3.46022e-06)
(0.120089 -0.000163589 -0.000593196)
(0.123105 3.96758e-05 -0.000448499)
(0.119463 7.36069e-05 -0.000374011)
(0.114542 4.95035e-05 0.000198022)
(0.119053 -2.27775e-06 -0.000189851)
(0.122689 0.000268498 -0.00103011)
(0.121872 0.000290062 -0.000638342)
(0.121163 -0.000118316 0.000596773)
(0.122084 0.000113204 -1.13493e-05)
(0.119225 -0.000669998 0.000512138)
(0.121278 -0.000234602 0.000171645)
(0.120307 0.000119622 0.000288432)
(0.121494 0.000171948 -0.000225409)
(0.121882 -0.000498685 -0.00038614)
(0.113422 -0.000464423 -0.00026523)
(0.118621 -0.000361189 0.000211032)
(0.112289 -0.000217383 0.000178876)
(0.118557 0.000420271 0.000685499)
(0.11787 -7.65219e-05 -0.000622198)
(0.114473 -0.000390315 0.000650148)
(0.113528 -0.000467893 -0.000386181)
(0.119398 0.000344632 -0.000250533)
(0.120474 -0.000379272 -0.000145198)
(0.121889 2.35151e-05 -0.000611008)
(0.114785 -0.000117042 0.000528185)
(0.120789 -0.000192188 9.39078e-05)
(0.118899 -7.59971e-05 0.000192874)
(0.119167 -0.000167839 -0.000483904)
(0.120388 3.72607e-05 -0.000574178)
(0.1139 0.000390237 0.00201268)
(0.119169 -4.94036e-05 -0.000528295)
(0.114204 0.000118602 0.000351917)
(0.117672 -0.000386756 -0.000379086)
(0.121287 -0.000202498 5.83471e-06)
(0.123324 0.0012742 0.000399359)
(0.121705 0.000212313 -0.00096094)
(0.119988 0.000595386 -0.000657882)
(0.113113 0.000194678 0.00108911)
(0.120845 -0.000219307 0.000107525)
(0.12031 -3.65374e-05 -0.000421015)
(0.121505 -0.000215791 -0.000383199)
(0.113648 3.2276e-05 -1.77823e-06)
(0.115926 -0.000149405 0.000420305)
(0.118228 0.000431996 0.000519021)
(0.115725 0.000406021 -0.000266637)
(0.112973 -0.000527877 -0.000122003)
(0.121323 -3.96659e-05 -0.000360904)
(0.115407 -7.0327e-05 1.52706e-05)
(0.117856 0.000807734 0.000210102)
(0.114478 -0.000474416 -0.000897498)
(0.120959 0.000300817 6.08244e-05)
(0.115069 7.14453e-05 -0.000264281)
(0.122301 -0.000121243 0.000535826)
(0.121164 0.000173828 -0.000403095)
(0.122447 -0.000101215 0.00050707)
(0.12257 -0.000103762 -0.000405385)
(0.115139 5.30648e-06 0.000200329)
(0.121704 0.000131402 0.000233802)
(0.122698 -0.00015828 -0.000144397)
(0.119939 -0.000397053 0.000309088)
(0.120951 0.000536025 -0.000171786)
(0.120258 -0.000445103 -0.000254198)
(0.122182 0.00039698 -9.16946e-05)
(0.121459 6.51416e-05 0.000513279)
(0.117345 7.62354e-05 -0.000424649)
(0.123383 -0.00014787 -0.00010163)
(0.122847 -0.000259517 -8.78137e-05)
(0.119656 -0.000192797 -0.000130364)
(0.118604 -0.000321514 -0.000790117)
(0.12213 -0.000400562 -0.000239485)
(0.119882 0.000263877 -1.28968e-05)
(0.112886 0.000630217 -0.000258239)
(0.112967 0.000397672 -6.37442e-05)
(0.119168 2.39519e-05 0.000144354)
(0.12162 2.44497e-05 0.000134459)
(0.122824 -0.000189365 -0.00021654)
(0.117335 -0.000254377 -8.49597e-05)
(0.121797 0.000432149 0.000245017)
(0.120757 -0.000100155 0.000277752)
(0.122226 0.00100771 0.000853916)
(0.119543 -2.49965e-05 -6.47644e-05)
(0.119213 0.000481252 -0.000375012)
(0.120234 -0.00158562 0.00075845)
(0.114265 -1.91932e-05 -0.000216386)
(0.118689 0.000128949 8.2873e-05)
(0.12028 2.93556e-05 -0.000210181)
(0.122213 3.2323e-05 -4.56476e-05)
(0.115616 -0.000276123 6.91818e-05)
(0.116224 0.000582834 -0.000598809)
(0.117182 -9.25613e-05 -0.000337934)
(0.116936 -0.0003892 -9.48629e-05)
(0.119156 -0.000145752 -0.000531302)
(0.113936 -8.99219e-05 -0.000423708)
(0.12158 0.000277052 -0.000822038)
(0.118075 9.96175e-05 -0.000260295)
(0.12078 8.31017e-05 0.000956835)
(0.118657 -0.000239605 -9.91468e-05)
(0.122807 -0.000236232 -0.000288803)
(0.119633 -0.000159161 -0.000819384)
(0.114018 0.000179945 0.00055837)
(0.12013 0.000828218 0.000103114)
(0.122928 -0.000183589 -0.00092908)
(0.114853 0.0003401 0.00106679)
(0.121757 -9.21451e-05 -0.000730464)
(0.123438 -0.00103096 -0.000528186)
(0.119745 -0.00029094 6.01988e-06)
(0.118395 0.000250183 0.000109054)
(0.122597 -0.000121143 -0.00081681)
(0.117229 -6.12302e-06 -7.06109e-05)
(0.119405 -0.000412903 9.44967e-06)
(0.119154 0.000182244 0.000234484)
(0.114999 -4.23388e-05 3.59827e-05)
(0.115385 -0.000121204 -0.00116758)
(0.118416 0.000218473 0.000390736)
(0.117364 0.000578876 0.00014757)
(0.121368 -0.000102395 -0.000302301)
(0.117012 -0.000384867 0.000306811)
(0.118438 0.000408425 0.000444745)
(0.122504 0.000155044 0.000320794)
(0.118473 0.000206922 -1.45181e-05)
(0.113422 0.000216641 0.000284773)
(0.117262 0.000258483 0.000106499)
(0.119522 0.000401431 -0.00024047)
(0.122784 -0.000186707 0.000220182)
(0.113911 0.000696099 0.000431255)
(0.113815 -9.37385e-05 0.000261979)
(0.122697 0.000275793 0.000868029)
(0.114068 0.00023895 4.97259e-05)
(0.120332 -6.64933e-05 -0.000104649)
(0.121481 0.000197751 -0.00024395)
(0.115443 -0.000158577 -0.0008021)
(0.119578 0.00020458 -0.000236618)
(0.122253 0.000435428 -0.000515572)
(0.119239 1.94118e-05 0.000632339)
(0.11248 3.31499e-05 0.000178543)
(0.122044 0.000179887 -9.07798e-05)
(0.119262 -6.13197e-05 -0.000341111)
(0.113156 0.000507402 -2.38956e-06)
(0.1223 0.000220171 -0.00016546)
(0.118005 -0.000130097 -0.000196846)
(0.118273 0.000470479 -0.000382119)
(0.120918 -0.000158729 -2.58634e-05)
(0.113417 0.000801424 -0.000441016)
(0.118121 -4.41996e-05 -0.000986787)
(0.117709 -0.000540719 3.38409e-05)
(0.11925 5.486e-05 -0.000469504)
(0.115338 -9.97058e-05 0.000421443)
(0.116997 -5.15513e-05 -7.66628e-05)
(0.121188 0.000476249 0.000362723)
(0.123275 -0.000756104 -0.000640428)
(0.123882 -0.00032892 0.000126241)
(0.122645 0.000380585 -0.000253165)
(0.122252 -0.000558959 -0.000201519)
(0.121074 0.00012657 -0.00125591)
(0.116662 -0.000227853 0.000362864)
(0.123344 0.000182061 -0.000958531)
(0.121261 -9.29608e-05 -7.66064e-05)
(0.120693 0.000610181 0.000186618)
(0.115607 0.000851733 -0.000299193)
(0.119876 -0.000167598 -0.000224457)
(0.120469 0.000362323 0.000558785)
(0.12373 0.000885008 4.83383e-05)
(0.114008 -4.633e-05 0.000273141)
(0.112949 -0.000537343 0.000356789)
(0.12218 0.00011011 -0.000593652)
(0.11734 -8.57837e-05 -0.000339397)
(0.122119 7.50439e-05 -2.99266e-05)
(0.117977 4.88998e-05 -0.00040846)
(0.115404 -0.000213401 -0.0007841)
(0.120282 -3.63698e-06 -0.000847387)
(0.122122 0.000359325 -0.000128854)
(0.119657 0.000246747 8.74543e-05)
(0.121445 0.000893087 -0.000292021)
(0.114661 7.72232e-05 -0.00162278)
(0.121604 0.00107356 0.000400564)
(0.121192 -0.000188035 -0.000483101)
(0.11327 0.000336476 -3.27351e-05)
(0.121201 -0.000183305 -0.000503711)
(0.121031 -0.000248863 2.79453e-05)
(0.12042 0.000314358 0.00142873)
(0.114911 -0.000609299 -0.000863532)
(0.113897 0.000270035 -0.000739102)
(0.118646 0.000320549 -0.000315324)
(0.118993 8.38859e-06 0.000909287)
(0.119522 -0.000185076 0.000172082)
(0.118885 0.000490152 0.000170997)
(0.118382 0.000454393 0.000663898)
(0.121875 0.00012092 6.46647e-06)
(0.119751 -0.000155189 0.00018397)
(0.120048 0.000300777 0.000217648)
(0.115588 -0.000278717 0.000643528)
(0.122701 -9.94255e-05 -0.000965965)
(0.11436 -0.000208902 -1.37978e-05)
(0.119431 0.000726339 2.61104e-07)
(0.118785 0.00036412 -6.96977e-05)
(0.118793 -0.000831918 -0.000610051)
(0.120498 0.000450841 5.5618e-05)
(0.117418 -0.00028265 -0.000415725)
(0.114919 -0.000761362 -0.000475322)
(0.113541 -0.000159855 -0.00049822)
(0.114893 -0.000304061 -0.000235301)
(0.118673 -0.000501997 -0.000370736)
(0.121129 0.000660752 0.000258725)
(0.114173 0.00043804 0.00167368)
(0.121506 -0.000190412 -8.54332e-05)
(0.118981 2.65592e-05 -0.000712536)
(0.122417 -0.000352933 -0.00040981)
(0.114089 -2.47729e-05 -0.000737778)
(0.117455 0.000409334 0.000558606)
(0.121367 0.000166637 -0.000686706)
(0.122478 -0.000801222 -3.85105e-05)
(0.121253 0.000333249 -0.000388778)
(0.122221 -0.00023333 -0.000235892)
(0.119881 9.79851e-05 0.00018184)
(0.118937 0.000549632 0.000151861)
(0.12267 -3.23049e-05 0.000333619)
(0.122383 0.000369076 -1.75547e-05)
(0.122568 0.000265867 9.06931e-05)
(0.115854 0.00094703 -0.000408306)
(0.122435 -0.000714562 -0.000723136)
(0.113593 -0.00031448 0.000403707)
(0.122636 0.000689766 1.281e-05)
(0.119966 0.000200989 -0.000205675)
(0.118752 7.20971e-05 -0.000500727)
(0.114781 0.000793292 1.48237e-05)
(0.119058 0.00113489 -0.000708124)
(0.112308 -0.000869728 -0.000552953)
(0.121468 0.000137932 -0.000496327)
(0.119218 0.000112154 -0.000251906)
(0.121853 -0.000159462 -0.000241713)
(0.118241 0.000350421 -0.000295519)
(0.118285 0.00114441 -0.000301353)
(0.114168 -0.000299336 0.000661829)
(0.122982 0.000209947 -4.97964e-05)
(0.11541 -0.000542756 0.000215107)
(0.112751 -0.000276179 -0.000335072)
(0.115213 -0.00022558 7.33308e-05)
(0.115605 0.000257075 0.00011487)
(0.115042 0.000734152 -9.78304e-05)
(0.11922 -0.000312268 0.000106422)
(0.114228 0.000124273 -7.54656e-05)
(0.1207 -0.00109611 0.000382886)
(0.121198 6.35324e-06 -0.000482403)
(0.112677 -6.54063e-05 -3.05155e-05)
(0.120862 0.000371229 -7.71124e-05)
(0.11473 0.000358166 -0.000728321)
(0.118433 0.000734521 -0.000108649)
(0.119505 0.000342911 -8.63311e-05)
(0.118934 -0.000206857 -0.000961364)
(0.121261 0.000103787 -9.87123e-05)
(0.123197 0.000224016 -0.000833303)
(0.121362 -7.91806e-06 0.000383296)
(0.120549 4.26028e-05 -0.00016357)
(0.120183 -0.000174417 -0.00108299)
(0.121093 0.000397251 0.000215832)
(0.118202 0.00027058 3.85731e-05)
(0.118661 0.000353823 0.000147887)
(0.113266 0.000620282 -0.000812914)
(0.110782 0.00137302 0.0035004)
(0.12203 1.96323e-05 0.00011468)
(0.119289 5.54025e-05 -0.000209057)
(0.12117 -0.000286497 -0.000141273)
(0.12125 -4.57256e-05 0.000171207)
(0.113595 -0.000527793 -5.96373e-05)
(0.121941 -0.00012654 -0.000346521)
(0.122315 0.000548478 5.4215e-05)
(0.122041 5.83348e-05 0.000139924)
(0.122017 0.000211745 0.000421563)
(0.120551 0.000362807 0.000430278)
(0.120099 -0.000532557 -0.000242033)
(0.122056 -5.55972e-05 5.0871e-05)
(0.122726 -0.00015545 0.000464832)
(0.120327 0.000359346 0.0003513)
(0.1223 0.000219764 -0.000211607)
(0.12164 -0.000361893 -0.000458353)
(0.116061 -0.000323738 -0.000467105)
(0.12195 -0.000144801 0.000252949)
(0.116516 -7.86963e-05 0.000527674)
(0.119445 7.5896e-05 -6.5449e-05)
(0.119607 -0.000807588 2.64697e-06)
(0.118998 -0.000506813 0.000163174)
(0.118327 0.000643157 5.09753e-05)
(0.121121 0.000353915 -0.000122538)
(0.118542 0.000362604 0.000283235)
(0.120058 0.000444477 -0.000473968)
(0.118393 0.00114816 -0.000587757)
(0.113619 0.00116875 -0.000791029)
(0.12313 0.000431185 -0.000331873)
(0.121001 0.000601491 -0.000175439)
(0.118054 -3.18451e-06 0.000682711)
(0.114143 -0.000488409 -2.37711e-05)
(0.121459 -0.000367562 -8.15603e-05)
(0.113705 -0.000602422 -0.000581356)
(0.122235 -0.000327239 5.66669e-05)
(0.121399 -7.18249e-05 0.000360598)
(0.118132 0.00113285 -0.000482922)
(0.121206 -0.000378292 0.000205464)
(0.12263 0.000107321 -0.00046955)
(0.120124 -0.000452232 -0.000130735)
(0.113487 -0.000130861 0.00021271)
(0.118512 -3.8125e-05 1.39719e-05)
(0.116364 0.000575602 -0.000496669)
(0.11917 0.000130363 -0.000165178)
(0.113743 -0.000494909 -0.000910906)
(0.120756 -0.000129146 -0.00032307)
(0.121292 -0.000490235 0.000564901)
(0.11698 0.000633379 -0.000711748)
(0.119085 8.76578e-05 4.75402e-05)
(0.116418 3.43197e-05 -0.000317147)
(0.121536 1.73459e-05 -0.000417691)
(0.118182 -0.000679706 0.000138466)
(0.119225 0.000395803 0.000464177)
(0.114259 -0.000198068 3.32122e-05)
(0.121937 -1.27449e-05 2.42818e-06)
(0.120092 -0.00039832 -0.000188161)
(0.12206 6.56114e-05 -8.33725e-05)
(0.116674 0.00053876 -0.000366164)
(0.119231 -6.83692e-05 -0.000325435)
(0.120128 0.000114343 -0.000319836)
(0.118051 -9.79911e-05 0.000256665)
(0.119822 -7.62319e-05 0.000239068)
(0.119358 -0.000211822 0.000547209)
(0.121678 -0.000411496 0.000103002)
(0.119203 -0.000216064 -0.000107776)
(0.114751 9.72783e-06 -0.000204024)
(0.112936 -0.000175408 -0.000637272)
(0.120727 -0.000642376 8.75348e-05)
(0.113721 0.000524592 -0.00103624)
(0.117202 -0.000684358 -0.00128422)
(0.119245 0.000276715 -0.000226124)
(0.119394 0.000289281 7.26007e-05)
(0.122614 0.000525039 -0.0002898)
(0.113603 -3.01484e-05 -6.05932e-05)
(0.118961 -0.0001183 -0.000697972)
(0.122985 8.4472e-05 -0.000404737)
(0.114843 0.0008288 -0.00265277)
(0.115074 0.00138336 8.32742e-05)
(0.11843 3.61079e-05 -0.000752058)
(0.115082 -3.30373e-05 -8.64326e-06)
(0.120637 0.000627545 -0.000717223)
(0.115215 -0.000318263 8.7847e-05)
(0.122377 -0.000791888 -0.000324694)
(0.116756 0.000206078 0.000491667)
(0.117848 0.000434557 0.000493705)
(0.123326 0.000387431 0.000821221)
(0.112858 -0.000179892 0.000482161)
(0.11743 0.000119597 0.000393236)
(0.117394 1.58172e-05 0.000560407)
(0.122008 -6.98224e-05 -0.000731131)
(0.122179 5.40879e-05 0.000256993)
(0.121928 3.99062e-05 -0.00017766)
(0.114453 0.000696996 0.00032579)
(0.120875 9.05303e-05 -0.000387146)
(0.121678 0.000144229 0.0008875)
(0.116979 -0.000205649 -0.0001585)
(0.121929 0.000373452 -0.000107209)
(0.121311 0.000350451 0.000205606)
(0.121101 0.000375387 -7.14886e-06)
(0.122244 -6.10681e-05 -0.000597172)
(0.119383 6.11071e-05 -0.000175265)
(0.123294 -2.51017e-06 0.000348295)
(0.122612 0.000709094 0.000806783)
(0.122192 4.9021e-05 -0.000411692)
(0.120074 0.000510581 0.000321625)
(0.118375 -0.000259062 -0.000389714)
(0.119556 0.000384383 6.56391e-05)
(0.119216 0.000158289 -0.00035502)
(0.113351 -0.000862953 -0.000253909)
(0.118266 -0.000483033 6.19148e-05)
(0.120183 -0.000199742 0.000468439)
(0.122006 -0.000267953 -0.00028918)
(0.122395 -0.000307017 -0.000657128)
(0.118608 -0.000444523 5.12795e-05)
(0.123291 0.00112509 -0.000154049)
(0.121206 -5.93292e-05 -3.26593e-05)
(0.117445 -0.00069216 0.000578724)
(0.121234 -8.92266e-05 -0.00039765)
(0.12203 3.29573e-05 -0.000236491)
(0.1205 5.87758e-05 -0.000525086)