/*--------------------------------*- C++ -*----------------------------------*\
| =========                 |                                                 |
| \\      /  F ield         | OpenFOAM: The Open Source CFD Toolbox           |
|  \\    /   O peration     | Version:  2212                                  |
|   \\  /    A nd           | Website:  www.openfoam.com                      |
|    \\/     M anipulation  |                                                 |
\*---------------------------------------------------------------------------*/
FoamFile
{
    version     2.0;
    format      ascii;
    arch        "LSB;label=32;scalar=64";
    class       surfaceVectorField;
    location    "0.038";
    object      Uf;
}
// * * * * * * * * * * * * * * * * * * * * * * * * * * * * * * * * * * * * * //

dimensions      [0 1 -1 0 0 0 0];

internalField   nonuniform List<vector> 
68568
(
(0.120597 0.000259652 -0.000132359)
(0.11989 0.000581457 -0.000172556)
(0.119597 0.00039241 -2.34342e-05)
(0.122032 0.000805442 -0.000338942)
(0.11999 -0.000395327 -0.00024819)
(0.119939 -0.00046626 -0.000464999)
(0.118837 -0.000400022 3.36085e-06)
(0.113311 -0.000195946 -0.000222749)
(0.121204 0.000216111 0.000281846)
(0.120919 -0.000472812 0.000737642)
(0.119674 -0.000292596 0.000177753)
(0.116309 -0.000614868 0.000767095)
(0.123158 -0.000194161 -0.00023275)
(0.122033 -4.77308e-05 -0.000412491)
(0.12306 -0.000123781 -0.000299295)
(0.123349 -0.000189698 -0.000316834)
(0.118071 -0.000230123 -0.00025795)
(0.120819 -0.000496435 -0.000303704)
(0.117481 -0.000227386 -0.000318786)
(0.120446 -0.000495303 -0.000352858)
(0.120541 -0.000109018 -3.09999e-05)
(0.119227 -5.60413e-05 0.000135672)
(0.120704 -6.22704e-05 0.000149404)
(0.114634 -6.28972e-05 -0.000269142)
(0.119404 -2.62858e-05 -0.000208114)
(0.115054 -0.000159373 0.000107426)
(0.116781 0.000122402 -0.00047075)
(0.119466 -3.11467e-05 -0.000268759)
(0.11939 0.00025207 0.000421249)
(0.12155 0.00014294 9.04004e-07)
(0.120291 -4.35101e-05 -4.19581e-05)
(0.120713 -0.000174226 -0.000361026)
(0.119567 7.92197e-05 -0.000271457)
(0.119602 0.00025066 -0.000603176)
(0.121523 -0.000270136 -9.77983e-05)
(0.120496 -0.000501883 -0.000365228)
(0.122069 -0.000117504 -0.000593764)
(0.122269 -0.000481643 -0.000424388)
(0.122304 0.000473805 2.66641e-07)
(0.121168 0.000326171 -8.78317e-05)
(0.122127 0.000295568 -0.000101997)
(0.118797 -0.000129669 -0.000512584)
(0.122559 -0.000456801 -0.000733577)
(0.122145 -0.000545773 -0.000657561)
(0.120039 -0.000211409 3.11886e-05)
(0.11906 -0.000410585 -3.36392e-05)
(0.11378 1.93336e-05 -0.000334078)
(0.12207 -0.000150313 -0.000156258)
(0.12197 -0.000140068 0.000245293)
(0.121158 -0.000139168 0.000150538)
(0.119272 -8.20888e-05 0.000158637)
(0.117836 -0.000312796 -3.8825e-05)
(0.119411 -0.000289132 -0.000156991)
(0.11876 -0.000257255 -5.10178e-05)
(0.113264 -0.000310411 -8.69225e-05)
(0.119557 -0.000419132 0.000775605)
(0.115187 -0.000345463 0.00047863)
(0.11687 -0.000383245 0.000710238)
(0.119812 -0.000307858 0.000286266)
(0.11901 0.000163711 0.000250713)
(0.119878 0.000301298 0.000266122)
(0.119467 0.000231446 0.000176718)
(0.120919 6.30052e-05 0.00015597)
(0.115483 0.000407145 0.000437552)
(0.115605 -0.000323702 0.000692943)
(0.119195 -6.38384e-05 0.000270943)
(0.119369 5.60806e-05 -0.00059613)
(0.11702 -0.000339358 -5.07144e-05)
(0.115771 0.000112843 -0.000687033)
(0.11981 -0.00017193 -0.000352745)
(0.119778 8.53196e-06 -0.000119604)
(0.121102 -0.000306021 -5.10926e-05)
(0.120708 -0.000466004 4.70903e-05)
(0.11567 -0.000142699 -2.40153e-05)
(0.114932 -0.000185033 -0.000380369)
(0.116557 4.80119e-05 -0.000311888)
(0.115242 0.000264715 -0.000321694)
(0.105622 -0.000145303 -0.000467793)
(0.121079 -0.000441423 -0.000550352)
(0.122516 -0.000193879 -0.000624043)
(0.121563 -0.000293444 -0.000619316)
(0.121992 -0.000330891 -0.000729988)
(0.121627 0.000392012 -0.000238902)
(0.121651 0.000439641 -0.000108603)
(0.119427 0.000491092 -6.39838e-06)
(0.122372 0.000566629 -0.000258037)
(0.116636 0.00026074 -0.000247176)
(0.117 -0.000133064 -0.000229108)
(0.119503 0.000181295 -0.000369119)
(0.11994 3.65539e-05 -4.00084e-05)
(0.114574 -3.07193e-05 8.34433e-05)
(0.118574 -0.000119454 -6.93815e-05)
(0.116357 0.000246048 -0.00043863)
(0.118649 -9.87293e-05 0.000239401)
(0.119271 5.64533e-06 -6.81267e-05)
(0.119294 -0.00037403 0.000166154)
(0.121314 -0.000246322 0.00072535)
(0.119536 -6.72626e-05 -0.000241005)
(0.120816 -0.00015416 -0.000126048)
(0.11536 -0.000105008 0.000290868)
(0.122374 0.000645756 0.000335544)
(0.120179 0.000770713 -0.000205105)
(0.122233 0.000754387 0.000128716)
(0.120636 0.00046806 -0.000606943)
(0.120307 0.000200268 0.000414547)
(0.114582 0.00044143 -0.000237006)
(0.11633 0.000440706 0.000136572)
(0.121961 0.000100809 0.00028853)
(0.121095 -8.13339e-05 0.000290589)
(0.121999 3.69131e-05 0.000297132)
(0.122607 -0.000280584 -0.00021242)
(0.121004 -5.76469e-05 -1.37548e-05)
(0.122737 -0.000228221 -0.000142338)
(0.120492 -0.000133888 -0.000189533)
(0.118976 -0.000229869 -0.000151417)
(0.119008 -9.06928e-05 -0.000261404)
(0.11564 0.000312611 2.76636e-05)
(0.115185 -0.000293068 0.000335835)
(0.121684 0.00023747 -0.000471415)
(0.121029 3.02694e-05 -0.000301831)
(0.121799 1.78749e-06 -0.000430885)
(0.122187 -5.97223e-06 -0.000317435)
(0.116766 -0.000123001 -0.000225862)
(0.115673 -0.000264022 0.000104961)
(0.119908 -0.000198766 4.16974e-05)
(0.120056 -2.71909e-05 0.000123991)
(0.116831 0.000310384 0.000210531)
(0.114657 0.00018256 0.000180557)
(0.114609 6.40614e-05 -0.000117118)
(0.106412 5.36455e-05 0.000185268)
(0.122059 0.000457936 -0.000151144)
(0.114461 7.11471e-06 -6.54127e-05)
(0.114646 -0.000454434 -0.000209847)
(0.112418 -0.000250277 5.27981e-05)
(0.105781 -0.000290893 -5.06427e-05)
(0.122585 -0.000439592 0.00029981)
(0.122544 -0.000603129 0.000168752)
(0.122711 -0.000200053 0.000433207)
(0.122003 -0.00052874 0.000298668)
(0.120644 -0.00031829 0.000331997)
(0.120684 -0.00031599 0.000535015)
(0.122134 -0.000356294 0.000586791)
(0.113331 0.000509496 -0.000427432)
(0.114568 -0.000294262 -2.63095e-05)
(0.106648 6.27049e-05 -0.000114657)
(0.11792 -7.17501e-05 -0.000119208)
(0.115499 -0.000108016 -0.000394347)
(0.106869 0.000123984 -0.000478513)
(0.116237 -0.000203784 0.000123633)
(0.116258 -0.000480471 -0.000100828)
(0.117224 -0.000404495 -9.08812e-05)
(0.106058 -0.000315813 0.000118968)
(0.121871 -0.000169578 0.00013397)
(0.119959 -0.000154017 2.248e-05)
(0.121152 -0.000302399 -0.000488709)
(0.122174 -0.000818264 -0.000460491)
(0.120909 -0.000782874 -0.000765522)
(0.122323 -0.000557975 -0.000887688)
(0.121567 -0.000547217 0.000621759)
(0.121934 -0.000708338 0.000232054)
(0.121299 -0.000265527 0.000297873)
(0.122751 -0.000621771 -0.000246754)
(0.121487 -0.000688432 -3.15252e-05)
(0.120904 -0.000412616 -0.000365949)
(0.122666 -0.000275228 -0.000478776)
(0.118888 -1.01732e-05 -0.0003477)
(0.117251 0.000476475 -0.000507584)
(0.112287 -4.12931e-05 -0.000333826)
(0.120124 0.000339001 -0.000478712)
(0.12044 2.38918e-05 -0.000344412)
(0.117974 0.000202977 -0.000745456)
(0.116661 0.000108826 -0.000270488)
(0.118838 -0.000215769 0.000206818)
(0.118571 -3.45588e-05 4.71198e-05)
(0.120697 -1.90326e-05 -0.000261526)
(0.119619 -0.000223796 0.000124028)
(0.121877 -0.000132695 -0.000371812)
(0.120904 -0.000272578 -0.000506732)
(0.121115 6.28563e-05 -0.000422318)
(0.122662 0.000158895 -0.000798986)
(0.123068 -0.000103069 -0.000385649)
(0.116864 -0.000197811 -0.000550878)
(0.114649 5.07486e-05 -0.000256547)
(0.115344 2.53392e-05 -0.000159696)
(0.105261 4.42803e-05 -0.000316725)
(0.121236 0.00066284 0.000181394)
(0.120449 0.00052717 0.000227708)
(0.122037 0.000599858 0.000197737)
(0.121608 0.000404342 0.000169634)
(0.113826 -0.000385029 8.30767e-05)
(0.106216 -0.000140728 0.000340679)
(0.117724 -0.000173803 -0.000256638)
(0.117558 -0.000412372 -1.3826e-05)
(0.120643 -0.000219114 -0.000277605)
(0.120685 -0.000332445 -7.34613e-05)
(0.11813 0.000204625 0.000233483)
(0.118688 0.000107529 0.000190261)
(0.120595 -0.00014626 2.93022e-05)
(0.116409 -5.33104e-05 -0.000706573)
(0.115131 -6.97235e-05 -0.000343586)
(0.116623 8.47621e-05 -0.000178426)
(0.106174 0.000348442 -0.000294564)
(0.121104 0.000130398 0.000455465)
(0.120692 -0.000191321 0.000128746)
(0.119647 1.33645e-05 0.000414032)
(0.115599 3.46729e-05 0.000357608)
(0.120854 -0.000288158 0.00015524)
(0.119597 5.70593e-05 0.000441271)
(0.120825 -7.7733e-05 -5.69713e-06)
(0.114699 5.72418e-05 0.000241546)
(0.114505 2.02677e-06 -0.000134639)
(0.114652 0.00046254 -0.000142219)
(0.107101 0.000145844 -0.000123481)
(0.119617 -0.000454415 -0.000532748)
(0.119302 -3.7707e-05 -0.000362546)
(0.119555 -0.000140906 -0.000206134)
(0.121352 0.000365378 0.000101414)
(0.120053 0.000417864 0.000191463)
(0.122131 0.000130786 -0.000128409)
(0.120695 0.000252267 -0.00018496)
(0.119338 -0.000142279 -0.000413634)
(0.116711 -0.00022607 -0.000534107)
(0.11679 -0.000215162 -0.00029504)
(0.107024 -0.000310402 -0.00022153)
(0.12073 -0.000103516 -0.00011355)
(0.120819 4.58831e-05 6.7451e-05)
(0.114108 3.27912e-05 -0.000214582)
(0.119093 0.000105231 -4.67273e-05)
(0.119396 0.000378996 8.5979e-05)
(0.120956 0.000431867 0.000142633)
(0.119547 0.000394912 0.000265237)
(0.122585 -0.000111474 -0.00059344)
(0.122848 -0.000194133 -0.000486441)
(0.122747 -0.000318072 -0.000415082)
(0.122165 -0.000213325 -0.000361523)
(0.118701 0.000300601 -0.00102152)
(0.120876 0.000189147 -0.00088281)
(0.121526 -0.000236227 -0.000717971)
(0.119328 -0.000429719 5.02351e-05)
(0.120612 -0.000298775 2.80429e-05)
(0.119301 -0.000139883 0.000189451)
(0.114929 -6.71598e-05 -0.000224686)
(0.116747 -0.000921801 -0.000472706)
(0.117269 0.000243326 -0.000374902)
(0.106227 -6.54407e-05 -0.000464619)
(0.122475 0.00028609 5.78153e-05)
(0.122816 0.000215135 -0.000294072)
(0.1224 2.84175e-05 -9.37022e-05)
(0.122964 6.96571e-05 -0.000421261)
(0.121611 0.00031189 -4.02398e-05)
(0.119698 0.000288041 5.08272e-05)
(0.120871 8.47974e-05 -4.21709e-05)
(0.12073 0.000180569 -0.000233141)
(0.116906 -3.23792e-05 -0.00105866)
(0.116418 0.000180902 -0.000460977)
(0.117957 8.44285e-06 -0.000794367)
(0.109372 -0.000650011 -0.000780983)
(0.12 -0.000272933 -0.000631782)
(0.120071 -0.000325403 -0.000848983)
(0.121924 -0.000296708 -0.00048103)
(0.121632 -0.000264086 -0.000596947)
(0.121192 -0.000218391 -0.00021243)
(0.119676 -0.000303978 -0.00035383)
(0.11965 3.77953e-05 -0.000110728)
(0.11523 8.30853e-05 -0.00055991)
(0.121397 0.000580094 0.000294865)
(0.12084 0.000605584 1.90588e-05)
(0.119614 0.000362207 -0.000129947)
(0.114707 -2.19691e-06 -0.00065447)
(0.114279 0.00011156 -0.000454374)
(0.115966 0.000323761 -0.000681367)
(0.10555 0.000377351 -0.000231066)
(0.121734 -0.000548662 -0.000117805)
(0.12145 -0.00058452 0.000127237)
(0.122784 -0.00050344 5.53647e-05)
(0.117241 0.0010219 -0.000614807)
(0.12044 3.9073e-05 -0.000428438)
(0.119952 0.000162491 -0.000449541)
(0.119305 -0.000260445 0.000470888)
(0.119748 -4.15296e-06 0.000222475)
(0.120206 5.52199e-05 0.000321038)
(0.11409 -0.000112726 0.000331288)
(0.11676 -0.000205158 -0.000133844)
(0.1216 2.13313e-07 3.99643e-05)
(0.119537 0.000257738 3.46994e-05)
(0.121585 0.000429152 -0.000104409)
(0.114985 0.000329512 -0.000302903)
(0.118691 -0.00015233 -8.75022e-05)
(0.118947 -4.20595e-05 3.19951e-05)
(0.112135 -7.88171e-05 -0.000290346)
(0.113199 4.1518e-06 0.00026318)
(0.112816 -0.000287194 9.78829e-05)
(0.106147 -0.000152787 0.000115102)
(0.122646 -2.65156e-05 0.000213176)
(0.120871 -8.03071e-05 -9.79861e-05)
(0.122587 -0.000255422 0.000172071)
(0.121817 -0.000494967 0.000216391)
(0.121758 -0.000460587 -0.000281452)
(0.121352 -3.00669e-05 -0.000143278)
(0.121195 -0.00010977 -0.00028252)
(0.114619 -0.000167195 2.84821e-05)
(0.118932 -0.000263007 -0.000117729)
(0.120848 -0.000282994 -0.000126123)
(0.121226 -0.000117505 -0.000183263)
(0.118932 2.52167e-05 0.000111702)
(0.122516 -0.000135872 -0.000129949)
(0.120673 -9.06648e-05 -0.000274169)
(0.120897 7.77633e-05 4.81969e-05)
(0.122503 -0.000207644 -4.00564e-05)
(0.122569 2.36061e-05 0.000191624)
(0.122059 -0.000144555 2.72489e-05)
(0.122819 -0.000124945 -0.000169298)
(0.121094 -0.000164072 -0.000268185)
(0.120857 -0.000276728 -0.000442326)
(0.12249 -0.000106108 -0.000616023)
(0.114641 0.00132461 -0.00092764)
(0.117603 0.000199426 -0.00131481)
(0.116617 0.000572141 -0.000876573)
(0.104094 0.000119901 -0.000407814)
(0.121321 -0.000184476 -0.000249418)
(0.1214 -0.000277677 -0.000304827)
(0.122587 -0.000226729 -0.000536833)
(0.12006 -0.000253954 0.000205855)
(0.121594 -0.00019485 8.0592e-05)
(0.114519 -8.88713e-05 -7.1401e-05)
(0.117 -0.000241864 2.11008e-05)
(0.116592 -2.46935e-05 4.48522e-05)
(0.119784 -0.000289919 0.000245854)
(0.119583 -0.000346187 -5.90375e-05)
(0.116038 -0.000385191 -0.00094389)
(0.116602 -0.00053836 -0.000129236)
(0.105496 -0.000391882 -0.000152997)
(0.117633 0.000472004 -0.000801424)
(0.119342 0.000220947 -0.000932471)
(0.113281 -0.000281929 -0.000489189)
(0.11595 -0.000549617 -7.96443e-05)
(0.119044 -0.000632279 -0.000160687)
(0.115517 -0.000418758 -0.000399277)
(0.118846 -0.000443465 -0.00021279)
(0.12014 0.000512311 0.000117348)
(0.119937 0.000786757 -2.11604e-05)
(0.118333 0.00103795 0.000455063)
(0.114963 0.000594837 0.000341545)
(0.118429 0.000289329 -0.000233193)
(0.119255 -6.35183e-05 -0.00028936)
(0.121284 0.000237661 -0.000101671)
(0.121689 -0.000228632 -6.41256e-05)
(0.121313 -0.000182034 5.0374e-06)
(0.114341 -0.000172596 2.07746e-05)
(0.119086 8.07344e-05 0.000281)
(0.118659 0.000358661 0.000214271)
(0.120081 7.78199e-05 0.000216905)
(0.113904 5.68172e-05 -0.000177649)
(0.115749 -0.000819591 0.00016658)
(0.116244 -0.000339812 2.10324e-06)
(0.115167 -0.00100074 -0.000306556)
(0.105848 -0.000682337 0.000195349)
(0.120772 0.00031627 0.000175769)
(0.120907 -2.18394e-05 0.000152358)
(0.118892 0.000211567 -0.000280128)
(0.121069 -0.000123188 -0.000179721)
(0.120763 0.000149682 0.000232247)
(0.119239 -0.000113718 0.000371241)
(0.119064 0.000532718 0.00022222)
(0.117669 -0.00035084 -0.000420253)
(0.113461 -2.24061e-06 -0.000180881)
(0.11456 -3.81551e-05 -0.000239704)
(0.116285 -0.000344381 -0.00030428)
(0.115421 0.000115226 -0.000350983)
(0.106118 -4.83888e-05 6.53418e-05)
(0.116879 -5.53985e-05 -0.000277123)
(0.10575 -3.03499e-05 -0.000314198)
(0.121163 -0.00039814 -1.25872e-05)
(0.122911 -0.000181946 0.000275693)
(0.123008 -0.000286556 -7.91781e-05)
(0.107162 3.77668e-05 0.000233404)
(0.115387 -0.000621746 -0.00070409)
(0.116472 -0.000478786 -0.000303709)
(0.116013 -0.000819012 -0.000658928)
(0.105192 -0.00038353 -0.000940963)
(0.115216 0.000618512 -0.000168944)
(0.118582 0.000425943 -7.07905e-05)
(0.114577 -0.000302503 0.00067506)
(0.113473 3.27193e-05 0.000323142)
(0.115268 0.000289393 0.000651825)
(0.105913 -0.000242086 0.000317772)
(0.12138 -0.00102538 0.000290583)
(0.119196 -0.00105137 0.000534826)
(0.119568 -0.000907196 0.000403578)
(0.12141 -0.000962692 0.000168328)
(0.118018 -0.000310963 -0.000637793)
(0.116953 -0.000292712 -0.000270142)
(0.116189 -0.000152827 -0.000262838)
(0.105571 0.000116203 -0.000281232)
(0.120552 0.000308807 -0.000139803)
(0.119601 0.000231566 -0.000167638)
(0.120119 -0.000421656 -0.000148553)
(0.115616 0.000115639 -0.000351584)
(0.116905 -0.000456213 -0.000476436)
(0.11685 -0.000457747 -0.000609968)
(0.119549 -0.000515779 -0.00060302)
(0.12075 0.000106293 -0.000602878)
(0.120569 0.00017147 -0.000602944)
(0.119583 0.000155918 -0.000558726)
(0.113878 0.000426475 -0.000702597)
(0.116107 -6.57399e-05 6.52729e-05)
(0.114394 -0.00042001 0.000103974)
(0.115346 -0.000542231 0.00044012)
(0.105707 -0.00041436 -2.55204e-05)
(0.120475 0.000521648 0.00023841)
(0.11661 0.000427747 -0.0003093)
(0.116395 -0.000196113 -4.62702e-05)
(0.120066 -0.000732029 -8.44539e-05)
(0.116565 -0.000498993 2.07469e-05)
(0.119826 -0.000610525 0.000260087)
(0.121164 0.000118198 0.000105178)
(0.120012 2.94759e-05 -0.000126153)
(0.121035 3.18526e-05 -0.000154824)
(0.120474 8.45165e-05 0.000197219)
(0.120606 -0.000269321 -3.56745e-05)
(0.114779 -0.000286487 7.37283e-05)
(0.11951 -0.000395833 -0.000214961)
(0.119941 -9.04284e-05 -0.0004494)
(0.121221 -1.24411e-05 -0.000246676)
(0.119783 -0.000263599 -0.000108058)
(0.120191 -0.000339826 0.000301477)
(0.121747 -0.000189549 0.000190518)
(0.122421 -0.000347278 0.000140648)
(0.12063 6.87312e-07 -0.000579201)
(0.120541 -5.52332e-05 -0.000510708)
(0.122596 3.55583e-05 -0.000628869)
(0.119279 0.000237058 -0.000485471)
(0.120982 0.000172428 -0.000337665)
(0.121319 -0.000159818 -0.000678646)
(0.117862 -0.000755109 -0.000243663)
(0.12212 0.000148165 -0.000638715)
(0.120025 -0.00040349 0.000265695)
(0.121648 9.90756e-05 0.000406275)
(0.12155 -4.49743e-05 0.000180085)
(0.121707 -0.000301115 0.000189121)
(0.119922 7.87728e-05 0.000111284)
(0.120687 -0.000165362 0.000237004)
(0.113716 -4.66047e-05 5.04033e-05)
(0.115194 -0.000102212 -0.000566396)
(0.115254 -0.000310439 -0.000284172)
(0.115861 -0.00067944 -0.000327524)
(0.11897 -0.000602507 -0.00036336)
(0.119383 -0.000498133 -0.000383415)
(0.120199 -0.000390322 0.000155005)
(0.119945 -0.000315855 -4.44773e-05)
(0.12211 -0.00023596 -0.000299609)
(0.122098 -0.000230762 3.19379e-05)
(0.121365 -4.73765e-05 -0.000269285)
(0.119854 -0.000275698 -0.000411498)
(0.119484 0.000166728 -0.000168101)
(0.121304 0.000298648 -4.80576e-05)
(0.121081 0.00032602 -0.000403877)
(0.122381 1.44432e-05 -0.000675382)
(0.121538 0.000119578 -0.000218761)
(0.122295 -0.000120433 -0.000617864)
(0.121171 -0.000437073 -4.77306e-05)
(0.120259 -0.000219567 -4.43341e-05)
(0.119076 -0.000868605 0.000175534)
(0.121589 -0.000614956 6.1055e-05)
(0.120899 -0.000155479 5.8773e-05)
(0.117557 -0.000164788 -0.00033839)
(0.121669 -0.000156169 -9.42099e-06)
(0.117362 6.44416e-05 -0.000663221)
(0.121804 -7.20508e-05 -2.61114e-05)
(0.122571 -0.000196338 -0.000406045)
(0.121453 -3.69631e-05 -0.000259236)
(0.121165 -2.11534e-05 0.000259358)
(0.114155 -1.52636e-05 -9.97666e-05)
(0.1147 -0.000228311 -0.000431342)
(0.106959 -0.000102298 -0.000282887)
(0.115239 -0.00059789 -0.000834532)
(0.105601 -0.000318433 -0.000208799)
(0.122595 0.000210357 0.000706296)
(0.120695 0.000227832 0.000206943)
(0.119535 -0.000499148 -0.000439873)
(0.114113 -0.000328412 -0.000326815)
(0.120833 -0.000139213 -0.000765594)
(0.120554 -0.00016893 -0.000561185)
(0.119382 -0.000301714 -0.00031519)
(0.113609 -0.000273317 -0.000388903)
(0.122235 0.000325624 0.000657807)
(0.122287 0.000121851 0.000683549)
(0.122385 0.000195237 0.000599322)
(0.121451 0.000330889 0.000646564)
(0.120621 0.000611357 0.000308071)
(0.120723 0.000366433 0.000226505)
(0.121945 0.000449694 0.000259882)
(0.114407 -0.000209704 -0.000386807)
(0.116121 -9.17266e-05 -0.00022338)
(0.10524 -0.000336117 -0.000422333)
(0.117 0.00027518 -0.000347817)
(0.115853 -9.29165e-05 -0.000281937)
(0.115186 0.000281413 -0.000358658)
(0.106076 -5.93496e-05 -0.000690976)
(0.121973 -0.000103365 6.46145e-05)
(0.120451 -0.000250999 -0.000398673)
(0.122019 -0.000402185 -0.000108019)
(0.119176 -6.53827e-05 -0.000262985)
(0.120922 -0.000210669 -0.00035689)
(0.115667 -0.000319012 -0.00051076)
(0.116298 -0.000214407 -0.000620639)
(0.106004 -0.000361385 -0.000388241)
(0.117055 -0.000326189 -0.000137287)
(0.11494 -6.84732e-05 -3.27849e-06)
(0.114545 -7.34079e-06 0.000230248)
(0.107017 -0.000115987 0.000118103)
(0.122382 -0.000610864 0.000183152)
(0.12081 -0.000411785 0.000420649)
(0.120635 -0.000404129 4.70003e-05)
(0.12229 -0.000365482 -5.03258e-05)
(0.116712 -0.000116386 -0.00124342)
(0.116488 4.07961e-05 -0.00082218)
(0.119267 -0.000230955 -0.000826592)
(0.106343 -0.000264199 -0.00110871)
(0.119259 0.000219469 0.000204973)
(0.119705 -0.000428256 0.000236369)
(0.119682 -0.000147528 0.000250447)
(0.114301 -0.000249688 0.000289107)
(0.117073 -0.000579167 -0.000430482)
(0.120149 -0.000296323 -0.000624153)
(0.119974 -4.99363e-05 -0.000788406)
(0.120588 -0.000119639 -8.59629e-05)
(0.122243 -0.000170764 8.93222e-05)
(0.12132 4.77981e-05 0.000359009)
(0.117668 0.000213642 -0.00109519)
(0.115365 0.000420866 -0.000779781)
(0.117153 0.00082924 -0.000834512)
(0.104794 -0.000323075 -0.000840514)
(0.123408 -6.9753e-05 6.16796e-05)
(0.123191 -0.000211406 5.48346e-06)
(0.121606 1.62308e-05 -4.31973e-05)
(0.123236 2.99772e-05 1.45935e-05)
(0.121434 -0.00010324 -0.000461458)
(0.118894 -0.000153608 -0.000307204)
(0.118415 -1.23663e-05 -0.000661276)
(0.121182 -0.00024054 -0.000194803)
(0.11779 -0.000999297 -0.000367034)
(0.118139 -0.000910048 -7.16091e-05)
(0.106115 -0.000315777 -0.000505258)
(0.116668 -0.000659794 0.000889593)
(0.115515 -0.000275773 0.000856726)
(0.117225 -0.000562533 0.000620266)
(0.104799 5.6921e-05 0.000170657)
(0.119714 -0.000327699 -2.97667e-05)
(0.115037 -0.000295479 1.29746e-05)
(0.117219 -0.000301787 -0.000724702)
(0.123152 -0.000175708 -0.000208587)
(0.121692 -0.000158494 -0.000321516)
(0.115362 0.000253368 0.000262253)
(0.114544 0.000123245 0.000252309)
(0.116379 -0.000149846 -0.000123541)
(0.105058 -0.000142922 0.000189531)
(0.117615 -0.000198412 -0.000818511)
(0.117445 0.000350554 -0.000545581)
(0.106195 -0.000393674 -0.000918299)
(0.114764 -0.000190591 0.00028008)
(0.117162 -7.81206e-05 0.000281713)
(0.115069 -0.000484139 8.85533e-05)
(0.106516 -0.000274901 9.93732e-05)
(0.114849 -0.000974109 -0.00032213)
(0.117476 -0.000731023 0.000272144)
(0.115921 -0.00103318 -0.00020416)
(0.104553 -0.000553924 -0.000338023)
(0.117519 0.000378464 -0.000518957)
(0.118914 0.000192926 -6.99988e-06)
(0.119258 -3.36629e-05 -0.000318443)
(0.113145 0.000162374 -0.000219546)
(0.115784 0.000352866 0.000145895)
(0.115013 0.000231943 0.000289112)
(0.10648 4.65594e-05 0.00021429)
(0.121994 -0.000562086 2.07438e-05)
(0.121582 -0.000389581 0.000148567)
(0.122363 -0.000498799 -8.40288e-06)
(0.12196 -0.000471493 0.000190854)
(0.120707 -0.000317278 0.000232315)
(0.120861 -0.000231641 3.34293e-05)
(0.122622 -0.000319377 0.000273754)
(0.122892 -0.000322851 0.000271343)
(0.113743 0.000175046 -0.00103751)
(0.113851 0.000118124 -0.000417071)
(0.115778 0.000202467 -0.000674547)
(0.107249 -0.000238655 -0.000521182)
(0.116326 -0.000394097 0.00052334)
(0.116811 -0.00126428 -4.65708e-05)
(0.116999 -0.000616936 0.000207123)
(0.109256 -0.000485446 6.6894e-05)
(0.118443 0.000911091 -0.000199729)
(0.120185 0.000563949 -0.000415643)
(0.120207 0.000511699 -0.000632546)
(0.115006 0.00022395 -0.000688303)
(0.116839 2.53182e-05 0.000104317)
(0.114455 -6.72346e-05 -5.6773e-05)
(0.113852 -0.000232841 -0.000203877)
(0.106498 0.000148445 -8.29868e-05)
(0.120925 -4.21456e-05 0.00045277)
(0.115069 4.95891e-05 -6.97368e-06)
(0.121039 -0.00046508 -0.000372409)
(0.122248 -9.21467e-05 -0.00038869)
(0.121396 -0.000114457 -0.000228103)
(0.121313 -0.000102634 -0.000268891)
(0.119596 0.00040934 8.08903e-05)
(0.118466 0.000344144 0.000202109)
(0.114731 0.000458417 0.000315953)
(0.121646 0.000196321 -1.70949e-05)
(0.120769 0.000245061 0.00039265)
(0.121465 0.000159166 0.000317944)
(0.121437 0.000315714 0.000335641)
(0.121356 -0.000132008 -6.06681e-05)
(0.12126 -0.000421913 -0.000134984)
(0.114448 -0.000271644 -0.000135012)
(0.119672 -0.000197037 -0.000224906)
(0.118499 -0.000319256 1.15704e-05)
(0.119642 -0.000340842 0.000105453)
(0.112641 -0.000102861 -0.000292142)
(0.119758 -1.46611e-05 -2.96043e-05)
(0.120064 0.000259894 7.96568e-05)
(0.11407 0.000174495 0.00019348)
(0.116188 -0.000493478 0.000615291)
(0.11965 -0.000485859 0.000408722)
(0.119848 -0.000739758 0.000585407)
(0.117861 3.51003e-06 0.00022649)
(0.119344 -0.000337164 -0.000110559)
(0.119501 -0.000279585 9.64237e-05)
(0.11389 -0.000110059 0.000224857)
(0.116276 0.000396379 -0.000141698)
(0.113728 0.000277068 -0.00048977)
(0.105405 0.000882529 -0.000488109)
(0.120937 -0.000156346 -5.36168e-05)
(0.122262 -0.000103993 -0.000135203)
(0.122808 0.000425785 -0.000207642)
(0.119327 -0.000124071 0.000304583)
(0.119806 -0.000117977 0.000510656)
(0.113032 -0.000434967 0.00065719)
(0.121222 0.000299782 0.00010188)
(0.121965 -3.6748e-05 9.98459e-05)
(0.121831 0.000252338 -6.79237e-05)
(0.122017 0.000278306 -4.36139e-05)
(0.11639 -5.89425e-05 -0.000109777)
(0.117108 -0.000147222 0.000157742)
(0.116552 -0.000365032 -3.60532e-06)
(0.105279 0.000114428 7.84335e-05)
(0.114602 3.16821e-05 0.00038773)
(0.114438 -0.000197509 0.000371922)
(0.115781 -0.000101229 0.00058834)
(0.105668 -0.000261168 0.00033927)
(0.120776 -0.000295103 -0.000266301)
(0.121614 -0.000187123 0.000225573)
(0.122451 -0.000383734 9.46592e-06)
(0.122149 -7.16162e-05 0.000207024)
(0.120781 -0.000375309 -0.000352474)
(0.121936 6.51852e-06 -0.000455334)
(0.120373 0.000130954 -0.000359864)
(0.118341 -0.000217881 0.000701517)
(0.120401 -0.000270344 0.000153502)
(0.119998 -0.000167009 0.000300472)
(0.118838 -0.000234035 0.000721908)
(0.11896 -0.000124685 0.000180792)
(0.120536 -0.000377356 6.50688e-05)
(0.114409 -0.000112718 0.000291971)
(0.120908 -0.000276505 -0.000657882)
(0.121058 -7.15396e-06 -0.000552388)
(0.119074 -8.60299e-05 -0.0002978)
(0.114051 0.00017712 -0.00054252)
(0.12036 -0.000114672 -0.00074407)
(0.117026 -0.00019695 -0.00070473)
(0.120241 9.51163e-05 -0.000601791)
(0.116862 0.000295979 0.000293574)
(0.120171 0.000429137 0.000435877)
(0.117713 0.000169735 0.000635844)
(0.120538 0.000302969 0.00028895)
(0.121948 0.000193552 -0.000530319)
(0.119414 0.000358906 -0.000537345)
(0.119982 -8.31575e-05 -0.000769627)
(0.116928 -3.01977e-05 -3.80297e-05)
(0.106168 -0.000157182 -0.000317018)
(0.116392 1.98531e-05 -6.48414e-05)
(0.119376 -0.000194708 -8.44362e-05)
(0.122468 0.000271615 8.25656e-05)
(0.122265 -4.68419e-05 6.01642e-05)
(0.121802 0.00010703 0.000263277)
(0.122343 7.15614e-06 0.000359575)
(0.121234 -0.000509357 5.53091e-05)
(0.121295 -0.000612772 -7.91428e-05)
(0.121066 -0.000483263 -1.37242e-05)
(0.121281 -0.000530099 -0.000208758)
(0.121351 -0.000472536 0.000163467)
(0.121068 -0.000581927 0.00014233)
(0.119347 -0.000486442 0.000366638)
(0.118189 -0.00122144 2.34681e-05)
(0.120416 -0.00121525 -0.000289658)
(0.119608 -0.00104727 -0.000537735)
(0.118286 -0.000101568 -0.000275888)
(0.118138 0.000232788 -0.000501416)
(0.114231 5.37345e-05 0.000223263)
(0.121107 0.000131375 -0.000435802)
(0.115001 -0.000141344 -0.000343947)
(0.118171 0.000577273 -0.000465604)
(0.118337 0.000611255 -0.00065148)
(0.119447 0.000174091 -0.000485131)
(0.113553 -5.28057e-05 -0.000439372)
(0.121969 0.000196132 -0.000336484)
(0.120446 0.000321282 -0.000365707)
(0.121043 0.000108532 -0.000527584)
(0.106274 2.64669e-05 -0.000171724)
(0.119441 0.000113239 -0.000235202)
(0.114693 -0.000108719 -0.000124719)
(0.11719 0.000170452 -9.93395e-05)
(0.119855 0.000194408 0.000238204)
(0.116859 0.000231943 -0.000138943)
(0.120139 0.000495636 9.27568e-06)
(0.120394 4.95111e-05 -0.000270546)
(0.119864 4.8641e-05 -0.000414941)
(0.11937 6.99988e-05 -7.49709e-05)
(0.115514 0.00026937 -0.000349203)
(0.122154 -8.37328e-05 -0.000402261)
(0.120628 -0.000180103 -0.00056684)
(0.121707 -0.000276872 -0.000555652)
(0.120395 -0.000442585 -0.000409141)
(0.1201 -0.000593177 -0.000414052)
(0.122029 -0.000441561 -0.00024732)
(0.121159 -0.000466503 -0.000122911)
(0.121716 0.000158989 -0.000410106)
(0.121968 -0.000113522 -0.000313167)
(0.1157 -0.000667562 -0.000428626)
(0.116696 -0.000880091 -0.000462863)
(0.105327 -6.1963e-05 -0.00039543)
(0.118932 -0.000681475 0.000315075)
(0.120029 -0.000350647 3.76415e-05)
(0.12218 -0.000365756 -0.000171737)
(0.119996 -0.000185651 -0.000257859)
(0.122337 -0.000399339 -0.000183113)
(0.121838 -5.60969e-05 0.00019118)
(0.121641 7.00389e-05 -0.000103546)
(0.120975 0.00026512 0.000240192)
(0.11759 -0.000261856 -0.000479309)
(0.121249 -0.000292219 -0.000588991)
(0.112461 0.000156715 0.00014689)
(0.114429 -0.000275028 0.000659137)
(0.114107 -0.000440849 0.000286276)
(0.103834 -0.000492039 0.00035656)
(0.120741 -0.000401518 -1.47718e-06)
(0.119938 -0.000474308 0.000296818)
(0.11533 -0.000367529 0.0008441)
(0.114446 -0.00101137 -0.000346222)
(0.106683 -0.000542125 -0.000209667)
(0.119241 0.000341517 -0.000161598)
(0.119471 0.000468025 0.000195006)
(0.103179 0.000135643 -0.000217081)
(0.120173 -0.00021462 0.000337798)
(0.122289 -0.000368338 0.000312572)
(0.115218 -0.000373222 0.000288068)
(0.117752 0.000311627 0.0003031)
(0.118471 -0.000350423 5.39929e-05)
(0.115919 0.000467989 -0.000228513)
(0.116046 0.000206315 -0.00027593)
(0.11647 0.000391245 -0.000565465)
(0.105201 3.01841e-05 -0.000113962)
(0.120062 -5.81032e-05 0.000130477)
(0.119431 4.27207e-06 0.000130397)
(0.11895 1.94526e-06 0.000205403)
(0.120899 0.000691939 -0.00028484)
(0.121731 0.000739413 -0.000249836)
(0.118992 9.71548e-05 -0.0001912)
(0.119815 4.58593e-05 -0.000343547)
(0.121863 -0.000608444 -0.000191856)
(0.121465 3.47682e-05 0.000264681)
(0.116785 -0.000523553 -2.44252e-05)
(0.116567 -0.000270507 -0.000101126)
(0.104579 -0.000298656 0.000116401)
(0.115364 -0.000903747 0.000199466)
(0.114072 -0.000602767 0.000563984)
(0.106272 -0.00058238 0.000163285)
(0.121174 -0.000639207 0.000337539)
(0.119537 -0.000145813 0.000525463)
(0.120578 -0.000471177 0.000594503)
(0.119328 -0.000299912 9.31132e-05)
(0.121631 0.000144829 -0.000638564)
(0.122405 2.46475e-05 -0.000611203)
(0.120317 0.000172171 -0.000446543)
(0.116098 0.000489875 0.000115228)
(0.116891 0.000152296 5.08316e-05)
(0.104455 0.000304738 -0.000459042)
(0.121771 -0.000645999 0.000110675)
(0.121704 -0.000684261 0.000346091)
(0.121527 -0.000480321 0.000278338)
(0.118534 -8.19568e-05 -0.000211101)
(0.11637 9.60507e-05 -0.000484082)
(0.106512 -3.27984e-05 -0.000379895)
(0.114624 -0.000235574 0.000221904)
(0.11461 -0.000505468 8.89231e-05)
(0.106982 -0.000301213 -4.34387e-05)
(0.119023 0.00022006 -0.000428242)
(0.118667 0.000185885 -0.000326354)
(0.120111 0.000305442 -0.00014565)
(0.114383 -0.000214607 -0.000348825)
(0.119478 -0.000326586 -0.000291294)
(0.121229 -0.000476758 6.35584e-05)
(0.119269 -0.000278625 0.000445149)
(0.120711 -0.000338928 5.90083e-05)
(0.117671 -0.00111435 0.000253946)
(0.119294 -0.000866808 3.38716e-05)
(0.11945 -0.000797029 -7.89433e-05)
(0.112642 -0.000840317 -0.000167445)
(0.114844 -0.000313051 0.000568446)
(0.118546 3.38427e-05 0.000535652)
(0.117171 6.04072e-05 0.00015699)