/*--------------------------------*- C++ -*----------------------------------*\
| =========                 |                                                 |
| \\      /  F ield         | OpenFOAM: The Open Source CFD Toolbox           |
|  \\    /   O peration     | Version:  2212                                  |
|   \\  /    A nd           | Website:  www.openfoam.com                      |
|    \\/     M anipulation  |                                                 |
\*---------------------------------------------------------------------------*/
FoamFile
{
    version     2.0;
    format      ascii;
    arch        "LSB;label=32;scalar=64";
    class       volScalarField;
    location    "0.008";
    object      epsilon;
}
// * * * * * * * * * * * * * * * * * * * * * * * * * * * * * * * * * * * * * //

dimensions      [0 2 -3 0 0 0 0];

internalField   nonuniform List<scalar> 
31639
(
10.6056
10.7119
10.8494
10.9137
10.4316
10.6391
10.3499
10.6679
10.5496
10.9141
10.9038
10.8768
10.774
10.8798
10.6463
10.2233
10.5798
10.2895
10.0671
10.7407
9.85358
10.7027
10.8792
10.1437
10.1193
10.5103
10.7501
9.82911
10.3506
10.8502
10.9031
10.2688
10.9126
10.114
9.93606
10.8865
9.61402
10.9106
10.906
9.53038
9.96906
9.84699
10.9033
10.7737
10.8408
10.9125
10.6328
10.2525
10.5829
10.9009
10.8893
9.46733
10.9069
9.76657
10.2142
10.5765
9.744
10.7424
10.7403
9.70757
10.4535
10.6386
10.1164
10.694
10.5731
10.8783
10.4443
10.7461
10.0688
10.8965
10.9251
10.4119
10.8468
10.7193
10.9279
9.91203
10.9055
10.317
10.7063
10.7864
10.1286
9.57421
10.9623
10.8144
10.7912
10.9238
10.9094
10.941
9.76197
10.9701
10.8026
10.3383
9.76405
10.6709
9.93309
10.6317
10.3891
10.7622
10.761
9.85289
10.9055
10.9154
10.6712
9.66344
9.77114
10.9013
9.7184
9.56172
10.0444
9.8221
10.7516
9.89331
10.7017
10.202
10.7567
9.68296
10.3732
10.3302
10.9111
10.7017
10.6457
10.8528
10.81
10.509
10.4902
10.8625
10.6979
10.0525
10.0485
10.8891
10.8815
10.7819
10.8234
10.3174
10.683
10.7917
9.71429
9.73666
10.8628
10.7535
10.7085
10.8559
10.9221
9.60169
9.63002
10.8867
10.8003
9.82556
9.85831
10.9054
9.97088
10.7942
10.0683
10.6521
9.81383
10.8745
10.3526
10.0553
9.80785
10.1096
10.9066
9.87443
9.99428
9.73245
9.8938
10.589
9.88639
10.8769
10.8635
9.603
10.3838
10.6265
9.88961
10.7874
10.9155
10.779
10.7989
10.9019
10.8001
10.7591
10.7165
10.2328
10.5889
9.61575
10.5595
10.9167
10.4506
10.8599
9.83656
9.71068
10.8545
10.6851
10.5428
10.7133
10.707
10.1955
10.2395
10.8626
9.6526
10.2598
10.819
10.9383
10.6306
10.7002
10.4575
10.7078
10.63
10.6925
10.8675
9.55458
10.7057
10.3034
10.7712
10.7371
10.5469
10.8788
9.94806
10.269
10.9668
10.8427
10.8687
10.417
9.67977
10.8991
9.75668
10.5654
10.9142
10.137
9.85686
10.6296
10.6587
10.9029
9.85814
9.74979
10.4861
10.5325
9.67952
10.7584
10.1013
9.63739
10.6852
10.5005
10.5904
10.1657
10.1558
10.5638
10.675
10.5367
9.77658
10.7099
10.5534
9.9202
10.165
10.8954
10.8343
10.283
9.94858
10.8459
10.7916
10.2969
10.9026
10.9046
10.6845
10.905
10.6709
10.4563
9.72075
10.1486
10.7454
10.6131
10.6558
10.1526
10.4439
10.7396
10.9112
10.7593
9.80556
10.2558
10.0119
10.8596
10.3661
10.9132
10.8523
10.2116
9.8537
10.107
9.79711
9.70967
10.8443
9.93796
10.8793
10.6211
10.1907
10.0281
10.8757
10.2693
10.1738
10.6991
10.4446
10.1553
10.6948
9.84185
10.7297
10.6913
9.87138
10.32
10.6405
9.40074
9.65953
10.882
10.9382
10.876
9.79698
9.97734
10.8624
10.0576
9.99731
10.8925
10.9082
10.6445
10.8695
10.9087
9.87831
10.9519
9.64553
9.75515
10.8782
10.7853
10.8455
10.8683
10.5639
9.95235
10.556
10.6849
10.9081
10.9357
10.9374
10.6767
10.4992
10.7678
10.88
10.4953
10.5303
10.3184
10.7049
10.2641
10.756
10.536
9.8722
10.6794
10.9986
10.2151
10.8395
10.7679
10.6889
9.79427
10.7049
10.669
9.77223
10.9095
9.84702
10.4275
10.9228
9.65087
10.7464
10.6893
9.81764
10.419
9.90722
10.2328
10.8534
10.5824
9.62228
10.5785
9.95376
10.5872
10.8529
10.8882
11.0296
9.95012
10.7547
9.81041
10.6545
9.67368
10.8352
10.8752
10.919
10.9036
10.1149
10.7709
10.7429
10.8123
10.7037
9.93847
10.3929
10.5079
10.7061
10.6284
10.4901
10.6153
10.2761
9.83928
10.4864
10.7625
10.8488
9.62231
10.9144
10.8525
10.6874
10.7439
10.834
10.3566
10.8347
9.92176
10.5566
10.8477
9.71118
10.4685
10.8318
9.95635
9.61001
9.82095
10.3293
9.84952
10.7637
10.7485
10.2312
10.8918
9.91171
10.8722
10.9146
10.714
10.5284
10.3283
10.9209
10.7301
10.4844
10.8557
10.7838
9.74539
10.7285
10.8744
10.9156
10.6342
10.9245
10.5747
10.5036
10.7864
10.877
10.89
9.84638
10.7433
9.50683
10.3377
10.6401
9.81921
9.80534
10.3083
10.5452
10.7358
9.72272
10.5966
10.1822
10.6773
10.6425
9.51488
10.6814
9.68767
10.6313
10.8927
10.9285
10.8061
10.3092
9.78507
10.5593
10.7024
10.8698
9.73736
9.79976
10.6608
9.84586
9.95595
10.5295
9.72772
10.2658
9.88647
10.5733
9.82838
10.9
10.8706
10.9058
10.8083
10.2244
10.9314
10.9196
10.5029
10.6807
10.7827
10.9393
10.9249
10.2139
10.811
10.914
10.6977
9.94915
10.8767
10.744
9.49635
9.72457
10.7668
11
10.8816
10.5651
10.8645
10.8506
10.8848
10.7831
10.3087
10.4496
9.93088
10.68
10.5774
10.8935
10.108
10.0412
9.94404
10.4919
10.6571
9.45093
10.6074
10.1956
10.484
10.2851
10.7505
10.3967
9.85554
10.7715
10.7862
9.97519
10.5931
10.9353
10.7742
10.6703
9.90728
10.0192
10.7235
10.7302
9.91681
9.75513
10.7495
10.1954
10.5777
10.1347
10.3317
10.9124
10.6988
9.76249
10.2222
10.7571
10.8923
9.81882
9.45392
10.8635
9.75008
10.8096
10.8358
9.83751
10.74
10.782
10.5019
9.84173
10.956
10.4865
9.88425
10.9518
10.781
10.5798
10.7569
9.52003
10.0329
10.6914
10.232
10.1997
10.5728
10.8672
10.8873
10.7253
10.7671
10.8478
10.4786
10.1372
10.8183
10.8358
11.0073
10.1032
10.7618
10.4519
10.9653
9.92438
9.57675
10.8834
9.91023
10.9018
10.6138
9.73606
10.2581
10.8913
10.4427
10.6575
9.70608
10.6923
10.4082
9.67489
10.8884
10.8688
9.78757
9.91828
9.97526
10.3335
10.7459
10.7385
10.7119
10.7052
10.8639
10.746
10.7069
9.94484
10.8519
9.78505
10.739
10.3955
10.3393
11.0135
10.6753
10.0774
9.61829
9.89539
10.3503
10.8847
9.94477
10.881
10.3958
10.875
9.8088
10.6233
10.8332
10.8765
10.8825
10.815
10.8079
10.4613
10.9493
10.9129
10.9391
10.1602
10.7331
9.80736
10.9399
10.7332
10.6676
9.95753
10.6145
9.59289
10.8138
10.4411
10.8768
10.6733
10.5871
9.82458
10.8944
9.65885
9.61163
10.0288
10.1311
9.76295
10.7265
9.71435
10.6742
10.5011
9.50576
10.8869
9.8733
10.0474
10.631
10.1177
10.6784
10.8235
10.8947
10.8345
10.1463
10.6837
10.2246
10.3099
9.56294
8.90005
10.9005
10.7049
10.6076
10.9033
9.74336
10.9271
10.8901
10.8482
10.8282
10.8343
10.7959
10.9116
10.8952
10.743
10.8975
10.6921
9.86342
10.8865
10.2689
10.8413
10.5824
10.7225
10.0668
10.9035
10.6933
10.7103
10.4093
9.96994
10.8954
10.4352
10.1529
9.80619
10.8585
9.53311
10.8091
10.6808
10.5525
10.8364
10.8803
10.8281
9.77274
10.6921
10.5305
10.8647
9.87646
10.7913
10.6084
10.557
10.7319
10.4411
10.5352
10.3046
10.3085
9.60627
10.8553
10.5352
10.8491
10.129
10.7204
10.791
10.6757
10.1338
10.7321
10.8634
10.7173
9.53937
9.67073
10.6446
9.60082
9.78207
10.8139
10.8317
10.8176
9.51785
10.6749
10.8456
9.77311
9.60782
10.6465
9.91378
10.6143
10.0758
10.8904
10.1771
10.1491
10.8635
9.58428
10.6279
10.6467
10.8583
10.9006
10.8785
9.96571
10.8291
10.8634
10.3001
10.9024
10.8509
10.5887
10.8703
10.7331
10.9306
10.9265
10.916
10.8137
10.352
10.7462
10.7118
9.86771
10.5623
10.8024
10.8653
10.8839
10.6648
10.9503
10.872
10.538
10.6649
10.9162
10.6852
10.6339
9.86013
10.2384
10.9513
9.57243
10.4415
10.6673
10.2912
10.5809
10.8444
10.5608
10.8562
10.4518
10.6222
10.3929
10.8604
10.7424
10.3041
9.91371
10.879
9.93513
10.6176
10.2686
10.6283
10.4241
10.9609
9.91512
10.9447
9.99406
10.7793
10.3217
10.6727
10.6967
10.8482
9.87924
10.8444
10.9009
10.7837
10.8068
10.5795
9.64254
10.9162
10.904
10.729
10.8525
10.9052
10.728
10.5012
10.7974
9.75762
10.3154
10.8865
9.81448
10.14
10.9838
10.9358
10.0767
10.2012
10.8901
10.1
10.6196
9.87894
10.7802
10.7754
9.51583
10.4621
10.8989
10.6719
10.7897
10.63
10.8709
9.96143
9.91897
10.9722
10.933
10.6505
9.87455
10.5591
10.9733
10.0943
10.9189
10.7168
10.7775
10.5204
10.7851
10.7929
10.7312
10.6504
10.0886
9.66135
10.4525
10.7898
9.8326
10.864
9.65033
10.6365
10.2458
9.84138
10.6688
10.0874
10.686
10.4516
10.7198
9.82296
9.86901
10.286
9.82308
10.619
10.9008
10.6762
10.9364
10.4133
10.7124
10.9691
10.2786
10.4591
10.7017
10.6965
10.5657
10.019
10.7583
10.8276
10.9068
10.9681
9.9143
9.63265
10.6651
10.9005
10.0092
10.6031
10.5397
10.7166
10.9583
10.2155
10.62
10.6214
9.7936
10.8985
10.7536
9.79543
10.0527
10.7049
10.2356
10.8932
10.9153
10.537
9.90782
10.9365
9.6616
10.7563
10.7942
10.266
10.9085
9.73028
10.6942
10.5829
10.6575
9.78063
9.66581
10.8161
10.932
10.2241
10.8208
10.8099
10.6853
9.88853
10.0808
10.8649
10.3634
10.7253
10.9009
10.877
10.915
10.8469
10.4879
10.4753
10.8492
9.95276
10.764
10.8278
10.7663
10.8204
10.9766
10.4078
10.8325
10.6935
9.63715
10.9235
10.2003
10.916
10.211
10.8839
9.88797
10.7837
10.9433
10.6529
10.7903
9.85625
10.8933
10.9129
10.7577
9.70229
11.0642
10.3584
10.7917
10.8182
10.8724
10.8525
10.6692
10.3638
10.905
9.9224
10.0145
9.92872
10.0412
10.8188
9.74954
10.8991
10.9136
10.8211
10.6346
10.3395
10.7628
10.9481
10.7486
10.5485
10.9233
10.8085
10.4123
10.8598
10.6996
10.6745
10.6865
10.2493
10.8511
10.9735
10.86
10.8641
10.8057
10.1876
11.0046
10.5312
10.5944
10.7111
10.8203
10.9798
10.7682
10.8351
10.1056
10.6978
10.5447
9.97008
9.85226
10.6945
10.353
10.8892
10.2289
9.5422
10.515
10.8907
10.1811
10.2247
10.7421
10.9146
10.8686
10.6166
10.1493
10.7263
10.6708
10.2815
10.5764
10.7257
9.79428
10.3171
10.2164
10.6036
10.9308
10.7053
10.8667
10.6894
10.7446
10.6332
9.7264
9.84995
9.74874
10.8333
10.7651
10.9593
11.0707
10.685
9.73603
10.8002
10.3447
10.5718
10.5754
10.8539
9.63571
10.934
9.81753
10.7289
10.4961
10.4456
10.9455
10.7458
10.8528
9.8409
10.7476
10.5894
10.6537
10.0152
10.1094
10.8033
10.8306
10.5228
10.7944
10.9527
9.84014
10.3303
10.3083
10.0873
10.7445
10.8914
10.9325
10.8444
10.8944
9.97866
9.99095
9.87449
11.0151
9.95232
10.8116
10.4369
9.90905
10.3034
10.8875
10.9414
10.1164
10.3093
10.6482
10.7361
10.9082
10.4668
9.81048
10.7682
10.8692
10.812
10.8741
10.8868
11.0243
10.8804
10.6906
10.0109
9.84529
10.7244
10.0072
10.9013
9.93734
10.8159
10.2917
10.8434
10.0492
10.6263
10.8996
10.845
10.2856
9.9361
10.8762
10.2938
10.8367
10.4532
11.036
10.9152
10.7965
9.91218
9.87166
10.6662
10.5069
10.2514
10.9633
9.93814
10.8217
10.7028
10.2676
10.8203
10.9446
10.8842
10.9074
10.9928
10.8124
10.4757
9.76422
10.0754
10.8537
9.96137
10.5802
10.682
10.0325
10.6884
10.7235
10.6919
10.8127
10.9326
9.96331
10.7206
10.7748
9.89381
10.2206
10.6692
10.3191
10.6614
9.91482
9.8373
10.7193
10.2459
10.9064
10.9352
10.82
10.6059
10.6407
10.7098
10.5785
10.8406
9.97724
10.7359
10.2949
10.8891
10.656
10.3675
10.5018
10.8989
9.93744
10.7508
10.888
10.7079
9.27467
10.331
9.98776
10.547
9.70859
10.9616
10.9133
10.8529
10.8248
10.0248
9.79627
10.9025
11.0083
10.8417
10.7281
10.5722
10.8617
11.0044
10.8329
9.82124
10.4901
10.7686
10.84
10.365
10.7239
9.6969
10.8655
10.87
10.4929
10.7877
10.6171
10.7534
10.9145
10.8803
10.0359
10.7038
10.8566
10.6912
10.4523
10.6022
9.76722
9.81043
10.9064
10.8758
10.8733
10.8597
10.7473
10.7835
10.4695
10.7633
10.812
10.9031
10.2693
10.3491
10.5908
10.7628
10.9124
9.68969
10.457
9.61212
10.9088
9.68119
9.89093
10.6753
9.43648
10.3961
10.7361
10.8992
10.8507
10.1041
10.5706
10.9417
10.1987
10.0701
10.4575
10.0471
10.8758
10.818
10.4369
9.89737
10.8091
10.9956
10.8372
9.84036
10.0452
10.6928
10.8955
10.856
9.91526
9.90371
10.6576
10.4704
10.9328
10.7008
9.70276
10.5698
10.8648
9.87168
9.61947
10.8928
10.0334
10.0233
10.9367
10.7902
10.8372
11.0017
10.6741
10.3587
10.9431
10.1965
10.7766
10.1213
10.6394
10.7496
10.6711
9.85068
10.8287
10.8348
10.2731
10.724
10.2834
10.0747
10.3567
10.4813
10.6524
10.9212
10.2029
10.8701
9.75359
10.8489
10.9096
9.86314
10.8352
10.7786
9.39078
9.84487
10.7717
10.6999
10.8874
10.1793
9.89808
10.848
10.8929
10.8882
10.5436
10.8582
9.70944
10.9383
10.7429
9.85673
9.85391
9.38946
9.74748
10.9095
10.2631
10.8259
10.7565
9.97129
10.0157
9.57151
9.55498
10.9887
10.9487
10.0246
10.8886
10.6647
9.94318
10.6432
10.4505
10.0395
10.3
10.851
10.1173
9.76882
10.8198
11.0041
10.1105
10.848
10.5199
10.0706
9.88608
10.4455
9.90734
9.87558
10.7919
10.7686
10.3547
10.7748
10.8152
10.6733
10.9411
9.26042
10.4391
9.79318
10.7503
10.8488
10.694
10.1968
10.7171
9.89386
10.8164
10.7002
10.1419
9.98041
9.58755
9.5741
10.1818
9.75945
10.3744
9.809
10.3422
10.7482
10.6208
10.3628
10.82
10.6211
10.7363
10.8041
9.71612
10.3815
10.8732
10.9004
10.6649
10.9446
10.0065
10.8043
10.6976
9.79624
10.6466
10.9134
10.5962
10.8543
10.8722
10.5467
9.48215
9.50258
10.6689
10.91
10.5302
10.8293
10.2183
10.3052
9.90815
9.70785
9.63711
9.74953
10.6748
10.8037
10.9387
10.5366
10.3036
10.9082
9.76173
10.7643
10.8298
10.8814
10.5778
10.6286
10.9078
10.9712
10.8425
9.96228
10.4216
10.8977
10.6076
10.7774
10.9803
10.8058
10.9402
10.7676
10.0526
10.7102
10.8903
10.7085
10.7853
9.79274
10.8631
10.8923
10.9405
10.8915
9.72855
9.58767
10.6675
10.6698
10.5001
10.7655
10.8493
10.8239
10.82
10.2027
10.6161
10.7046
10.8547
9.89425
9.90611
10.53
10.7726
9.91553
10.92
9.88743
10.2069
10.7557
10.8181
10.315
10.8728
10.7303
10.803
10.5885
10.7153
10.7662
10.2425
9.52863
10.8917
9.5934
9.77443
10.0136
9.69046
9.68843
10.2355
10.782
9.75269
10.2139
9.37552
9.99258
10.6454
10.9197
9.60749
9.88891
10.856
9.68681
10.292
10.7372
10.5137
10.7555
9.96684
9.8157
10.2278
10.8565
10.1176
9.90893
10.4576
10.2229
10.7846
10.6865
9.94982
10.8793
9.74813
9.89906
10.4139
10.8369
10.23
10.3713
10.4444
10.7704
9.5923
10.0417
10.6725
10.9013
10.7468
9.77748
9.53889
10.3215
10.9102
10.7018
10.6933
10.2912
10.5545
10.7173
9.77
10.9248
10.1231
9.82785
9.62484
10.8887
10.6638
10.8857
10.4719
10.8916
9.7194
10.3983
9.61619
9.61918
10.7605
9.956
10.3505
10.7584
10.7092
9.85965
10.9059
10.8675
10.8806
10.5556
9.47588
10.7791
9.47991
10.8935
9.86293
10.8784
9.49007
10.8161
10.6269
10.2424
10.2997
9.45776
10.0794
10.7148
10.8156
10.5885
10.9175
10.8893
9.78777
10.8968
10.2687
10.8134
10.8102
10.908
10.7058
10.7171
10.8766
10.2758
9.99673
9.95515
10.7883
10.9302
9.89902
10.1261
10.798
10.6117
10.7258
11.0103
10.8391
10.5365
10.7441
10.7901
10.8373
10.5393
10.599
10.9099
10.7559
10.0147
10.6464
10.1239
10.9551
10.7916
10.8691
9.90197
9.88716
10.7095
10.8857
10.816
10.866
10.9491
10.4696
10.58
9.92164
10.4624
10.7951
10.8034
10.9171
10.9245
10.3494
10.8912
10.0232
10.8186
10.1531
10.6988
10.2075
10.767
10.5495
10.8757
9.84499
10.9351
10.8965
10.3539
9.86572
11.0297
10.5765
10.8266
10.7377
10.7803
10.6517
9.7197
10.8907
10.3909
10.7899
9.94614
10.0346
10.0954
9.69842
10.0985
10.9055
10.7196
9.66545
10.6615
9.79124
10.4462
10.8037
9.49576
9.76924
10.128
10.414
10.7117
10.1696
10.8042
10.3232
10.0354
10.1211
10.8692
10.8713
10.9282
10.8302
10.8028
9.79852
9.71269
10.8544
10.2941
10.4457
10.8598
10.9936
10.7522
10.7436
9.62339
10.8515
10.954
10.2524
10.8232
10.8414
10.739
10.613
10.6693
10.2594
9.7531
10.7767
9.86358
9.74998
10.4032
10.7501
10.7785
10.7796
10.7838
10.7555
9.57934
10.2111
10.9433
10.9392
9.81453
10.447
9.92682
10.53
10.8961
10.2633
10.5883
10.8617
10.4878
9.71578
10.8358
9.74953
10.8256
10.7995
10.7859
10.8918
10.8044
10.8884
9.77585
10.8644
10.9044
10.0154
10.8636
10.7135
10.348
10.9058
10.4222
10.8563
10.9394
10.8783
10.7881
10.9126
10.7566
10.6351
10.0453
10.5242
9.82198
9.63734
10.4362
10.8297
10.7206
10.9275
10.6607
10.8738
9.60958
10.8929
10.9435
10.8485
10.7981
9.96292
9.66988
10.705
9.69179
10.8167
10.7754
9.58555
10.2924
10.8827
10.7522
9.53088
10.0198
9.56326
10.9093
9.81824
10.8359
10.4524
9.83027
10.8004
10.8334
10.9535
10.8512
9.81751
10.5717
10.9164
9.95286
10.9089
10.7187
10.8227
9.76772
10.7403
10.3066
10.6564
10.3248
10.643
10.2204
10.2847
10.3715
10.2686
10.8164
10.6783
10.8968
10.1127
10.7052
10.7806
10.9022
10.7879
9.92637
10.8107
9.85083
10.5827
10.9279
10.9269
10.5143
10.3767
10.755
10.2224
10.6383
10.4222
9.86427
9.76422
10.8215
10.9427
10.4834
10.2804
10.9517
9.78952
10.8027
9.89356
10.5364
10.9248
10.7537
9.71187
10.919
9.78396
10.8204
10.7257
9.75213
10.8526
9.952
10.1787
10.3813
9.60195
10.0561
10.5468
9.50295
10.8046
10.9283
9.61225
10.0831
10.8903
10.6313
10.7935
10.9469
10.8214
10.7019
9.97951
9.72763
9.48754
9.87825
10.8901
10.8054
10.5643
10.7482
9.81248
9.82838
10.6651
10.8025
9.44118
10.6853
10.7148
10.4393
10.8045
10.5555
10.9222
10.0797
10.3167
10.9292
9.4225
10.6756
10.8969
10.9182
10.5661
10.8803
10.7721
9.76585
10.9368
10.9353
10.6913
10.7797
10.5708
10.6966
10.784
10.6566
10.7941
10.7417
10.5809
9.75764
10.2782
10.9524
10.754
10.9345
10.7854
10.5859
10.9111
9.92503
10.8883
9.77502
10.9015
10.618
10.2262
10.9189
10.2302
10.3666
10.9432
10.2595
10.9197
10.8475
10.7655
9.9435
10.7653
10.6848
10.1403
10.8943
10.6395
10.6884
10.953
9.80058
10.816
10.7561
10.8236
10.2534
10.775
9.8302
10.0031
11.0529
9.83097
10.7921
10.9087
9.88538
10.3671
10.9389
10.0565
10.0168
10.0004
10.2439
10.2473
10.9793
10.2595
10.8653
10.6906
10.914
9.71769
10.1608
10.8358
10.7264
9.83463
9.99555
10.3124
9.64837
9.74663
10.7083
10.6519
10.8944
10.6062
10.9153
10.8247
10.7769
10.8596
10.676
10.0667
10.5224
10.8168
10.6648
10.5458
10.8757
10.6945
9.68917
9.68147
10.3588
9.94967
10.6082
10.8952
10.4926
10.7175
10.8971
10.8473
10.9432
10.3872
9.89397
10.5775
10.2941
10.9218
10.4909
10.7677
10.8555
10.2789
10.2833
10.8306
10.9266
10.8326
11.0426
10.7551
10.4757
10.5523
10.0674
10.348
10.9163
10.0817
10.8708
10.5866
10.8755
9.95397
10.89
10.7569
10.9079
10.6946
10.5093
10.718
10.8539
9.73854
9.99108
10.6782
10.2337
10.4141
10.7866
10.7528
10.92
10.5857
9.75875
10.0725
9.80767
10.4678
10.7535
9.9628
10.9624
10.7279
10.3044
10.6569
9.92756
9.95262
10.9037
9.9084
9.58727
10.077
10.0839
9.89605
10.0012
10.9278
10.8522
10.1719
10.8386
10.9064
10.7168
10.7206
9.66579
10.9163
8.58044
10.8819
9.8556
9.67976
10.8019
9.66336
10.3468
10.5795
10.903
10.2125
10.7034
10.2174
10.702
10.5735
10.5778
10.3713
10.7863
10.6806
9.88012
10.8178
10.6201
10.4017
10.2363
9.96093
10.422
9.77359
9.74906
10.7371
10.2616
9.86967
10.2179
10.8029
10.8618
10.8158
8.86742
9.84394
10.9441
9.83136
10.7391
9.70996
10.8903
10.7627
10.9616
9.81318
10.43
10.9133
10.8965
10.5755
10.9466
10.678
10.561
10.6666
9.75803
10.5351
10.2147
10.7313
10.7286
10.1503
10.6372
10.8582
10.0403
9.93465
9.8102
10.7682
10.7837
9.68744
10.7394
10.7163
10.636
9.90685
10.787
10.3044
10.8685
9.71713
10.3505
10.6997
9.60894
10.8861
9.94664
9.98089
10.5649
10.9196
9.53062
10.7664
10.8325
10.4529
9.6377
10.9128
10.8795
9.60898
10.7221
9.52738
10.0039
10.9124
10.3584
10.6874
10.867
10.9215
10.5603
10.1395
10.6592
10.3768
10.3645
10.208
10.7981
9.77127
10.5825
10.4056
10.3562
10.7768
10.6429
10.8323
10.67
10.7258
10.8691
10.6263
10.3191
10.1332
10.7638
10.5506
10.5419
10.7574
10.8546
10.6204
10.8866
10.5581
10.8163
10.1101
9.85956
10.6949
10.8184
9.95019
10.6084
10.6448
9.43547
9.68724
10.876
9.71907
10.6197
10.8439
10.5867
9.83081
10.6209
10.8923
9.83557
9.96668
9.92688
10.8524
10.7449
10.7276
10.9729
9.74647
10.8114
10.6894
10.9007
10.9149
8.70033
10.7011
10.7084
10.8214
10.5477
10.5982
9.98069
10.8183
10.8764
10.0084
9.68691
10.2757
10.8169
10.7482
9.81801
10.3319
10.823
10.8833
10.6567
10.3382
9.59088
9.78423
9.78549
10.7472
10.6398
10.406
10.8471
10.8751
9.76853
10.8742
10.8565
10.8232
10.1662
10.8688
10.4601
9.84196
10.0538
10.5651
10.615
10.4301
10.5479
10.3843
10.8153
9.87559
9.8053
10.646
10.8513
10.7735
10.3426
10.3171
10.8191
10.9413
10.6604
10.1423
10.8049
10.838
10.6392
10.899
10.8703
10.7323
9.69664
10.238
9.73632
10.6382
10.8571
10.2444
9.80892
10.9089
9.90135
10.2728
10.0601
10.3729
9.79902
10.7749
10.7245
10.6673
10.4457
10.0317
10.9281
9.88692
10.6257
10.4305
10.6815
9.84744
10.8245
10.8081
9.71985
10.0832
10.4115
10.3361
10.5874
9.52059
10.8276
10.2207
10.6954
10.1368
10.2319
10.2246
9.62703
10.8192
10.2707
7.75669
9.80776
10.4546
10.8763
10.782
10.0117
9.88322
10.7353
9.76275
10.8413
10.8855
10.5253
10.0262
10.8056
9.7102
9.81431
9.65704
10.7979
10.6852
10.2039
10.8237
10.5864
10.7615
9.89211
9.39584
10.873
10.6838
10.9012
10.8756
9.8087
10.7344
10.4839
10.5119
10.7191
10.1581
10.2418
11.0631
10.7787
10.2243
9.86846
10.6077
10.6848
10.6704
10.2918
9.72927
9.91164
10.5409
10.6258
10.5229
10.8966
10.1422
10.7765
10.2942
10.6199
9.46852
10.8793
10.5639
10.4485
10.94
10.6974
10.0039
10.3372
9.52347
10.8613
10.4246
10.6937
10.6507
10.72
10.708
10.9341
10.5051
7.81243
9.87721
10.8844
8.35924
10.348
10.8577
10.7353
10.8588
10.4217
9.98937
9.99851
10.9461
9.56034
10.8857
9.89615
9.52324
10.8484
9.93855
10.8696
7.93227
9.68017
10.6083
10.8877
10.9066
10.5269
10.8345
10.7449
10.75
10.7739
10.7191
10.6348
10.6512
9.45038
10.8054
10.6613
10.5858
10.8934
10.8138
10.8468
9.97204
10.8951
10.8275
10.0917
9.97776
9.69552
10.841
10.725
10.8641
10.902
10.8215
10.7506
9.57836
10.6646
10.3393
10.2981
10.672
9.78625
9.69357
10.5665
10.996
10.7684
10.6638
9.83235
10.5568
10.2797
9.83033
10.8752
10.6665
8.67169
9.29589
9.71018
9.87097
10.8537
10.7619
10.7732
10.1213
9.81036
10.8106
10.9007
9.56314
10.8782
10.0303
10.9237
10.629
10.8213
10.8062
10.7502
10.796
10.7071
10.2675
9.85057
10.1413
10.8132
10.3785
9.9596
10.6195
10.7813
9.76384
10.3448
9.95205
10.8565
10.616
10.6757
9.0248
10.9224
10.8666
10.3183
10.7766
10.5575
10.6603
10.9056
10.4815
10.7398
10.9241
10.7284
9.85961
9.82481
10.9422
10.4516
9.83805
10.0675
10.8086
10.9421
10.8251
10.8729
10.9137
10.8307
10.7744
10.6677
10.4671
10.7783
9.90822
10.4224
10.7943
10.2504
10.0513
9.95481
10.7656
10.9584
9.83616
10.6415
10.813
9.89382
10.9002
9.47513
9.85282
9.89948
10.9797
9.92627
9.72296
9.97773
10.336
10.7712
9.72979
9.93831
10.3975
10.5302
9.49637
10.6963
9.92992
10.01
10.7959
10.0466
9.727
10.8377
10.5852
10.1804
9.80755
10.7023
10.1496
9.62266
10.8864
10.7279
10.8163
10.4321
9.91057
9.75619
10.6785
10.3361
10.8782
10.4234
10.8413
10.0609
10.6624
10.6823
10.8469
9.34778
9.86124
10.1066
10.8795
9.98684
10.6948
8.84373
10.0212
10.775
10.2271
10.7461
9.9233
10.684
10.6801
10.6448
9.91617
10.7376
11.0033
10.2282
10.7185
10.4844
10.7778
9.98866
9.81759
10.7647
9.80658
9.40905
9.50986
10.2233
10.1007
9.48438
10.8412
10.4355
9.62722
10.5946
10.8983
10.7301
9.673
10.8815
10.8216
9.77236
10.3761
10.6411
10.0873
10.6722
10.6954
10.7123
9.70842
9.62218
10.6895
9.8778
9.69012
9.43894
9.8242
10.6163
9.97685
10.8437
10.6607
10.758
10.0467
10.8678
10.4673
10.4672
10.0393
7.87047
10.9284
9.85637
10.4371
10.7463
10.8573
9.44364
10.7691
10.9508
9.85269
10.4215
10.351
9.93942
9.6792
10.5224
10.1501
10.5384
10.8946
10.6444
10.8865
10.5169
10.4842
10.1346
9.53329
9.87145
10.7581
9.68156
10.6165
10.1786
9.53333
10.127
10.8411
9.63648
8.26048
10.1825
10.7911
10.847
10.7687
8.01237
10.0177
10.8966
10.8055
10.8829
10.6751
9.6543
10.8829
9.66777
10.8015
10.1209
10.3191
10.5674
10.8446
9.8091
10.4297
9.55318
10.501
10.8426
10.8573
10.7205
9.85915
9.7102
10.5931
9.80289
10.4291
9.57476
10.1716
10.7431
10.8575
9.93613
10.857
9.99284
10.9724
9.90039
10.8747
10.6914
10.7528
10.3837
9.93744
10.113
11.0299
10.288
10.6809
10.6926
9.98981
10.5632
10.8611
10.131
10.3575
10.1143
10.1004
10.4891
10.807
9.31586
10.9042
9.53501
10.6262
10.7696
9.68846
10.6242
10.7371
10.1922
10.3988
10.4213
10.3489
9.55182
10.7576
9.60749
10.6007
8.48583
10.7759
9.75102
10.0717
10.4534
9.72939
10.1442
10.8876
10.7128
10.5036
10.8621
9.85416
10.7763
9.87192
10.6538
10.3057
10.6107
10.669
10.7444
9.55786
9.57987
10.8758
10.7184
10.7703
9.49983
10.9305
10.9869
10.8125
10.7898
10.4239
9.82828
10.6578
10.0357
10.3112
10.819
10.5724
10.1394
10.7082
10.6577
10.6931
10.0131
9.92204
9.83005
9.4942
10.9265
10.7164
10.1815
10.8554
10.7419
9.95943
10.9027
9.60241
9.97172
9.71779
9.91772
10.8899
10.7563
9.15882
10.8796
9.54062
10.7176
10.6894
10.7171
10.8572
10.672
10.7758
10.1844
10.5794
10.5582
10.8434
9.59913
9.9456
10.5518
9.67384
10.0809
9.43443
10.1932
10.7666
10.2473
9.05839
9.16512
9.55962
10.1482
10.2381
10.406
10.5954
10.7467
9.28699
10.3664
10.1044
10.3001
9.63577
10.4076
9.6012
8.98303
10.0778
9.97742
10.0925
9.95115
10.2205
10.3071
9.91689
10.8501
9.63197
10.7089
10.3407
10.5673
10.3829
9.78008
10.4778
10.6664
9.70646
10.3926
10.5922
10.8974
10.6833
10.3865
10.7924
10.7735
10.679
10.7587
9.83073
10.8478
10.9693
10.7505
10.7881
10.802
10.7564
8.9418
9.82406
10.7741
10.3738
10.2456
10.8784
9.74408
9.77338
9.21301
10.7532
10.1702
10.6156
10.8795
9.17921
10.827
9.69288
10.8961
10.7707
10.9451
10.9593
9.24273
10.7706
10.8856
10.5573
9.13395
10.3612
9.94102
9.36935
10.6923
9.57614
10.5739
10.8327
10.1977
10.5507
9.72785
9.6956
10.8702
10.725
10.3231
10.4676
10.4205
10.6636
10.832
10.9047
10.1131
8.09747
10.2566
9.56937
10.1702
10.1166
10.8972
10.8315
9.96172
10.7242
9.62837
9.17551
10.5384
9.62054
10.7989
10.6397
9.5912
9.52209
10.4112
10.8728
10.6473
10.8422
10.5319
8.94458
9.10063
9.87916
9.88953
10.8455
9.48543
10.6784
10.553
9.64761
9.78865
9.51464
10.7981
9.36436
10.461
9.98544
10.3099
10.7075
10.9186
9.86623
9.70373
10.434
10.2454
9.88725
9.70372
9.88411
9.77579
9.78967
9.39143
10.3863
10.3445
9.13612
10.7057
9.19836
10.2579
9.67507
9.69393
9.65132
10.4608
10.5343
10.3863
10.6769
9.64351
9.3958
10.3869
10.8741
9.6282
10.8334
10.7263
10.605
9.84686
10.2363
10.7402
9.92967
10.2973
10.2987
10.6278
10.3089
9.97953
9.54466
10.8742
8.98108
8.80252
8.65942
10.5649
10.777
10.0228
9.69704
10.704
9.07222
10.7848
10.3029
9.88868
10.2001
10.4972
10.9593
9.30873
10.631
10.8239
9.12399
9.1555
10.0964
10.2299
9.38088
10.3966
9.96553
10.4051
10.2787
10.78
9.98101
10.0665
10.4986
10.5574
10.4625
10.5622
10.1403
10.3818
9.48789
10.4697
10.1277
10.516
8.69805
10.0837
8.57095
9.30645
10.7392
10.4769
9.55871
9.81114
10.5263
9.35468
9.81276
10.8004
9.75324
9.68497
10.2406
9.79469
9.97331
9.66073
10.5409
9.53611
8.73004
10.399
9.65267
9.53571
10.8701
9.01885
10.5559
10.7595
10.7867
9.2776
10.046
9.36977
10.4936
10.9246
10.2622
10.357
8.22994
9.98264
10.2962
9.64433
10.6002
10.3937
10.0614
9.66873
9.20425
9.72837
9.3144
9.3285
9.60698
10.186
10.4916
8.98675
10.1346
9.71754
9.91845
10.6906
10.2593
9.3788
10.4618
10.6696
10.8305
8.00774
10.815
10.2091
10.5878
9.50757
8.33552
10.562
10.0646
9.04559
10.5431
9.71255
10.2968
10.3035
9.74746
9.5968
10.5076
9.96892
9.96805
10.6447
9.95647
9.82732
10.0099
9.31343
9.76121
9.79116
10.5286
10.5253
10.8024
9.99246
10.8407
8.83393
9.6853
10.5651
9.99751
7.87209
10.3847
10.0885
9.02891
8.61153
9.82766
10.5811
10.6064
10.4562
9.00963
10.7669
10.1064
10.8037
9.42681
10.0296
9.59198
10.0352
9.87858
10.0638
9.31374
10.8806
10.4095
9.62805
10.0921
9.04554
9.97521
10.3466
10.7491
9.55309
9.94759
10.0765
9.53305
10.6202
10.2398
8.98812
10.8083
10.9044
9.98232
10.7069
10.2345
8.61568
10.7651
9.48813
10.8148
10.8283
10.3253
10.7632
10.4569
10.1907
10.6685
9.94249
9.47
9.80585
10.798
10.7118
9.88338
10.4541
8.70628
9.75614
10.7941
10.2236
9.33221
9.21389
10.8599
10.2592
8.9731
10.4773
8.79617
8.65345
10.4795
9.87398
10.5595
9.89784
9.60481
10.6644
9.95768
9.42701
9.79875
7.99879
10.0866
10.1706
9.71412
9.32829
10.5073
9.787
10.4896
9.44879
8.21637
9.53007
9.58356
9.63157
10.7198
10.5826
10.323
8.82796
9.71653
9.58856
9.11706
9.58795
9.90012
9.92534
9.7714
9.59773
8.64715
9.2198
10.6298
10.924
9.6922
10.6496
9.22384
9.44216
9.41548
9.83784
9.9484
10.3121
10.0229
10.6867
10.75
10.3489
10.5105
9.57619
10.5912
9.36735
9.80404
10.7882
7.74133
9.90344
10.8403
9.42474
9.99391
10.1672
10.397
9.9987
9.72426
10.4331
10.6503
9.96925
10.6089
10.2527
9.66588
9.24413
10.7448
9.8536
9.98568
9.5837
9.73803
9.93904
9.70563
10.1997
10.0042
10.2041
8.67287
10.3827
10.5622
8.52656
9.57908
10.777
9.68697
9.97219
10.4241
10.2597
10.7934
8.25482
10.8124
10.6909
9.35674
9.39706
8.72324
10.0075
9.35062
8.44904
10.8093
9.5672
10.003
8.75279
9.70937
9.39289
9.98217
10.401
9.71999
9.88875
10.1301
10.1249
9.78079
9.48406
9.70213
9.72912
9.32116
9.84836
9.1255
9.77922
9.33314
9.72065
9.24027
10.5003
9.79022
10.2266
9.47071
9.8577
9.29538
9.34776
10.5902
10.7407
9.41067
10.7151
9.08141
10.6189
10.1022
10.908
9.44919
10.4053
10.0858
9.98056
9.80257
9.17022
9.55398
9.73384
9.87051
10.1568
9.52443
9.40843
9.21033
9.48544
9.96597
10.2487
8.59889
10.83
9.88787
9.64759
9.2956
9.34742
9.56141
7.97663
10.2708
10.8398
10.2734
10.9077
10.842
9.95098
10.6431
9.89442
8.11561
10.6456
10.674
10.6232
9.76778
9.1476
8.6168
9.87033
10.5016
10.0331
9.375
9.89146
10.1906
9.47421
9.89464
9.64569
10.5044
10.7127
9.55142
9.01866
9.67148
8.97536
10.7239
10.6621
10.8365
9.73487
9.1777
10.615
9.97116
9.5603
10.0109
8.94522
9.27306
10.2527
9.62639
9.54498
10.7229
10.5992
8.83444
9.81127
10.0363
10.0239
9.45043
10.6798
9.72184
10.5327
9.68873
10.4651
9.27528
8.83555
8.86776
10.3238
10.0607
10.1625
9.68073
9.54814
9.93242
10.0343
9.71472
10.6545
9.16522
10.7587
10.0272
9.79789
8.85292
9.59435
10.813
10.0491
9.1225
9.55034
10.0866
10.5734
10.2709
10.1325
10.4641
10.4087
9.88822
8.89734
7.76984
9.82203
9.52878
9.79729
9.41507
10.7264
9.09564
9.55585
9.42619
10.7979
10.5459
9.75025
9.36301
10.4133
10.2972
10.0987
10.162
9.73828
8.40722
10.0743
9.79919
9.81362
8.90321
9.9287
8.78815
9.6312
10.1327
10.3334
9.39502
10.0502
10.2349
9.84821
10.3889
9.5431
9.36622
9.40025
10.9532
10.8231
9.81551
9.91824
10.8009
8.55769
10.4109
9.39578
8.9661
10.5905
10.3769
11.0158
10.4594
9.51062
10.5497
10.187
9.3153
10.7237
9.71496
9.22419
9.84562
9.96616
9.24848
9.41788
9.15819
10.0781
8.90966
9.45921
10.3938
10.312
10.4555
9.99415
9.28763
10.2687
10.2419
10.0366
9.7075
9.99555
10.4567
10.1406
9.91981
9.56326
10.5314
9.96846
9.98157
9.55489
8.13136
9.50882
10.0419
9.17017
10.8825
9.13426
9.26498
10.0289
9.41993
9.09131
9.60159
8.59262
9.95194
9.79782
10.5175
9.76395
9.10112
10.8778
10.2407
9.31878
8.66684
9.62002
10.0007
8.45786
10.5241
8.6688
8.38397
8.15477
9.05548
9.02243
9.95093
7.94149
10.2437
9.10584
10.7596
10.8107
10.4013
9.91618
9.39957
9.86189
8.99111
10.1427
8.23498
9.58262
10.607
10.8024
10.144
9.6146
9.89788
9.84483
7.80404
10.1138
9.93066
8.89697
10.7282
10.4122
9.73963
10.158
8.40254
10.2286
9.08664
9.22765
10.0099
10.0925
10.0555
10.1768
8.49609
9.57698
10.1869
9.61544