/*--------------------------------*- C++ -*----------------------------------*\
| =========                 |                                                 |
| \\      /  F ield         | OpenFOAM: The Open Source CFD Toolbox           |
|  \\    /   O peration     | Version:  2212                                  |
|   \\  /    A nd           | Website:  www.openfoam.com                      |
|    \\/     M anipulation  |                                                 |
\*---------------------------------------------------------------------------*/
FoamFile
{
    version     2.0;
    format      ascii;
    arch        "LSB;label=32;scalar=64";
    class       volScalarField;
    location    "0.008";
    object      k;
}
// * * * * * * * * * * * * * * * * * * * * * * * * * * * * * * * * * * * * * //

dimensions      [0 2 -2 0 0 0 0];

internalField   nonuniform List<scalar> 
31639
(
0.103574
0.104875
0.10701
0.109421
0.100519
0.103051
0.0995007
0.104827
0.103017
0.109035
0.108775
0.108127
0.106233
0.108921
0.103665
0.0971797
0.10324
0.0986411
0.0954444
0.105243
0.0910052
0.105283
0.108989
0.0962685
0.0963416
0.10257
0.105837
0.0915988
0.099675
0.108374
0.10877
0.0983249
0.108833
0.0959755
0.0923494
0.108685
0.087415
0.109631
0.109137
0.0863289
0.0932275
0.0911456
0.108869
0.106484
0.108193
0.109114
0.103074
0.098293
0.103131
0.10919
0.108352
0.0857169
0.109226
0.0896091
0.0974051
0.103127
0.0896966
0.105469
0.105191
0.0891327
0.101281
0.104407
0.0953403
0.1043
0.102903
0.108696
0.101257
0.105655
0.0942546
0.108951
0.109748
0.0994463
0.107591
0.105184
0.109511
0.0918211
0.109189
0.0993204
0.104368
0.106466
0.0958002
0.086633
0.110005
0.106613
0.106543
0.109085
0.109148
0.109592
0.0899967
0.110528
0.106555
0.0993582
0.0899659
0.104335
0.0933241
0.102899
0.100382
0.105652
0.105889
0.0910618
0.109893
0.109032
0.104113
0.0884825
0.0900242
0.108997
0.0889982
0.0869614
0.094709
0.0902734
0.106214
0.0916075
0.104193
0.0972542
0.105713
0.088867
0.0997532
0.0994383
0.109164
0.1046
0.104451
0.107907
0.106847
0.1024
0.101702
0.10866
0.10471
0.0949472
0.0946675
0.108309
0.10855
0.106647
0.107419
0.0985632
0.104516
0.106064
0.0893825
0.089433
0.107847
0.105523
0.104706
0.108085
0.109111
0.0875306
0.0876746
0.109073
0.107344
0.0906083
0.0911715
0.109111
0.0935181
0.105263
0.0954144
0.104452
0.0905101
0.109003
0.0996381
0.0944629
0.0906365
0.0960202
0.10912
0.0913279
0.0936603
0.0896033
0.0916398
0.102343
0.0918888
0.10858
0.107959
0.0878638
0.0983325
0.102853
0.0920161
0.106258
0.109636
0.107463
0.10639
0.108827
0.106492
0.105706
0.104572
0.097648
0.102357
0.0873404
0.103139
0.109482
0.100988
0.108632
0.0910886
0.0889113
0.108542
0.1051
0.102653
0.10467
0.104719
0.0969894
0.0978196
0.10784
0.0883764
0.0982952
0.107554
0.109492
0.104589
0.105001
0.101426
0.105037
0.103173
0.104574
0.108002
0.0867675
0.104547
0.0987748
0.106081
0.105873
0.103136
0.108275
0.0925947
0.098129
0.108844
0.107645
0.107567
0.100435
0.0884202
0.106406
0.089391
0.102084
0.108904
0.0963036
0.0910336
0.104022
0.104251
0.109464
0.091133
0.0898607
0.102061
0.102616
0.0890166
0.106579
0.0951577
0.0880356
0.104469
0.101928
0.103181
0.096526
0.0961651
0.103045
0.103707
0.101902
0.0897216
0.104726
0.101482
0.0922152
0.09674
0.108771
0.107956
0.0982593
0.0923762
0.107713
0.106388
0.0991107
0.109352
0.108812
0.10525
0.10897
0.103689
0.101215
0.0892506
0.0960741
0.106422
0.102833
0.104222
0.0965563
0.100901
0.106819
0.108999
0.105439
0.0900836
0.0982271
0.0937936
0.108013
0.0995888
0.109048
0.108806
0.0974855
0.0911221
0.0952696
0.0906361
0.0891736
0.107849
0.0922743
0.108378
0.102952
0.0968356
0.0940186
0.109006
0.0979082
0.0962524
0.105432
0.101266
0.0960503
0.104299
0.090804
0.105015
0.104118
0.0914874
0.0989061
0.103705
0.0847964
0.0885057
0.108106
0.109833
0.108389
0.0901461
0.0932267
0.107745
0.0939705
0.0943592
0.108875
0.109003
0.103095
0.108558
0.109392
0.0914773
0.110776
0.0877704
0.0898956
0.108339
0.106774
0.10786
0.108429
0.103169
0.0927524
0.102499
0.103924
0.108907
0.109217
0.109777
0.10398
0.101047
0.106339
0.107969
0.102119
0.10098
0.0994562
0.104208
0.0979299
0.106491
0.101741
0.0917153
0.105168
0.111091
0.0975889
0.108242
0.106651
0.104309
0.0907341
0.104323
0.104071
0.0900417
0.109101
0.0912576
0.100891
0.109401
0.0879527
0.105304
0.104307
0.0905871
0.1009
0.0923343
0.097967
0.108642
0.103557
0.0879924
0.103399
0.0923348
0.103425
0.108282
0.108642
0.109862
0.0921725
0.10593
0.0902979
0.103381
0.0882156
0.108076
0.108161
0.10945
0.10877
0.0956817
0.106133
0.105295
0.106613
0.10437
0.0926847
0.100381
0.101898
0.104986
0.103882
0.101856
0.104082
0.0984424
0.0911426
0.101664
0.106871
0.107347
0.0877006
0.108921
0.107685
0.10414
0.10575
0.106951
0.0997251
0.107806
0.0922301
0.103008
0.107872
0.088825
0.101896
0.106953
0.0928172
0.0879574
0.0906073
0.0993557
0.0910727
0.105752
0.105427
0.0981081
0.10874
0.0918168
0.107987
0.109061
0.104689
0.102747
0.0991726
0.109014
0.105006
0.102095
0.108624
0.105774
0.0897151
0.104985
0.108976
0.10908
0.103963
0.109311
0.102096
0.102495
0.105983
0.108141
0.10829
0.0910322
0.104937
0.0859634
0.0994098
0.103412
0.0908935
0.0899456
0.0983838
0.102606
0.105698
0.089611
0.103452
0.0969142
0.104137
0.104094
0.0871107
0.103855
0.0886934
0.102929
0.108561
0.110495
0.106898
0.0989526
0.0897926
0.103326
0.104682
0.108422
0.089533
0.0904878
0.103856
0.0909756
0.0924497
0.102487
0.0894991
0.0979685
0.0918947
0.103045
0.0906981
0.1089
0.108163
0.108926
0.107557
0.0968006
0.109389
0.109247
0.102028
0.104746
0.106
0.109074
0.108777
0.0973107
0.107246
0.109664
0.104323
0.0932754
0.109133
0.105375
0.0858541
0.0892485
0.105532
0.109616
0.108683
0.102028
0.108068
0.108512
0.108234
0.106135
0.0989891
0.101231
0.0923463
0.103844
0.103233
0.109027
0.0951357
0.0944416
0.0926012
0.100628
0.103804
0.0854925
0.10375
0.0966766
0.101853
0.0984598
0.105921
0.1004
0.0916908
0.106393
0.107187
0.0929707
0.103538
0.110115
0.106007
0.103771
0.0930191
0.0938203
0.104974
0.105575
0.0918648
0.0899285
0.105869
0.0972379
0.103564
0.0957827
0.0991837
0.109092
0.104449
0.0900644
0.0971704
0.105386
0.108619
0.0901003
0.0855666
0.108092
0.0894563
0.106821
0.108405
0.0905994
0.105574
0.107158
0.101666
0.0909507
0.109775
0.101465
0.0912135
0.109603
0.106537
0.102352
0.107032
0.0862231
0.0943641
0.103639
0.097582
0.09674
0.102177
0.107646
0.109186
0.106052
0.107063
0.10799
0.101683
0.0964754
0.106889
0.108183
0.111874
0.0954754
0.10583
0.101388
0.110982
0.0924247
0.087272
0.108672
0.0930299
0.109014
0.102672
0.0892346
0.0979791
0.108643
0.101064
0.10429
0.0889104
0.105249
0.100468
0.0886101
0.108675
0.107755
0.0911151
0.0923458
0.0931833
0.0996272
0.105402
0.105504
0.10453
0.104966
0.107891
0.105582
0.104613
0.09256
0.108486
0.0903326
0.105179
0.100011
0.0994714
0.111301
0.104494
0.0943972
0.0877822
0.091998
0.0993797
0.108545
0.0923243
0.10864
0.100253
0.108067
0.0905637
0.102789
0.10713
0.109073
0.108558
0.107119
0.106603
0.1012
0.109783
0.109259
0.109426
0.0962569
0.106052
0.0905082
0.109772
0.106408
0.104141
0.0924643
0.102663
0.0869174
0.107384
0.101307
0.108761
0.10436
0.102019
0.0910477
0.108737
0.0885148
0.0869784
0.093996
0.0953148
0.0901344
0.10494
0.0894759
0.105105
0.102024
0.085841
0.108899
0.0914287
0.0944118
0.102864
0.0959648
0.104637
0.107729
0.108997
0.108245
0.096109
0.104251
0.0975572
0.09896
0.0864037
0.0785575
0.10864
0.10441
0.10349
0.108623
0.0899629
0.109226
0.109335
0.107516
0.107629
0.10761
0.106713
0.109277
0.108945
0.105148
0.108606
0.105113
0.0916647
0.108696
0.0979759
0.107701
0.102217
0.104831
0.0949601
0.109409
0.10358
0.104677
0.100703
0.0929529
0.108603
0.101199
0.0966348
0.0904797
0.107596
0.0865912
0.107195
0.104928
0.102229
0.107442
0.109051
0.10753
0.0902383
0.104128
0.10135
0.106016
0.0916519
0.106474
0.103741
0.101739
0.10507
0.0998301
0.102408
0.098755
0.0987737
0.0872406
0.10796
0.10256
0.10865
0.0955045
0.104825
0.106286
0.104106
0.0961487
0.105178
0.10806
0.104363
0.0868174
0.0883443
0.103576
0.0871636
0.090778
0.106586
0.10677
0.107435
0.0862491
0.103808
0.108336
0.0901086
0.0869745
0.103955
0.0922845
0.104017
0.094401
0.108994
0.0967924
0.0962527
0.108294
0.0877016
0.103411
0.103498
0.107901
0.108921
0.108372
0.0928699
0.107428
0.108341
0.0986331
0.108832
0.10747
0.103924
0.108915
0.10518
0.110127
0.109108
0.109322
0.106646
0.0994016
0.105284
0.104686
0.0915847
0.102381
0.106626
0.108288
0.109038
0.103325
0.110244
0.107705
0.101581
0.104902
0.108951
0.105091
0.104231
0.0912246
0.0976043
0.110593
0.0869537
0.101091
0.103763
0.0983311
0.103125
0.107979
0.102875
0.108092
0.101731
0.103988
0.100332
0.107973
0.105422
0.0986073
0.0917583
0.108595
0.0924283
0.10256
0.0985734
0.10273
0.100748
0.109993
0.0917675
0.110191
0.092791
0.105971
0.0991432
0.104508
0.104404
0.107997
0.0912767
0.107829
0.108504
0.107233
0.106269
0.10362
0.0876266
0.109591
0.108867
0.106391
0.107794
0.109014
0.104826
0.101917
0.106136
0.0902808
0.0993271
0.108892
0.0902809
0.0954725
0.110743
0.109207
0.0952601
0.0971422
0.106651
0.0956563
0.103353
0.0919515
0.106873
0.107312
0.0865383
0.10157
0.10864
0.10445
0.107209
0.10285
0.108133
0.0927027
0.0921813
0.110162
0.109123
0.103902
0.0913233
0.103272
0.109911
0.0946302
0.109192
0.105253
0.106549
0.102408
0.107047
0.106102
0.105469
0.103488
0.0956336
0.0882017
0.101306
0.105976
0.0912376
0.108246
0.0880409
0.102877
0.0981423
0.0911057
0.103765
0.095722
0.105686
0.101271
0.105538
0.0907221
0.0915323
0.0986076
0.0906177
0.102495
0.108607
0.103666
0.109602
0.100572
0.104871
0.109813
0.0985201
0.101545
0.104393
0.1042
0.103056
0.0938866
0.105499
0.107346
0.10886
0.110776
0.0917811
0.0883619
0.103827
0.108793
0.0934885
0.103008
0.103004
0.104623
0.110483
0.0979892
0.103318
0.104074
0.0901304
0.109032
0.107275
0.0909705
0.0951612
0.104241
0.0974799
0.109262
0.109321
0.102516
0.0923194
0.109393
0.0890049
0.103797
0.107032
0.0975119
0.109379
0.0893908
0.104533
0.103389
0.104266
0.0901902
0.0884679
0.107288
0.109478
0.0977746
0.107847
0.10686
0.104269
0.0916364
0.0944747
0.1069
0.0997995
0.104795
0.109268
0.108537
0.109816
0.108092
0.101518
0.101862
0.107787
0.0920671
0.106287
0.107067
0.106037
0.106585
0.109906
0.100114
0.107957
0.10418
0.0878865
0.109669
0.0971623
0.109509
0.0977782
0.108502
0.0918171
0.10656
0.11053
0.103644
0.105952
0.091177
0.108441
0.109797
0.105705
0.0891303
0.112994
0.0999574
0.106144
0.107462
0.108217
0.107675
0.103757
0.0997235
0.109982
0.0920365
0.0936432
0.0924924
0.0942475
0.10681
0.0893466
0.109371
0.108988
0.107977
0.103407
0.0993044
0.105725
0.109909
0.105343
0.102625
0.109551
0.10738
0.100581
0.108172
0.104534
0.104316
0.105207
0.097897
0.108466
0.110536
0.108528
0.108641
0.10766
0.096782
0.111405
0.102366
0.103509
0.104078
0.106871
0.111043
0.105691
0.107704
0.0960445
0.104438
0.102761
0.0932636
0.0913774
0.104474
0.0997014
0.108913
0.0975913
0.0869382
0.102429
0.108332
0.0962351
0.0976914
0.105405
0.109406
0.108896
0.102643
0.0958742
0.105079
0.104873
0.0985526
0.103256
0.104857
0.0902993
0.0991894
0.0974707
0.103738
0.109072
0.104771
0.108552
0.104708
0.105939
0.103863
0.0899211
0.0918031
0.0898602
0.107662
0.105754
0.109497
0.112412
0.105245
0.0895529
0.107274
0.0993655
0.103166
0.103537
0.107493
0.0884175
0.109771
0.0909611
0.105255
0.102065
0.101222
0.109819
0.104453
0.107066
0.0911091
0.104809
0.102575
0.105169
0.0943564
0.0948135
0.106864
0.107375
0.102004
0.106386
0.109826
0.0907338
0.0994849
0.0987545
0.0948804
0.106273
0.10899
0.109714
0.107845
0.109177
0.0930906
0.0927001
0.0915106
0.111178
0.0922287
0.106804
0.101126
0.0921044
0.0985663
0.108726
0.109124
0.0957957
0.0985952
0.103232
0.10556
0.109188
0.102019
0.0909581
0.105497
0.108765
0.108179
0.10873
0.108638
0.111929
0.10901
0.10481
0.0935186
0.0909905
0.105075
0.0944331
0.109215
0.0921685
0.106426
0.0988076
0.10799
0.0938925
0.103862
0.108625
0.106834
0.0986026
0.0923053
0.108837
0.0989808
0.108272
0.101292
0.112838
0.109418
0.106007
0.0915122
0.0914761
0.103902
0.10168
0.0979644
0.11015
0.0924671
0.108149
0.105097
0.0983102
0.107028
0.109277
0.108329
0.108975
0.110925
0.106597
0.10174
0.089968
0.0955968
0.107961
0.0931561
0.103108
0.103925
0.0937589
0.10459
0.10595
0.104166
0.107129
0.108886
0.0931269
0.104224
0.105745
0.0916603
0.0971358
0.103467
0.0989226
0.104645
0.0923426
0.0913029
0.104666
0.0976747
0.108995
0.109735
0.10772
0.103331
0.103465
0.104918
0.101971
0.108425
0.0930674
0.105071
0.0986512
0.108662
0.104392
0.0996928
0.101751
0.108635
0.0926349
0.105335
0.108736
0.103206
0.0825573
0.0992697
0.0926976
0.102833
0.0891005
0.110593
0.109672
0.108522
0.107038
0.0939347
0.0900918
0.108648
0.110434
0.108347
0.105153
0.102099
0.108131
0.110543
0.107748
0.0905346
0.100974
0.105772
0.107052
0.0994769
0.10574
0.088844
0.108426
0.108279
0.101976
0.106011
0.103898
0.105477
0.109169
0.107565
0.0936956
0.104983
0.107193
0.104189
0.101643
0.103871
0.0897798
0.091328
0.108799
0.108894
0.108183
0.108626
0.106288
0.106854
0.101883
0.105727
0.106732
0.109018
0.0982004
0.0997376
0.102005
0.105606
0.108979
0.0887524
0.101559
0.0876217
0.10874
0.0885723
0.0918835
0.104522
0.0852297
0.100667
0.106085
0.10875
0.10799
0.0956279
0.101492
0.110023
0.0963033
0.0938714
0.100645
0.0952834
0.10861
0.106501
0.101507
0.0920817
0.10684
0.111285
0.108129
0.0911988
0.0940786
0.104185
0.108769
0.109036
0.0921366
0.0913924
0.10482
0.101759
0.109777
0.104321
0.088674
0.103493
0.108301
0.0914318
0.0880034
0.108984
0.0937986
0.0935747
0.10992
0.107712
0.107022
0.111164
0.10391
0.099799
0.10921
0.0969454
0.107238
0.096339
0.104211
0.106267
0.103763
0.0910785
0.10759
0.107659
0.0982904
0.104785
0.0990406
0.0945069
0.0993471
0.101752
0.104693
0.109441
0.097345
0.108022
0.0899375
0.107363
0.109283
0.0910308
0.1074
0.105878
0.084288
0.0910338
0.106082
0.104458
0.108143
0.0970046
0.0920322
0.108133
0.109174
0.108701
0.102476
0.108309
0.0892817
0.10962
0.105133
0.0912971
0.0911612
0.0845146
0.0899619
0.109087
0.0983057
0.107013
0.105394
0.0935543
0.0942333
0.0870825
0.0868455
0.111196
0.110104
0.093798
0.108779
0.104656
0.0928953
0.103305
0.101159
0.0940612
0.098655
0.108195
0.0946321
0.0895887
0.107696
0.111066
0.0957427
0.108382
0.101552
0.0944553
0.0918818
0.101384
0.0917819
0.0915686
0.106229
0.106711
0.0994449
0.107118
0.107982
0.104052
0.109557
0.0821358
0.101088
0.090134
0.10535
0.108505
0.104355
0.0969967
0.10484
0.0915946
0.107271
0.104227
0.0963568
0.0927384
0.0871905
0.086929
0.0970746
0.0899412
0.100055
0.0906121
0.0993297
0.10671
0.103896
0.099605
0.106485
0.104133
0.105107
0.107198
0.0893723
0.100292
0.108927
0.108865
0.103748
0.110318
0.0936166
0.107433
0.104316
0.0901736
0.104344
0.10932
0.103491
0.107858
0.108772
0.103103
0.0858429
0.0860742
0.10374
0.109588
0.102785
0.107761
0.0976411
0.0990409
0.0928949
0.0890103
0.0880836
0.0896213
0.105286
0.106635
0.109641
0.101584
0.0987559
0.109127
0.0896
0.105502
0.108224
0.1093
0.101984
0.102299
0.108775
0.111325
0.108292
0.0938565
0.100569
0.107755
0.103535
0.105838
0.111254
0.107128
0.109799
0.105723
0.0952141
0.105018
0.108213
0.105677
0.105951
0.0901442
0.108165
0.108487
0.10963
0.108276
0.0894178
0.0871797
0.103869
0.104962
0.101204
0.105907
0.10783
0.107486
0.107458
0.0971864
0.103926
0.104805
0.107614
0.0917413
0.0916383
0.101291
0.106321
0.0922123
0.109627
0.0915652
0.0974685
0.105615
0.107953
0.0986694
0.108271
0.10668
0.107593
0.103058
0.105248
0.106001
0.0979649
0.0867326
0.109018
0.0871974
0.0900065
0.093412
0.0887762
0.0889199
0.0978294
0.106013
0.0901382
0.0974834
0.0839608
0.0932892
0.103614
0.109278
0.0875521
0.0916394
0.107992
0.0884451
0.0984705
0.106479
0.10237
0.105418
0.0928883
0.0905638
0.0975105
0.108483
0.095345
0.0920439
0.101375
0.0976238
0.106064
0.104231
0.0925209
0.108576
0.0895181
0.0915456
0.100261
0.107913
0.0972002
0.099863
0.100957
0.105473
0.0874575
0.0944214
0.103673
0.109224
0.106401
0.0899801
0.0867585
0.0997466
0.109221
0.104399
0.104541
0.0983236
0.101844
0.104699
0.0900692
0.109272
0.0959534
0.0907084
0.0876508
0.108588
0.104055
0.109223
0.101521
0.108472
0.0891702
0.100847
0.0875776
0.0874316
0.106362
0.0926316
0.0997337
0.105736
0.106361
0.0914432
0.109341
0.108205
0.109258
0.103203
0.0845426
0.105937
0.0862106
0.109503
0.0914455
0.108847
0.0859447
0.106637
0.105075
0.0978213
0.0988211
0.0852509
0.0953995
0.10495
0.107688
0.103354
0.109223
0.109188
0.090234
0.109136
0.0980248
0.106734
0.106287
0.1088
0.105305
0.105078
0.108747
0.0986392
0.0940754
0.0938014
0.106303
0.110037
0.0926375
0.0950976
0.107343
0.104053
0.105197
0.112068
0.107467
0.102757
0.106402
0.107375
0.108534
0.102944
0.102112
0.108709
0.106153
0.0943257
0.103684
0.0959034
0.110241
0.106078
0.108272
0.0918329
0.0919477
0.10512
0.108195
0.107871
0.108745
0.109987
0.101728
0.103122
0.092189
0.100998
0.106106
0.107748
0.109633
0.109508
0.0995528
0.108964
0.0934684
0.107731
0.0963463
0.104148
0.0974196
0.105529
0.101808
0.108577
0.091437
0.109376
0.108934
0.0994935
0.0915885
0.112024
0.103384
0.108301
0.105203
0.105966
0.104643
0.089476
0.108998
0.100011
0.106226
0.0933959
0.0944526
0.0951118
0.0889971
0.0956364
0.109241
0.104892
0.0883672
0.105001
0.0902532
0.101518
0.106226
0.0860903
0.0898914
0.0959794
0.100669
0.10534
0.0969627
0.107419
0.0991993
0.0944064
0.095914
0.108537
0.108883
0.109165
0.10757
0.106236
0.0906216
0.0893759
0.10827
0.0981978
0.101194
0.108674
0.111286
0.105278
0.105759
0.0878875
0.107866
0.109745
0.097972
0.108269
0.10802
0.105953
0.1027
0.104902
0.0978241
0.0892675
0.105638
0.0913777
0.0896584
0.100645
0.105237
0.106682
0.107245
0.105904
0.106577
0.0871682
0.0974511
0.110045
0.109858
0.0904717
0.101134
0.0923969
0.101977
0.108921
0.0986258
0.103217
0.108863
0.102033
0.0890753
0.108418
0.0895659
0.107708
0.106949
0.106772
0.108918
0.10666
0.108491
0.0903059
0.108732
0.1091
0.0934018
0.107438
0.104575
0.0996017
0.108688
0.100563
0.107722
0.10952
0.108746
0.105917
0.108962
0.10519
0.103878
0.094325
0.101281
0.0908844
0.0879603
0.100997
0.107187
0.104734
0.109557
0.103678
0.108732
0.0878806
0.10935
0.109995
0.107642
0.107463
0.0930732
0.0886439
0.104818
0.0887088
0.107385
0.105671
0.0870766
0.0985828
0.108511
0.106898
0.0865532
0.09464
0.0869833
0.109396
0.0903408
0.107649
0.100117
0.0910916
0.107189
0.108289
0.11021
0.107512
0.0906824
0.10295
0.110003
0.0928145
0.108611
0.106024
0.107684
0.0893391
0.106756
0.0988557
0.104719
0.0989909
0.103601
0.0973664
0.0984321
0.0997691
0.0979878
0.106856
0.104172
0.108893
0.0951949
0.104368
0.106268
0.10823
0.107859
0.0917272
0.107205
0.0910225
0.10273
0.109862
0.109835
0.101543
0.100199
0.106787
0.0973312
0.103529
0.100566
0.0913291
0.0898401
0.106635
0.109476
0.101756
0.0983523
0.109563
0.0904943
0.106937
0.0913978
0.102809
0.109471
0.105489
0.0892792
0.109258
0.0904885
0.107102
0.106347
0.0894896
0.108551
0.0929829
0.0967507
0.0997172
0.0874963
0.0949919
0.10173
0.0859278
0.107213
0.110432
0.0874895
0.0956207
0.108263
0.104741
0.106342
0.110419
0.107951
0.10429
0.0940245
0.0896343
0.0859844
0.0922537
0.109275
0.107315
0.102971
0.105623
0.0902942
0.090704
0.103708
0.107263
0.0853849
0.105354
0.105119
0.100569
0.10728
0.102117
0.108991
0.0947536
0.0992884
0.110696
0.084744
0.104444
0.108955
0.109177
0.103011
0.108303
0.106477
0.089612
0.110088
0.110004
0.104321
0.106204
0.102181
0.104507
0.107213
0.104689
0.105986
0.105109
0.102706
0.0894977
0.0987183
0.109977
0.106853
0.109871
0.106407
0.10228
0.109614
0.0924088
0.108676
0.090225
0.10929
0.103983
0.09757
0.109313
0.0972828
0.0995607
0.109711
0.0982619
0.11001
0.108687
0.10661
0.0920812
0.105685
0.104392
0.0957316
0.108781
0.103192
0.104148
0.110556
0.0903466
0.107747
0.105709
0.108078
0.0983072
0.105414
0.090872
0.0936192
0.11271
0.0909053
0.10597
0.108821
0.0915369
0.0999046
0.109459
0.095109
0.0935089
0.0941675
0.0983201
0.0978221
0.110709
0.0985718
0.109402
0.105718
0.109257
0.0895407
0.096444
0.108286
0.104846
0.0909485
0.0933113
0.0994203
0.0894946
0.0896254
0.104593
0.103473
0.108732
0.102724
0.108842
0.107971
0.106469
0.107876
0.104915
0.0955135
0.101108
0.107278
0.103699
0.101687
0.108879
0.104315
0.0889164
0.0889347
0.0993464
0.0926608
0.103656
0.10866
0.10049
0.105931
0.108399
0.107925
0.109972
0.100496
0.0920919
0.101621
0.0987612
0.109085
0.100666
0.106621
0.108601
0.0982191
0.0984144
0.106816
0.108994
0.107399
0.112351
0.106416
0.100461
0.101804
0.0946117
0.099394
0.109012
0.0944983
0.108424
0.102313
0.108446
0.0924146
0.107696
0.105729
0.108993
0.104783
0.102242
0.10507
0.10817
0.0894062
0.093285
0.104444
0.0972308
0.100767
0.105828
0.105474
0.1095
0.103633
0.0897533
0.0955059
0.0906048
0.10143
0.10546
0.0928423
0.110693
0.104715
0.0986226
0.104482
0.093303
0.0927359
0.109799
0.0920626
0.0874808
0.0951149
0.0957998
0.0926161
0.094036
0.109314
0.107988
0.0965715
0.107144
0.108504
0.104927
0.106047
0.0883571
0.109186
0.0757289
0.108288
0.0911807
0.0887873
0.107772
0.0885873
0.099697
0.10322
0.109045
0.097633
0.10477
0.0973429
0.104361
0.10252
0.102926
0.100281
0.106597
0.103873
0.0916901
0.107346
0.103054
0.100457
0.0977922
0.0927792
0.099234
0.0895649
0.0893564
0.105422
0.098577
0.0920421
0.0976352
0.107512
0.108359
0.106878
0.0786571
0.0906614
0.109792
0.0908717
0.10665
0.0888819
0.108844
0.107305
0.109963
0.0907926
0.100897
0.109575
0.109261
0.102987
0.109912
0.10404
0.103068
0.104003
0.0899145
0.102999
0.097018
0.105434
0.105065
0.0964296
0.103026
0.10833
0.0949972
0.0932028
0.0906443
0.106341
0.106653
0.0889196
0.105211
0.104795
0.104149
0.0920042
0.106083
0.0987955
0.108275
0.089772
0.0995932
0.104465
0.0874635
0.10842
0.0924336
0.093407
0.103112
0.109415
0.0865455
0.106959
0.107341
0.101189
0.0881303
0.109118
0.108659
0.0871327
0.104692
0.0860992
0.0933678
0.108781
0.0995094
0.1046
0.108719
0.109329
0.101807
0.096366
0.104158
0.100267
0.100226
0.0972266
0.107006
0.0899719
0.102734
0.0999792
0.0995851
0.107397
0.103099
0.106716
0.104908
0.10466
0.108907
0.10392
0.0992016
0.0959819
0.106286
0.101775
0.101445
0.106069
0.108516
0.103671
0.109266
0.101869
0.107193
0.0957959
0.0913807
0.104551
0.106752
0.0925784
0.103736
0.104111
0.0854042
0.0887305
0.10843
0.0890458
0.103502
0.10829
0.103367
0.0910491
0.104205
0.109209
0.0907079
0.0923769
0.092367
0.107984
0.10508
0.105299
0.111001
0.0896543
0.106831
0.104604
0.10897
0.109933
0.0772898
0.104448
0.105791
0.107653
0.102866
0.102412
0.0933028
0.107084
0.108829
0.094425
0.0886674
0.0981489
0.107507
0.105894
0.0905329
0.099271
0.107136
0.108616
0.103612
0.0994447
0.087484
0.0905742
0.0905613
0.105801
0.103017
0.100986
0.108462
0.108488
0.0907047
0.108084
0.107989
0.106857
0.0967543
0.108224
0.100916
0.0911108
0.0951475
0.103376
0.104415
0.0999089
0.102724
0.100088
0.107474
0.0915268
0.0904646
0.10343
0.108399
0.106804
0.0991333
0.0988973
0.107924
0.109753
0.102448
0.0966261
0.107333
0.108305
0.104376
0.108817
0.10839
0.105441
0.0890065
0.0974515
0.0895277
0.104335
0.108766
0.0978216
0.0902995
0.109536
0.092088
0.098138
0.0941951
0.100313
0.090077
0.106305
0.104839
0.103591
0.10123
0.0936252
0.109572
0.0921866
0.104013
0.101093
0.10394
0.0911743
0.107849
0.106687
0.0893747
0.094843
0.100648
0.0989483
0.10385
0.0863412
0.10686
0.0978215
0.104614
0.0960408
0.0972051
0.0972602
0.0878142
0.107851
0.0984392
0.0634128
0.0903047
0.101234
0.108478
0.106702
0.0933894
0.0920313
0.106297
0.0895831
0.107672
0.108787
0.102229
0.0931529
0.107279
0.0890235
0.0902908
0.0884354
0.106661
0.104211
0.0974124
0.1081
0.103428
0.105475
0.0923959
0.0846018
0.108715
0.10448
0.10934
0.108325
0.090782
0.104689
0.101535
0.101733
0.10469
0.0966821
0.0979132
0.112812
0.106138
0.0974172
0.0914722
0.103532
0.104398
0.104714
0.0985399
0.089303
0.0919442
0.102728
0.104337
0.101398
0.10857
0.0963276
0.106178
0.0987542
0.103651
0.0857572
0.109171
0.103265
0.101459
0.11004
0.104306
0.0938782
0.098641
0.0863337
0.107532
0.100142
0.104906
0.103637
0.106289
0.104756
0.109257
0.101902
0.0645588
0.091393
0.108631
0.0715192
0.0993034
0.108485
0.106257
0.108456
0.0997069
0.0931442
0.093751
0.110175
0.0868063
0.109029
0.0912158
0.0862934
0.107524
0.0924177
0.108247
0.0652955
0.0880757
0.104058
0.108641
0.108985
0.102112
0.107701
0.105815
0.105899
0.106754
0.106058
0.103206
0.103724
0.0853443
0.107806
0.103869
0.102224
0.109254
0.107679
0.107961
0.0936435
0.108836
0.106582
0.0958983
0.0931526
0.088838
0.107271
0.106234
0.108031
0.108766
0.107341
0.105369
0.0875246
0.104606
0.0991575
0.0987507
0.105137
0.0902623
0.0888262
0.101749
0.111431
0.105581
0.104443
0.0912632
0.101682
0.0988918
0.0912227
0.108737
0.103922
0.0758694
0.0833158
0.0891528
0.091768
0.108295
0.106699
0.106827
0.0951594
0.0903158
0.107536
0.108937
0.0868971
0.108968
0.0942259
0.109478
0.103586
0.107422
0.107791
0.10485
0.106297
0.104915
0.098472
0.0918925
0.0959711
0.10688
0.099998
0.0924005
0.104303
0.106104
0.0896019
0.0995341
0.092813
0.108379
0.103035
0.104644
0.0809508
0.109062
0.108484
0.0994067
0.106702
0.10185
0.103953
0.108849
0.101276
0.105447
0.109696
0.10507
0.0913299
0.0906881
0.110244
0.100969
0.0909279
0.0951014
0.107521
0.109478
0.107781
0.108781
0.109421
0.107888
0.106098
0.104111
0.100471
0.107127
0.0927299
0.100773
0.106837
0.0977533
0.0951819
0.0925588
0.105917
0.109261
0.0912404
0.103893
0.107119
0.092484
0.108697
0.0856518
0.0908547
0.0922812
0.11117
0.0922478
0.089455
0.09299
0.0985799
0.105774
0.0901161
0.0927223
0.100005
0.101943
0.0858601
0.10407
0.092126
0.0935988
0.106771
0.0941486
0.0894933
0.107763
0.103639
0.0971213
0.0905132
0.10393
0.0968929
0.0877112
0.109008
0.105427
0.107514
0.101054
0.0920033
0.0900176
0.104212
0.0995314
0.109019
0.100473
0.108157
0.0948214
0.103878
0.105615
0.108262
0.085503
0.0920082
0.095703
0.108155
0.0930263
0.104275
0.0777031
0.0941696
0.106083
0.097885
0.105923
0.0922966
0.104218
0.104342
0.10465
0.0915829
0.105515
0.111501
0.0977947
0.105669
0.101664
0.106569
0.0929759
0.0906477
0.105984
0.0903622
0.0849166
0.0860885
0.0974928
0.0957372
0.0854444
0.107954
0.100811
0.0876031
0.103954
0.108594
0.106282
0.0886485
0.109402
0.107482
0.0898975
0.100125
0.103172
0.0955011
0.104071
0.104162
0.105986
0.089245
0.0875787
0.104429
0.091512
0.0894231
0.0855376
0.0906029
0.10405
0.0929882
0.107287
0.103201
0.106914
0.0944329
0.108854
0.100888
0.101599
0.0938677
0.0644852
0.109585
0.0914118
0.101439
0.106398
0.108509
0.0850532
0.106717
0.109552
0.0908784
0.101051
0.0995446
0.0928282
0.0885594
0.102564
0.0966618
0.102733
0.108773
0.104787
0.108741
0.101098
0.101331
0.0960605
0.087776
0.091862
0.106016
0.0886387
0.104266
0.09677
0.0866204
0.0959277
0.107828
0.0878461
0.0711342
0.0967251
0.106269
0.108434
0.105844
0.0660745
0.0939994
0.109085
0.106603
0.10909
0.104427
0.0880994
0.108796
0.0881133
0.107521
0.0959243
0.0989051
0.102241
0.108359
0.0904571
0.100509
0.0867858
0.101602
0.107878
0.108447
0.106071
0.0917668
0.089382
0.103296
0.0903934
0.100964
0.0872366
0.0968216
0.105688
0.108601
0.0928683
0.108269
0.0941052
0.110688
0.0926492
0.108819
0.105476
0.105803
0.0997793
0.0938483
0.0958813
0.111886
0.0992931
0.10409
0.105576
0.0940137
0.103214
0.108399
0.0957944
0.0996275
0.0957852
0.0948226
0.102328
0.107266
0.0834529
0.108942
0.0866666
0.103746
0.107054
0.0884776
0.103319
0.106169
0.0971725
0.100202
0.100594
0.0992106
0.0869126
0.105473
0.087723
0.103309
0.0732678
0.106735
0.0906009
0.0952608
0.101658
0.0897814
0.0962161
0.109147
0.105315
0.102113
0.108396
0.0908466
0.106859
0.0912409
0.104351
0.0988755
0.104173
0.104884
0.105227
0.087053
0.0872491
0.108746
0.106014
0.106582
0.0860854
0.109463
0.111372
0.106905
0.107147
0.100519
0.0906661
0.104606
0.0947084
0.0982901
0.107153
0.103175
0.0965655
0.105119
0.103781
0.104619
0.0938503
0.0921294
0.0907069
0.0858791
0.109443
0.105396
0.0967268
0.107498
0.106086
0.0928853
0.109525
0.087639
0.0927392
0.0898845
0.0930031
0.108949
0.106612
0.0816267
0.108606
0.0865687
0.104824
0.104402
0.105523
0.108827
0.10507
0.106415
0.0971115
0.102825
0.102136
0.107762
0.0874119
0.0934345
0.103098
0.0884886
0.0954998
0.0850839
0.0973324
0.107096
0.0976891
0.0798796
0.0811927
0.0874568
0.0960468
0.0980941
0.0999503
0.103764
0.105246
0.0832032
0.0994411
0.0960616
0.0985077
0.0883191
0.100713
0.0871786
0.0793213
0.0952752
0.09382
0.0955853
0.0925756
0.0974255
0.0992312
0.0927617
0.108914
0.0880074
0.105866
0.0994038
0.102944
0.0999473
0.0901289
0.101679
0.104869
0.0888838
0.0998019
0.103631
0.109366
0.104985
0.10008
0.107349
0.107335
0.103996
0.105417
0.090603
0.10817
0.110858
0.106734
0.106202
0.107043
0.106404
0.0796823
0.0909449
0.106678
0.0999123
0.0979336
0.108233
0.0899863
0.0907848
0.0833876
0.107104
0.0967548
0.10419
0.108523
0.0811904
0.107878
0.0897981
0.10898
0.106937
0.109967
0.110158
0.0827398
0.106746
0.109384
0.102757
0.0808671
0.0991651
0.0931874
0.0845333
0.105116
0.0873275
0.10279
0.108636
0.0966155
0.102767
0.0892069
0.0894098
0.108064
0.106102
0.0984385
0.100841
0.100078
0.103959
0.107944
0.109297
0.0952004
0.0669781
0.0980132
0.0869825
0.09613
0.095283
0.108374
0.107296
0.093198
0.105342
0.0884186
0.0828269
0.102589
0.0883369
0.107561
0.103442
0.0874904
0.0864754
0.100987
0.10945
0.103834
0.108585
0.102513
0.0790988
0.0804309
0.0914848
0.0925555
0.107506
0.0859714
0.105261
0.102534
0.0880551
0.0902997
0.0863323
0.107491
0.0852722
0.101458
0.0929874
0.0987818
0.105665
0.109498
0.0911389
0.0889121
0.100701
0.0980936
0.0926973
0.0896434
0.0920395
0.0902261
0.0908211
0.084653
0.100138
0.0994909
0.0811963
0.105817
0.0821532
0.0981815
0.0885501
0.088716
0.088472
0.101518
0.102225
0.100145
0.1053
0.0887899
0.0846425
0.0998604
0.108721
0.0877351
0.107927
0.106053
0.104164
0.092078
0.0979158
0.106665
0.0922285
0.0988678
0.0991837
0.104244
0.0990725
0.0926063
0.0873203
0.108265
0.0802443
0.0767684
0.0757154
0.102716
0.107312
0.0946389
0.0890614
0.105357
0.0801666
0.106061
0.0990599
0.0925712
0.097128
0.101797
0.110625
0.0838112
0.103164
0.107504
0.0822496
0.0810088
0.0961447
0.0969502
0.0845846
0.0994452
0.0935841
0.100187
0.0980988
0.106455
0.0930527
0.0948208
0.102145
0.101759
0.101365
0.10225
0.0960343
0.100029
0.0870142
0.101487
0.0959615
0.102283
0.0755441
0.0945701
0.0743666
0.0846937
0.106595
0.100302
0.0875882
0.0905279
0.101577
0.0837071
0.0916556
0.107163
0.0898316
0.0896803
0.0979751
0.0912017