/*--------------------------------*- C++ -*----------------------------------*\
| =========                 |                                                 |
| \\      /  F ield         | OpenFOAM: The Open Source CFD Toolbox           |
|  \\    /   O peration     | Version:  2212                                  |
|   \\  /    A nd           | Website:  www.openfoam.com                      |
|    \\/     M anipulation  |                                                 |
\*---------------------------------------------------------------------------*/
FoamFile
{
    version     2.0;
    format      ascii;
    arch        "LSB;label=32;scalar=64";
    class       volScalarField;
    location    "0.008";
    object      nut;
}
// * * * * * * * * * * * * * * * * * * * * * * * * * * * * * * * * * * * * * //

dimensions      [0 2 -1 0 0 0 0];

internalField   nonuniform List<scalar> 
31639
(
9.10359e-05
9.2411e-05
9.49924e-05
9.87345e-05
8.71753e-05
8.98346e-05
8.60907e-05
9.27056e-05
9.05365e-05
9.80365e-05
9.76622e-05
9.67404e-05
9.42716e-05
9.814e-05
9.08461e-05
8.31385e-05
9.06688e-05
8.51069e-05
8.14404e-05
9.28101e-05
7.56451e-05
9.32106e-05
9.82676e-05
8.22271e-05
8.25509e-05
9.00877e-05
9.37797e-05
7.6826e-05
8.63868e-05
9.74215e-05
9.76587e-05
8.47327e-05
9.76874e-05
8.19673e-05
7.72496e-05
9.76552e-05
7.15335e-05
9.91436e-05
9.82932e-05
7.03793e-05
7.84651e-05
7.59295e-05
9.78341e-05
9.47222e-05
9.71803e-05
9.81922e-05
8.99268e-05
8.48124e-05
9.04513e-05
9.84342e-05
9.70325e-05
6.98469e-05
9.84458e-05
7.39954e-05
8.35992e-05
9.05006e-05
7.43117e-05
9.31944e-05
9.2723e-05
7.36556e-05
8.83153e-05
9.22179e-05
8.08667e-05
9.15528e-05
9.01364e-05
9.77478e-05
8.83509e-05
9.34912e-05
7.9409e-05
9.80423e-05
9.92225e-05
8.54853e-05
9.60487e-05
9.28912e-05
9.87688e-05
7.65535e-05
9.83914e-05
8.60531e-05
9.15675e-05
9.4577e-05
8.15501e-05
7.05515e-05
9.93496e-05
9.45924e-05
9.46716e-05
9.80391e-05
9.82813e-05
9.87957e-05
7.46722e-05
0.000100224
9.45939e-05
8.59408e-05
7.46051e-05
9.18126e-05
7.89126e-05
8.96315e-05
8.72926e-05
9.33473e-05
9.37764e-05
7.57445e-05
9.96647e-05
9.80189e-05
9.14202e-05
7.29164e-05
7.46476e-05
9.80838e-05
7.33517e-05
7.11802e-05
8.03714e-05
7.4672e-05
9.44356e-05
7.63419e-05
9.13e-05
8.344e-05
9.3502e-05
7.34032e-05
8.63346e-05
8.61473e-05
9.82947e-05
9.20135e-05
9.22357e-05
9.65593e-05
9.50475e-05
8.98009e-05
8.87401e-05
9.78256e-05
9.224e-05
8.07113e-05
8.02684e-05
9.69571e-05
9.74573e-05
9.49402e-05
9.5949e-05
8.47427e-05
9.2027e-05
9.38177e-05
7.40179e-05
7.39313e-05
9.63638e-05
9.31928e-05
9.21413e-05
9.68514e-05
9.81018e-05
7.1815e-05
7.18394e-05
9.83512e-05
9.60201e-05
7.52006e-05
7.58853e-05
9.82517e-05
7.89405e-05
9.23862e-05
8.13793e-05
9.2181e-05
7.51274e-05
9.83343e-05
8.63067e-05
7.98676e-05
7.53832e-05
8.20796e-05
9.82576e-05
7.60217e-05
7.89954e-05
7.42452e-05
7.6392e-05
8.90239e-05
7.68652e-05
9.75523e-05
9.6559e-05
7.23529e-05
8.38069e-05
8.95964e-05
7.70532e-05
9.42e-05
9.91069e-05
9.64233e-05
9.43339e-05
9.77727e-05
9.45027e-05
9.34683e-05
9.18382e-05
8.38639e-05
8.90489e-05
7.13987e-05
9.0666e-05
9.88178e-05
8.78298e-05
9.77981e-05
7.59149e-05
7.32667e-05
9.7686e-05
9.30392e-05
8.99552e-05
9.20365e-05
9.21771e-05
8.30389e-05
8.41037e-05
9.63543e-05
7.28233e-05
8.47557e-05
9.62305e-05
9.86416e-05
9.26094e-05
9.27332e-05
8.85351e-05
9.27306e-05
9.01247e-05
9.20477e-05
9.65994e-05
7.09161e-05
9.1886e-05
8.52223e-05
9.40266e-05
9.39572e-05
9.07699e-05
9.69881e-05
7.7567e-05
8.43934e-05
9.72229e-05
9.61815e-05
9.58121e-05
8.71504e-05
7.2691e-05
9.34947e-05
7.37103e-05
8.87723e-05
9.77998e-05
8.23415e-05
7.56671e-05
9.16176e-05
9.17694e-05
9.89108e-05
7.58226e-05
7.45396e-05
8.9402e-05
8.99798e-05
7.36767e-05
9.50239e-05
8.06777e-05
7.23769e-05
9.1925e-05
8.90481e-05
9.04747e-05
8.24884e-05
8.19531e-05
9.04639e-05
9.06767e-05
8.86959e-05
7.41052e-05
9.21645e-05
8.78265e-05
7.71484e-05
8.28601e-05
9.77286e-05
9.68126e-05
8.45028e-05
7.71973e-05
9.62749e-05
9.43935e-05
8.58573e-05
9.87117e-05
9.77212e-05
9.33109e-05
9.8e-05
9.06785e-05
8.81758e-05
7.37504e-05
8.18554e-05
9.48601e-05
8.96732e-05
9.17433e-05
8.26467e-05
8.77346e-05
9.56203e-05
9.79964e-05
9.2996e-05
7.44838e-05
8.46714e-05
7.90808e-05
9.6689e-05
8.61092e-05
9.80685e-05
9.81808e-05
8.37586e-05
7.58386e-05
8.08217e-05
7.54652e-05
7.37073e-05
9.65319e-05
7.71093e-05
9.71686e-05
8.98133e-05
8.2815e-05
7.93328e-05
9.83303e-05
8.40114e-05
8.1956e-05
9.35071e-05
8.83644e-05
8.17615e-05
9.15436e-05
7.54008e-05
9.25031e-05
9.12558e-05
7.6311e-05
8.53115e-05
9.09655e-05
6.88392e-05
7.29842e-05
9.66567e-05
9.92579e-05
9.72176e-05
7.46524e-05
7.83987e-05
9.6186e-05
7.90193e-05
8.01545e-05
9.79421e-05
9.80313e-05
8.98663e-05
9.75789e-05
9.87275e-05
7.62406e-05
0.000100842
7.18807e-05
7.45564e-05
9.71082e-05
9.51361e-05
9.65403e-05
9.73585e-05
9.0681e-05
7.77977e-05
8.95731e-05
9.09714e-05
9.78596e-05
9.81702e-05
9.91636e-05
9.11404e-05
8.75252e-05
9.45157e-05
9.64288e-05
8.9425e-05
8.7152e-05
8.62768e-05
9.12986e-05
8.40918e-05
9.489e-05
8.84224e-05
7.66853e-05
9.32094e-05
0.000100987
8.39078e-05
9.72809e-05
9.50698e-05
9.16124e-05
7.56505e-05
9.15007e-05
9.13643e-05
7.46684e-05
9.81968e-05
7.61159e-05
8.7854e-05
9.8616e-05
7.21398e-05
9.28686e-05
9.16057e-05
7.52261e-05
8.79425e-05
7.74492e-05
8.44128e-05
9.78747e-05
9.12055e-05
7.24194e-05
9.09597e-05
7.70879e-05
9.09302e-05
9.72328e-05
9.75632e-05
9.84866e-05
7.68452e-05
9.39039e-05
7.48015e-05
9.02802e-05
7.24005e-05
9.70202e-05
9.68165e-05
9.87396e-05
9.76534e-05
8.14588e-05
9.41219e-05
9.28829e-05
9.46113e-05
9.15923e-05
7.77927e-05
8.72596e-05
8.89327e-05
9.26566e-05
9.1382e-05
8.90105e-05
9.18458e-05
8.48748e-05
7.59839e-05
8.87058e-05
9.55099e-05
9.5596e-05
7.19397e-05
9.78289e-05
9.6167e-05
9.1328e-05
9.36784e-05
9.50212e-05
8.64241e-05
9.65401e-05
7.71613e-05
9.04602e-05
9.65431e-05
7.31208e-05
8.92633e-05
9.50458e-05
7.78752e-05
7.24542e-05
7.52343e-05
8.60116e-05
7.57885e-05
9.3511e-05
9.30679e-05
8.46691e-05
9.77065e-05
7.65488e-05
9.65316e-05
9.80778e-05
9.20641e-05
9.0245e-05
8.57031e-05
9.79378e-05
9.24837e-05
8.94759e-05
9.7823e-05
9.33746e-05
7.43318e-05
9.24608e-05
9.82885e-05
9.81047e-05
9.14737e-05
9.84397e-05
8.87139e-05
9.00143e-05
9.37222e-05
9.67637e-05
9.69159e-05
7.57454e-05
9.22499e-05
6.99574e-05
8.60356e-05
9.0457e-05
7.57236e-05
7.42574e-05
8.45089e-05
8.98537e-05
9.3657e-05
7.43323e-05
9.08972e-05
8.30186e-05
9.14086e-05
9.16319e-05
7.17766e-05
9.08802e-05
7.30813e-05
8.96871e-05
9.73761e-05
0.000100547
9.51727e-05
8.54817e-05
7.41583e-05
9.09957e-05
9.21517e-05
9.73316e-05
7.40913e-05
7.51981e-05
9.10578e-05
7.56552e-05
7.72629e-05
8.97789e-05
7.41085e-05
8.41437e-05
7.68744e-05
9.03837e-05
7.53281e-05
9.79198e-05
9.68602e-05
9.79145e-05
9.63295e-05
8.24821e-05
9.8518e-05
9.83681e-05
8.92015e-05
9.24523e-05
9.37826e-05
9.78809e-05
9.74764e-05
8.34399e-05
9.57504e-05
9.9171e-05
9.15617e-05
7.8703e-05
9.85498e-05
9.30146e-05
6.98567e-05
7.3718e-05
9.30937e-05
9.83098e-05
9.76946e-05
8.8677e-05
9.67445e-05
9.76672e-05
9.68609e-05
9.40183e-05
8.55491e-05
8.82618e-05
7.72847e-05
9.08729e-05
9.0678e-05
9.8207e-05
8.05867e-05
7.99432e-05
7.76092e-05
8.68621e-05
9.09982e-05
6.96023e-05
9.13296e-05
8.25037e-05
8.90555e-05
8.48304e-05
9.39248e-05
8.72594e-05
7.67738e-05
9.45782e-05
9.58644e-05
7.79854e-05
9.10792e-05
9.97933e-05
9.38694e-05
9.08271e-05
7.86018e-05
7.90687e-05
9.24841e-05
9.34886e-05
7.65894e-05
7.46112e-05
9.3841e-05
8.34664e-05
9.1258e-05
8.14715e-05
8.5694e-05
9.81536e-05
9.17737e-05
7.47805e-05
8.31319e-05
9.29212e-05
9.74843e-05
7.44107e-05
6.9701e-05
9.67965e-05
7.38681e-05
9.50053e-05
9.76063e-05
7.50945e-05
9.34013e-05
9.58512e-05
8.85774e-05
7.56456e-05
9.89912e-05
8.83574e-05
7.57561e-05
9.87193e-05
9.47515e-05
8.91173e-05
9.58487e-05
7.02832e-05
7.98782e-05
9.04183e-05
8.37573e-05
8.25784e-05
8.88707e-05
9.59673e-05
9.85498e-05
9.43792e-05
9.58123e-05
9.6754e-05
8.88057e-05
8.26335e-05
9.50489e-05
9.7207e-05
0.000102335
8.12023e-05
9.36637e-05
8.8516e-05
0.000101095
7.74668e-05
7.15772e-05
9.7659e-05
7.85966e-05
9.81084e-05
8.93874e-05
7.36082e-05
8.42251e-05
9.75356e-05
8.80282e-05
9.18481e-05
7.33e-05
9.324e-05
8.7281e-05
7.30404e-05
9.76198e-05
9.61457e-05
7.63394e-05
7.73821e-05
7.83419e-05
8.64472e-05
9.30467e-05
9.32905e-05
9.18033e-05
9.2629e-05
9.64338e-05
9.33637e-05
9.19931e-05
7.75339e-05
9.76075e-05
7.5053e-05
9.27118e-05
8.65946e-05
8.61289e-05
0.000101231
9.20542e-05
7.95818e-05
7.21038e-05
7.69779e-05
8.58784e-05
9.74188e-05
7.71401e-05
9.76238e-05
8.70114e-05
9.66487e-05
7.5255e-05
8.95113e-05
9.53485e-05
9.84436e-05
9.74612e-05
9.54887e-05
9.46324e-05
8.81077e-05
9.90654e-05
9.84511e-05
9.85154e-05
8.20737e-05
9.43098e-05
7.51737e-05
9.9131e-05
9.49431e-05
9.15004e-05
7.72749e-05
8.9366e-05
7.08771e-05
9.59728e-05
8.84653e-05
9.78787e-05
9.18364e-05
8.84761e-05
7.59392e-05
9.76762e-05
7.30044e-05
7.08383e-05
7.92886e-05
8.07064e-05
7.48932e-05
9.23983e-05
7.41722e-05
9.31437e-05
8.92103e-05
6.97661e-05
9.80358e-05
7.61983e-05
7.98438e-05
8.95762e-05
8.19189e-05
9.22804e-05
9.6502e-05
9.8143e-05
9.73311e-05
8.19337e-05
9.15555e-05
8.37753e-05
8.54888e-05
7.02612e-05
6.24059e-05
9.7449e-05
9.16529e-05
9.08701e-05
9.7393e-05
7.47585e-05
9.82626e-05
9.87932e-05
9.59032e-05
9.62824e-05
9.61942e-05
9.49342e-05
9.8494e-05
9.80446e-05
9.26231e-05
9.74143e-05
9.30025e-05
7.6669e-05
9.76748e-05
8.41308e-05
9.62948e-05
8.88602e-05
9.22409e-05
8.06183e-05
9.88053e-05
9.02988e-05
9.20754e-05
8.76809e-05
7.79967e-05
9.74271e-05
8.83272e-05
8.27788e-05
7.51354e-05
9.59547e-05
7.07873e-05
9.56763e-05
9.27724e-05
8.91333e-05
9.58741e-05
9.83691e-05
9.61054e-05
7.49907e-05
9.12663e-05
8.7789e-05
9.31031e-05
7.65463e-05
9.45481e-05
9.13044e-05
8.8242e-05
9.25823e-05
8.59053e-05
8.95905e-05
8.51787e-05
8.51786e-05
7.13059e-05
9.66341e-05
8.9857e-05
9.79281e-05
8.10444e-05
9.22485e-05
9.42186e-05
9.13686e-05
8.2103e-05
9.27707e-05
9.67404e-05
9.14636e-05
7.11108e-05
7.26342e-05
9.07057e-05
7.12203e-05
7.58181e-05
9.45502e-05
9.47213e-05
9.60297e-05
7.03416e-05
9.08539e-05
9.7395e-05
7.47725e-05
7.086e-05
9.13533e-05
7.73145e-05
9.17401e-05
7.96004e-05
9.81767e-05
8.2852e-05
8.2156e-05
9.71593e-05
7.22268e-05
9.0558e-05
9.05508e-05
9.65014e-05
9.7952e-05
9.71651e-05
7.78905e-05
9.59144e-05
9.72435e-05
8.50054e-05
9.77767e-05
9.57963e-05
9.17977e-05
9.82151e-05
9.27643e-05
9.98578e-05
9.80556e-05
9.85358e-05
9.46571e-05
8.59019e-05
9.28358e-05
9.20779e-05
7.65018e-05
8.93148e-05
9.47225e-05
9.71319e-05
9.83129e-05
9.00947e-05
9.98905e-05
9.60304e-05
8.81268e-05
9.28655e-05
9.7866e-05
9.3023e-05
9.19486e-05
7.59598e-05
8.37433e-05
0.000100516
7.10881e-05
8.80856e-05
9.08392e-05
8.45586e-05
9.04574e-05
9.67635e-05
9.01922e-05
9.68613e-05
8.91154e-05
9.16209e-05
8.71741e-05
9.66103e-05
9.31113e-05
8.49283e-05
7.64358e-05
9.75598e-05
7.73889e-05
8.9161e-05
8.51628e-05
8.93656e-05
8.76342e-05
9.93396e-05
7.64404e-05
9.98459e-05
7.75376e-05
9.37626e-05
8.57071e-05
9.21008e-05
9.17129e-05
9.67635e-05
7.58994e-05
9.64954e-05
9.7201e-05
9.59691e-05
9.405e-05
9.13401e-05
7.16677e-05
9.90197e-05
9.78246e-05
9.49489e-05
9.63607e-05
9.80779e-05
9.21851e-05
8.90224e-05
9.38955e-05
7.51778e-05
8.60777e-05
9.80278e-05
7.47424e-05
8.09027e-05
0.000100489
9.81503e-05
8.1049e-05
8.32542e-05
9.40023e-05
8.15355e-05
9.05274e-05
7.70282e-05
9.53569e-05
9.61838e-05
7.08292e-05
8.87463e-05
9.74633e-05
9.20068e-05
9.58724e-05
8.95618e-05
9.68038e-05
7.76436e-05
7.71013e-05
9.95426e-05
9.80257e-05
9.12264e-05
7.60131e-05
9.09027e-05
9.908e-05
7.98411e-05
9.82763e-05
9.30347e-05
9.48034e-05
8.97171e-05
9.56233e-05
9.38752e-05
9.32917e-05
9.05006e-05
8.15891e-05
7.24701e-05
8.83675e-05
9.36805e-05
7.61941e-05
9.70678e-05
7.22885e-05
8.95539e-05
8.46072e-05
7.59063e-05
9.083e-05
8.17498e-05
9.4073e-05
8.83139e-05
9.35132e-05
7.54095e-05
7.64042e-05
8.50779e-05
7.52352e-05
8.90349e-05
9.73867e-05
9.05944e-05
9.88568e-05
8.74192e-05
9.23982e-05
9.89419e-05
8.49883e-05
8.8729e-05
9.16491e-05
9.13561e-05
9.04675e-05
7.91818e-05
9.31087e-05
9.57806e-05
9.77876e-05
0.000100693
7.64693e-05
7.29503e-05
9.09691e-05
9.77242e-05
7.85886e-05
9.00642e-05
9.05982e-05
9.19258e-05
0.000100252
8.45941e-05
9.0463e-05
9.17787e-05
7.46523e-05
9.81709e-05
9.63141e-05
7.60361e-05
8.10736e-05
9.13553e-05
8.35528e-05
9.86341e-05
9.85395e-05
8.97645e-05
7.74195e-05
9.84792e-05
7.37941e-05
9.01468e-05
9.55165e-05
8.33595e-05
9.87063e-05
7.39099e-05
9.1961e-05
9.09039e-05
9.1806e-05
7.48504e-05
7.28744e-05
9.57809e-05
9.86733e-05
8.41527e-05
9.67378e-05
9.50721e-05
9.15734e-05
7.64269e-05
7.96852e-05
9.46618e-05
8.64961e-05
9.21545e-05
9.85751e-05
9.7474e-05
9.94379e-05
9.69442e-05
8.84386e-05
8.91449e-05
9.63769e-05
7.66492e-05
9.44562e-05
9.52825e-05
9.39919e-05
9.44908e-05
9.90416e-05
8.66709e-05
9.68317e-05
9.13465e-05
7.21337e-05
9.9094e-05
8.32965e-05
9.88723e-05
8.42671e-05
9.73497e-05
7.67331e-05
9.47686e-05
0.000100475
9.07535e-05
9.3633e-05
7.59104e-05
9.71558e-05
9.94225e-05
9.34796e-05
7.36918e-05
0.000103856
8.68119e-05
9.39593e-05
9.60719e-05
9.69412e-05
9.61493e-05
9.08117e-05
8.63613e-05
9.98295e-05
7.68327e-05
7.88073e-05
7.75464e-05
7.96156e-05
9.49038e-05
7.36911e-05
9.87773e-05
9.79573e-05
9.69695e-05
9.04946e-05
8.5838e-05
9.347e-05
9.9305e-05
9.2918e-05
8.98586e-05
9.88829e-05
9.60122e-05
8.74437e-05
9.6973e-05
9.19152e-05
9.17483e-05
9.32174e-05
8.41568e-05
9.75782e-05
0.000100208
9.76097e-05
9.7776e-05
9.65384e-05
8.27487e-05
0.000101504
8.95523e-05
9.10165e-05
9.1018e-05
9.49993e-05
0.000101072
9.33623e-05
9.63548e-05
8.21536e-05
9.17625e-05
9.01293e-05
7.85178e-05
7.62754e-05
9.18537e-05
8.64133e-05
9.80405e-05
8.37988e-05
7.12877e-05
8.98003e-05
9.69844e-05
8.1868e-05
8.4005e-05
9.30834e-05
9.87011e-05
9.81956e-05
8.93144e-05
8.15096e-05
9.26453e-05
9.27631e-05
8.50198e-05
9.07272e-05
9.22588e-05
7.4927e-05
8.58251e-05
8.36935e-05
9.13407e-05
9.79519e-05
9.22843e-05
9.75925e-05
9.23098e-05
9.40084e-05
9.13056e-05
7.48193e-05
7.70057e-05
7.45468e-05
9.62963e-05
9.35022e-05
9.84616e-05
0.000102728
9.32978e-05
7.41344e-05
9.58954e-05
8.59002e-05
9.06086e-05
9.12303e-05
9.58109e-05
7.30188e-05
9.91846e-05
7.58494e-05
9.29336e-05
8.93245e-05
8.82798e-05
9.91664e-05
9.13791e-05
9.50609e-05
7.59156e-05
9.19882e-05
8.94251e-05
9.34361e-05
8.00063e-05
8.00311e-05
9.51371e-05
9.58064e-05
8.89912e-05
9.4366e-05
9.9112e-05
7.52974e-05
8.62275e-05
8.51471e-05
8.03198e-05
9.46024e-05
9.81605e-05
9.90952e-05
9.6525e-05
9.84695e-05
7.81596e-05
7.74099e-05
7.63257e-05
0.000100992
7.6922e-05
9.49569e-05
8.81859e-05
7.70497e-05
8.48628e-05
9.77204e-05
9.79516e-05
8.16411e-05
8.48641e-05
9.0073e-05
9.341e-05
9.83638e-05
8.94926e-05
7.58988e-05
9.30208e-05
9.79538e-05
9.74138e-05
9.78475e-05
9.7567e-05
0.000102277
9.82948e-05
9.24802e-05
7.86258e-05
7.56844e-05
9.26558e-05
8.02004e-05
9.8475e-05
7.69373e-05
9.42492e-05
8.53759e-05
9.67939e-05
7.8954e-05
9.13634e-05
9.74296e-05
9.47186e-05
8.50724e-05
7.71756e-05
9.80218e-05
8.56583e-05
9.73601e-05
8.83371e-05
0.000103833
9.87172e-05
9.36753e-05
7.60381e-05
7.629e-05
9.10916e-05
8.85612e-05
8.42552e-05
9.96024e-05
7.74305e-05
9.7273e-05
9.2881e-05
8.47169e-05
9.52793e-05
9.81974e-05
9.70364e-05
9.7988e-05
0.000100737
9.45825e-05
8.89296e-05
7.46073e-05
8.16332e-05
9.66482e-05
7.84054e-05
9.04353e-05
9.09978e-05
7.88599e-05
9.21114e-05
9.4212e-05
9.1336e-05
9.55265e-05
9.76036e-05
7.8341e-05
9.11936e-05
9.34022e-05
7.64261e-05
8.30855e-05
9.03057e-05
8.53476e-05
9.24405e-05
7.74038e-05
7.62669e-05
9.19778e-05
8.3802e-05
9.80323e-05
9.91079e-05
9.65188e-05
9.06059e-05
9.05429e-05
9.2505e-05
8.84643e-05
9.75991e-05
7.81316e-05
9.25484e-05
8.50796e-05
9.75907e-05
9.2041e-05
8.62776e-05
8.87266e-05
9.74536e-05
7.77173e-05
9.28843e-05
9.77333e-05
8.95265e-05
6.61385e-05
8.58485e-05
7.74305e-05
9.02355e-05
7.35947e-05
0.000100421
9.91933e-05
9.76636e-05
9.5257e-05
7.92169e-05
7.45681e-05
9.74453e-05
9.97072e-05
9.74495e-05
9.27606e-05
8.874e-05
9.68821e-05
9.99396e-05
9.64528e-05
7.51114e-05
8.74757e-05
9.35029e-05
9.51482e-05
8.59246e-05
9.38357e-05
7.32598e-05
9.7378e-05
9.70733e-05
8.91951e-05
9.37603e-05
9.15071e-05
9.31128e-05
9.82741e-05
9.57077e-05
7.87268e-05
9.26699e-05
9.52534e-05
9.13816e-05
8.89584e-05
9.15879e-05
7.42727e-05
7.65178e-05
9.76812e-05
9.81265e-05
9.68727e-05
9.77898e-05
9.46042e-05
9.52945e-05
8.92311e-05
9.34698e-05
9.48263e-05
9.81036e-05
8.45137e-05
8.65085e-05
8.84218e-05
9.32606e-05
9.79504e-05
7.31632e-05
8.87708e-05
7.18864e-05
9.75533e-05
7.29306e-05
7.68212e-05
9.21037e-05
6.92811e-05
8.77294e-05
9.43418e-05
9.76576e-05
9.67274e-05
8.14542e-05
8.77016e-05
9.95686e-05
8.18425e-05
7.87545e-05
8.71767e-05
8.13273e-05
9.76163e-05
9.4363e-05
8.88506e-05
7.71026e-05
9.50426e-05
0.000101367
9.70981e-05
7.60693e-05
7.92987e-05
9.13605e-05
9.77255e-05
9.85635e-05
7.70554e-05
7.5904e-05
9.27841e-05
8.90064e-05
9.92054e-05
9.15318e-05
7.29356e-05
9.12007e-05
9.71604e-05
7.62159e-05
7.24587e-05
9.81359e-05
7.89199e-05
7.8623e-05
9.94287e-05
9.67699e-05
9.51199e-05
0.00010109
9.10387e-05
8.65342e-05
9.80897e-05
8.29556e-05
9.60412e-05
8.25299e-05
9.18655e-05
9.45464e-05
9.08069e-05
7.57894e-05
9.62073e-05
9.6277e-05
8.46377e-05
9.2147e-05
8.58481e-05
7.97877e-05
8.57693e-05
8.89022e-05
9.26034e-05
9.87037e-05
8.35884e-05
9.66117e-05
7.46379e-05
9.56232e-05
9.85243e-05
7.56143e-05
9.58112e-05
9.36035e-05
6.80884e-05
7.57597e-05
9.40249e-05
9.1779e-05
9.66758e-05
8.31969e-05
7.70143e-05
9.70077e-05
9.84775e-05
9.7669e-05
8.96389e-05
9.72338e-05
7.3888e-05
9.88721e-05
9.2598e-05
7.61067e-05
7.59022e-05
6.84644e-05
7.47252e-05
9.81707e-05
8.47467e-05
9.52035e-05
9.29398e-05
7.89984e-05
7.97936e-05
7.13057e-05
7.10407e-05
0.000101268
9.96527e-05
7.89881e-05
9.78048e-05
9.24315e-05
7.81096e-05
9.0243e-05
8.81281e-05
7.93146e-05
8.5044e-05
9.70935e-05
7.96626e-05
7.39447e-05
9.64764e-05
0.000100891
8.15985e-05
9.74557e-05
8.82279e-05
7.97335e-05
7.6856e-05
8.85628e-05
7.65244e-05
7.6414e-05
9.41085e-05
9.5171e-05
8.59548e-05
9.5843e-05
9.70305e-05
9.12936e-05
9.87337e-05
6.55657e-05
8.81006e-05
7.46614e-05
9.29156e-05
9.76692e-05
9.16495e-05
8.30407e-05
9.23032e-05
7.63162e-05
9.57476e-05
9.13712e-05
8.23927e-05
7.75557e-05
7.13631e-05
7.10353e-05
8.32974e-05
7.45993e-05
8.68467e-05
7.53338e-05
8.58589e-05
9.53493e-05
9.14716e-05
8.61647e-05
9.43167e-05
9.18851e-05
9.26086e-05
9.57252e-05
7.39869e-05
8.72003e-05
9.82093e-05
9.78539e-05
9.08334e-05
0.000100078
7.88251e-05
9.61431e-05
9.1549e-05
7.47036e-05
9.20389e-05
9.85548e-05
9.0969e-05
9.64592e-05
9.79396e-05
9.07131e-05
6.99431e-05
7.01693e-05
9.0786e-05
9.90696e-05
9.02948e-05
9.65089e-05
8.39708e-05
8.56677e-05
7.83851e-05
7.34514e-05
7.24579e-05
7.41449e-05
9.3459e-05
9.47257e-05
9.89065e-05
8.81434e-05
8.51886e-05
9.82551e-05
7.40171e-05
9.30625e-05
9.73346e-05
9.8809e-05
8.84934e-05
8.86156e-05
9.7626e-05
0.000101667
9.73436e-05
7.95815e-05
8.73447e-05
9.58928e-05
9.09486e-05
9.35436e-05
0.000101452
9.55856e-05
9.91789e-05
9.34238e-05
8.11647e-05
9.26772e-05
9.67738e-05
9.38592e-05
9.36742e-05
7.46817e-05
9.69312e-05
9.72465e-05
9.88702e-05
9.68761e-05
7.39676e-05
7.13445e-05
9.10232e-05
9.29289e-05
8.77903e-05
9.37681e-05
9.64544e-05
9.60644e-05
9.60489e-05
8.33175e-05
9.15644e-05
9.23505e-05
9.60211e-05
7.65577e-05
7.62945e-05
8.7691e-05
9.44412e-05
7.718e-05
9.9051e-05
7.63167e-05
8.37675e-05
9.33372e-05
9.69538e-05
8.49447e-05
9.70352e-05
9.54551e-05
9.64409e-05
9.02754e-05
9.30383e-05
9.39301e-05
8.43293e-05
7.10521e-05
9.82071e-05
7.13308e-05
7.45931e-05
7.84256e-05
7.31967e-05
7.34493e-05
8.41538e-05
9.38137e-05
7.49784e-05
8.37359e-05
6.76707e-05
7.83841e-05
9.07652e-05
9.84234e-05
7.18069e-05
7.64291e-05
9.66838e-05
7.26791e-05
8.47917e-05
9.50341e-05
8.97093e-05
9.29908e-05
7.79124e-05
7.52021e-05
8.36686e-05
9.75607e-05
8.08648e-05
7.69496e-05
8.84452e-05
8.39032e-05
9.388e-05
9.1496e-05
7.74296e-05
9.75231e-05
7.39849e-05
7.61945e-05
8.6874e-05
9.6714e-05
8.31189e-05
8.654e-05
8.78274e-05
9.29593e-05
7.17653e-05
7.99052e-05
9.06379e-05
9.84917e-05
9.48095e-05
7.45261e-05
7.1018e-05
8.6755e-05
9.84053e-05
9.16605e-05
9.19817e-05
8.45456e-05
8.84465e-05
9.20549e-05
7.47309e-05
9.83666e-05
8.18559e-05
7.53492e-05
7.1839e-05
9.74617e-05
9.13817e-05
9.86312e-05
8.85787e-05
9.72263e-05
7.36279e-05
8.80253e-05
7.17836e-05
7.15222e-05
9.46205e-05
7.75668e-05
8.64896e-05
9.35282e-05
9.50713e-05
7.63279e-05
9.86617e-05
9.69642e-05
9.87406e-05
9.0813e-05
6.7885e-05
9.37035e-05
7.05602e-05
9.90661e-05
7.63064e-05
9.80182e-05
7.00505e-05
9.4621e-05
9.35052e-05
8.40828e-05
8.53326e-05
6.91596e-05
8.12644e-05
9.25181e-05
9.65003e-05
9.07959e-05
9.83443e-05
9.85359e-05
7.48685e-05
9.83733e-05
8.42168e-05
9.48171e-05
9.40513e-05
9.76677e-05
9.32236e-05
9.27237e-05
9.78553e-05
8.52171e-05
7.96777e-05
7.95452e-05
9.42723e-05
9.96988e-05
7.80231e-05
8.03784e-05
9.6039e-05
9.18262e-05
9.28582e-05
0.000102661
9.58966e-05
9.01926e-05
9.48365e-05
9.61661e-05
9.78256e-05
9.04974e-05
8.85378e-05
9.74877e-05
9.42896e-05
7.99584e-05
9.08798e-05
8.17641e-05
9.98415e-05
9.38432e-05
9.70684e-05
7.66509e-05
7.69578e-05
9.28628e-05
9.67832e-05
9.68249e-05
9.79476e-05
9.94367e-05
8.89602e-05
9.04601e-05
7.70934e-05
8.77473e-05
9.38624e-05
9.6717e-05
9.9088e-05
9.87946e-05
8.61852e-05
9.81148e-05
7.84449e-05
9.65491e-05
8.2284e-05
9.1245e-05
8.3679e-05
9.30869e-05
8.84251e-05
9.75584e-05
7.64312e-05
9.84616e-05
9.80123e-05
8.60453e-05
7.65236e-05
0.000102401
9.09513e-05
9.7502e-05
9.27662e-05
9.37442e-05
9.2522e-05
7.41315e-05
9.81805e-05
8.66338e-05
9.41221e-05
7.89304e-05
8.0015e-05
8.06467e-05
7.35011e-05
8.1514e-05
9.84849e-05
9.23733e-05
7.27114e-05
9.30704e-05
7.48739e-05
8.8791e-05
9.40014e-05
7.0246e-05
7.4442e-05
8.18605e-05
8.75828e-05
9.32337e-05
8.32045e-05
9.61188e-05
8.5792e-05
7.99304e-05
8.18045e-05
9.75439e-05
9.81483e-05
9.81436e-05
9.61595e-05
9.40263e-05
7.54303e-05
7.40192e-05
9.71971e-05
8.43062e-05
8.82308e-05
9.78746e-05
0.000101388
9.27719e-05
9.36983e-05
7.22385e-05
9.64985e-05
9.89549e-05
8.42596e-05
9.74753e-05
9.68656e-05
9.40821e-05
8.94427e-05
9.28264e-05
8.39487e-05
7.35337e-05
9.31962e-05
7.61883e-05
7.42029e-05
8.76323e-05
9.27193e-05
9.50309e-05
9.60271e-05
9.36037e-05
9.50466e-05
7.13876e-05
8.37035e-05
9.95953e-05
9.92929e-05
7.50583e-05
8.81134e-05
7.7401e-05
8.88837e-05
9.79925e-05
8.52973e-05
9.05562e-05
9.81994e-05
8.93388e-05
7.34987e-05
9.76291e-05
7.40533e-05
9.64475e-05
9.53216e-05
9.51262e-05
9.80257e-05
9.47636e-05
9.72894e-05
7.50792e-05
9.7938e-05
9.82394e-05
7.83943e-05
9.56281e-05
9.18691e-05
8.62816e-05
9.74864e-05
8.73281e-05
9.61989e-05
9.86827e-05
9.78383e-05
9.35898e-05
9.79176e-05
9.25797e-05
9.13166e-05
7.97135e-05
8.77224e-05
7.56872e-05
7.22534e-05
8.7967e-05
9.54803e-05
9.20869e-05
9.88549e-05
9.07457e-05
9.78542e-05
7.23309e-05
9.87965e-05
9.95012e-05
9.61255e-05
9.62533e-05
7.82537e-05
7.3134e-05
9.23693e-05
7.30755e-05
9.59469e-05
9.3265e-05
7.11916e-05
8.49824e-05
9.73756e-05
9.56495e-05
7.07417e-05
8.0451e-05
7.12046e-05
9.87296e-05
7.4813e-05
9.62494e-05
8.63067e-05
7.59685e-05
9.57413e-05
9.74186e-05
9.98012e-05
9.5869e-05
7.53853e-05
9.02303e-05
9.97628e-05
7.7898e-05
9.73212e-05
9.43866e-05
9.64284e-05
7.35416e-05
9.55024e-05
8.53357e-05
9.26141e-05
8.54181e-05
9.07622e-05
8.34824e-05
8.47859e-05
8.63763e-05
8.41543e-05
9.50076e-05
9.14629e-05
9.79356e-05
8.06496e-05
9.15765e-05
9.42763e-05
9.66998e-05
9.70558e-05
7.62866e-05
9.56805e-05
7.56951e-05
8.97523e-05
9.94041e-05
9.93639e-05
8.82585e-05
8.70776e-05
9.54272e-05
8.34057e-05
9.06764e-05
8.73342e-05
7.6102e-05
7.43952e-05
9.45707e-05
9.85731e-05
8.88908e-05
8.46843e-05
9.86473e-05
7.52876e-05
9.52715e-05
7.59909e-05
9.0284e-05
9.87259e-05
9.31323e-05
7.38652e-05
9.83937e-05
7.53207e-05
9.54102e-05
9.49007e-05
7.39075e-05
9.77188e-05
7.81876e-05
8.27672e-05
8.62051e-05
7.17568e-05
8.07578e-05
8.83116e-05
6.9928e-05
9.57486e-05
0.000100434
7.16687e-05
8.1612e-05
9.68648e-05
9.28731e-05
9.42962e-05
0.00010024
9.69196e-05
9.14681e-05
7.97287e-05
7.43334e-05
7.01339e-05
7.75407e-05
9.86852e-05
9.59229e-05
9.03296e-05
9.34165e-05
7.47796e-05
7.53378e-05
9.07624e-05
9.58555e-05
6.9499e-05
9.34879e-05
9.28149e-05
8.71969e-05
9.58678e-05
8.89116e-05
9.78847e-05
8.01652e-05
8.60004e-05
0.000100906
6.85953e-05
9.19637e-05
9.80476e-05
9.82539e-05
9.03856e-05
9.70244e-05
9.47231e-05
7.40057e-05
9.97316e-05
9.95921e-05
9.16133e-05
9.41707e-05
8.88949e-05
9.18944e-05
9.59307e-05
9.25613e-05
9.36605e-05
9.2566e-05
8.97253e-05
7.38791e-05
8.53337e-05
9.93878e-05
9.55524e-05
9.93598e-05
9.44821e-05
8.89395e-05
9.91071e-05
7.7435e-05
9.76227e-05
7.49512e-05
9.86095e-05
9.1648e-05
8.37841e-05
9.84931e-05
8.3259e-05
8.60564e-05
9.89913e-05
8.47008e-05
9.97474e-05
9.801e-05
9.5017e-05
7.67441e-05
9.33772e-05
9.17928e-05
8.134e-05
9.77583e-05
9.00766e-05
9.13337e-05
0.000100433
7.49573e-05
9.66028e-05
9.34992e-05
9.71271e-05
8.48288e-05
9.28154e-05
7.56033e-05
7.8857e-05
0.00010344
7.56528e-05
9.365e-05
9.77009e-05
7.62854e-05
8.66476e-05
9.85772e-05
8.09539e-05
7.85631e-05
7.98044e-05
8.493e-05
8.40437e-05
0.00010047
8.52354e-05
9.914e-05
9.40891e-05
9.8436e-05
7.42542e-05
8.23881e-05
9.73934e-05
9.22344e-05
7.56964e-05
7.83979e-05
8.62647e-05
7.47105e-05
7.41738e-05
9.19439e-05
9.04625e-05
9.76681e-05
8.95417e-05
9.76795e-05
9.69253e-05
9.46656e-05
9.64456e-05
9.27924e-05
8.15614e-05
8.74366e-05
9.57562e-05
9.07493e-05
8.82459e-05
9.81011e-05
9.15752e-05
7.34379e-05
7.35265e-05
8.57504e-05
7.76651e-05
9.1157e-05
9.75328e-05
8.66178e-05
9.42314e-05
9.7048e-05
9.66418e-05
9.94641e-05
8.75076e-05
7.71463e-05
8.78677e-05
8.52759e-05
9.80561e-05
8.69362e-05
9.5018e-05
9.77832e-05
8.44671e-05
8.47673e-05
9.48124e-05
9.78514e-05
9.58315e-05
0.000102879
9.47638e-05
8.67064e-05
8.83948e-05
8.00233e-05
8.5922e-05
9.79746e-05
7.9718e-05
9.7327e-05
8.89911e-05
9.73246e-05
7.72195e-05
9.58551e-05
9.35292e-05
9.80172e-05
9.23971e-05
8.95213e-05
9.27013e-05
9.70225e-05
7.38726e-05
7.83888e-05
9.19414e-05
8.31414e-05
8.77513e-05
9.3446e-05
9.31139e-05
9.88201e-05
9.13094e-05
7.42933e-05
8.15019e-05
7.53319e-05
8.84545e-05
9.30827e-05
7.78669e-05
0.000100596
9.1992e-05
8.49515e-05
9.21929e-05
7.89208e-05
7.7768e-05
9.9511e-05
7.69849e-05
7.18411e-05
8.07998e-05
8.19109e-05
7.80106e-05
7.95752e-05
9.84142e-05
9.67106e-05
8.2516e-05
9.53239e-05
9.71513e-05
9.24591e-05
9.44095e-05
7.26923e-05
9.82877e-05
6.01529e-05
9.69845e-05
7.59216e-05
7.32958e-05
9.67725e-05
7.30899e-05
8.64574e-05
9.06366e-05
9.81544e-05
8.4005e-05
9.22976e-05
8.34664e-05
9.15905e-05
8.94618e-05
9.01362e-05
8.72661e-05
9.48106e-05
9.0918e-05
7.65818e-05
9.58677e-05
8.99999e-05
8.73164e-05
8.40827e-05
7.77758e-05
8.50383e-05
7.38694e-05
7.37109e-05
9.3158e-05
8.5227e-05
7.72525e-05
8.39638e-05
9.62971e-05
9.72911e-05
9.50515e-05
6.27944e-05
7.51482e-05
9.91294e-05
7.55938e-05
9.53226e-05
7.32237e-05
9.79065e-05
9.62846e-05
9.92798e-05
7.56021e-05
8.78443e-05
9.90176e-05
9.86028e-05
9.02619e-05
9.93237e-05
9.12342e-05
9.05288e-05
9.12647e-05
7.45659e-05
9.06288e-05
8.2932e-05
9.32289e-05
9.26011e-05
8.24484e-05
8.98062e-05
9.72707e-05
8.08942e-05
7.86951e-05
7.53782e-05
9.45156e-05
9.49332e-05
7.34561e-05
9.27662e-05
9.22316e-05
9.17851e-05
7.68992e-05
9.38929e-05
8.52498e-05
9.70809e-05
7.46425e-05
8.62463e-05
9.17931e-05
7.16507e-05
9.71831e-05
7.73082e-05
7.86742e-05
9.05725e-05
9.86712e-05
7.0731e-05
9.56326e-05
9.57296e-05
8.81608e-05
7.25304e-05
9.81963e-05
9.7671e-05
7.11095e-05
9.20014e-05
7.00272e-05
7.84276e-05
9.75956e-05
8.60353e-05
9.21362e-05
9.78914e-05
9.84977e-05
8.83322e-05
8.24276e-05
9.16008e-05
8.71951e-05
8.72282e-05
8.33434e-05
9.54348e-05
7.45599e-05
8.97595e-05
8.64558e-05
8.61851e-05
9.63247e-05
8.98862e-05
9.46187e-05
9.28318e-05
9.19116e-05
9.82108e-05
9.14665e-05
8.58301e-05
8.18231e-05
9.44562e-05
8.8358e-05
8.7859e-05
9.41258e-05
9.76381e-05
9.10776e-05
9.87001e-05
8.84584e-05
9.56081e-05
8.16923e-05
7.62243e-05
9.19854e-05
9.48058e-05
7.7523e-05
9.12959e-05
9.16435e-05
6.95724e-05
7.31457e-05
9.72908e-05
7.3425e-05
9.07884e-05
9.73267e-05
9.08329e-05
7.58935e-05
9.20149e-05
9.8546e-05
7.52893e-05
7.70583e-05
7.73506e-05
9.67012e-05
9.24864e-05
9.30219e-05
0.000101058
7.42228e-05
9.50068e-05
9.21263e-05
9.80396e-05
9.96499e-05
6.17947e-05
9.17515e-05
9.40625e-05
9.63847e-05
9.02872e-05
8.90657e-05
7.85003e-05
9.53963e-05
9.80048e-05
8.01778e-05
7.30441e-05
8.43729e-05
9.61643e-05
9.38963e-05
7.51331e-05
8.58433e-05
9.54481e-05
9.756e-05
9.06653e-05
8.60914e-05
7.18193e-05
7.54614e-05
7.54302e-05
9.37402e-05
8.97686e-05
8.82021e-05
9.76082e-05
9.74039e-05
7.58007e-05
9.66867e-05
9.66738e-05
9.49488e-05
8.28752e-05
9.69859e-05
8.76245e-05
7.59103e-05
8.10418e-05
9.10344e-05
9.24379e-05
8.61316e-05
9.00374e-05
8.6821e-05
9.61202e-05
7.63442e-05
7.51172e-05
9.04367e-05
9.74556e-05
9.5293e-05
8.55167e-05
8.53203e-05
9.6892e-05
9.90844e-05
8.86087e-05
8.28503e-05
9.59594e-05
9.7407e-05
9.21582e-05
9.77792e-05
9.72702e-05
9.32326e-05
7.353e-05
8.34844e-05
7.40906e-05
9.20941e-05
9.80655e-05
8.4067e-05
7.48156e-05
9.89856e-05
7.70823e-05
8.43782e-05
7.93776e-05
8.73079e-05
7.45226e-05
9.43918e-05
9.22376e-05
9.05379e-05
8.82917e-05
7.86416e-05
9.88774e-05
7.73602e-05
9.16351e-05
8.8181e-05
9.10274e-05
7.59738e-05
9.67091e-05
9.47803e-05
7.39626e-05
8.02889e-05
8.75665e-05
8.52518e-05
9.16776e-05
7.04716e-05
9.49157e-05
8.42618e-05
9.20938e-05
8.18939e-05
8.31123e-05
8.32654e-05
7.20907e-05
9.67604e-05
8.49141e-05
4.66573e-05
7.4833e-05
8.82253e-05
9.73741e-05
9.50372e-05
7.84026e-05
7.71285e-05
9.47274e-05
7.39814e-05
9.62417e-05
9.78478e-05
8.93631e-05
7.78932e-05
9.58567e-05
7.34554e-05
7.47601e-05
7.28872e-05
9.48238e-05
9.14714e-05
8.36963e-05
9.71667e-05
9.09433e-05
9.30392e-05
7.7671e-05
6.85592e-05
9.78312e-05
9.19559e-05
9.87028e-05
9.71066e-05
7.5619e-05
9.18902e-05
8.85017e-05
8.86096e-05
9.20232e-05
8.2818e-05
8.42461e-05
0.000103532
9.40625e-05
8.35376e-05
7.63082e-05
9.09443e-05
9.18042e-05
9.24849e-05
8.49129e-05
7.37725e-05
7.67619e-05
9.01033e-05
9.22057e-05
8.79364e-05
9.73587e-05
8.23397e-05