/*--------------------------------*- C++ -*----------------------------------*\
| =========                 |                                                 |
| \\      /  F ield         | OpenFOAM: The Open Source CFD Toolbox           |
|  \\    /   O peration     | Version:  2212                                  |
|   \\  /    A nd           | Website:  www.openfoam.com                      |
|    \\/     M anipulation  |                                                 |
\*---------------------------------------------------------------------------*/
FoamFile
{
    version     2.0;
    format      ascii;
    arch        "LSB;label=32;scalar=64";
    class       volScalarField;
    location    "0.008";
    object      p;
}
// * * * * * * * * * * * * * * * * * * * * * * * * * * * * * * * * * * * * * //

dimensions      [0 2 -2 0 0 0 0];

internalField   nonuniform List<scalar> 
31639
(
0.0189227
0.0131799
0.0216575
0.00969259
0.0132555
0.0187009
0.0207044
0.0197922
0.0141773
0.0120298
0.0206316
0.0133815
0.0138199
0.0181523
0.0158051
0.0221633
0.0256418
0.0262113
0.00434602
0.0200857
0.0145867
0.0112068
0.0153893
0.00960328
0.0165407
0.0197672
0.0191357
0.0603541
0.0198384
0.0198247
0.0106547
0.0283442
0.0140225
0.00777085
0.0344805
0.0197815
0.0114127
0.0204792
0.020547
0.0170063
0.0135841
0.0192684
0.015094
0.0211556
0.0217615
0.00910594
0.0134974
0.0106977
0.0229641
0.00973705
0.00895949
0.00731227
0.0348194
0.0214264
0.0070103
0.0263194
0.0116608
0.0191038
0.0132265
0.00920486
0.0101084
0.0193965
0.0159814
0.0196843
0.034857
0.00560453
0.00357381
0.0109156
0.0135719
0.00855397
0.0122778
0.0259972
0.0118201
0.00494619
0.0353202
0.02793
0.0122602
0.0112672
0.0130968
0.0123574
0.0187712
0.0180241
0.0176541
0.00995599
0.0176178
0.0163722
0.015196
0.0106777
0.00320282
0.0140171
0.00805655
0.0256549
0.00955531
0.0127679
0.00607122
0.0190662
0.0103564
0.00730341
0.0137193
0.0182619
0.0326482
0.0326705
0.0165046
0.0125034
0.00701792
0.00872809
0.0182893
0.00947882
0.0107119
0.0167646
0.0207325
0.0182288
0.0193072
0.0112935
0.00504534
0.0203435
0.0344558
0.0212526
0.0327327
0.010186
0.0285136
0.00888431
0.00454587
0.00979991
0.018436
0.0179896
0.013036
0.00985131
0.0121267
0.0145118
0.034309
0.00146783
0.0218918
0.00517101
0.00606732
0.0110029
0.0115262
0.0126591
0.00905663
0.0101138
0.0100643
0.0148707
0.0161434
0.0092172
0.0136583
0.0176811
0.0332353
0.0113906
0.0170151
0.0352311
0.0103165
0.0235389
0.00743726
0.0066238
0.00841134
0.00661961
0.00477753
0.0123356
0.0233088
0.0109258
0.00596197
0.0257383
0.0113901
0.0192796
0.0277318
0.0276948
0.0213236
0.0240938
0.00751316
0.00520103
0.0243595
0.018301
0.0246068
0.0139427
0.0173102
0.012006
0.0157934
0.02846
0.0110695
0.0166563
0.0139488
0.0228801
0.0193745
0.0203752
0.0203539
0.0195787
0.0238794
0.0167116
0.0183059
0.0224044
0.0227283
0.0120176
0.0231671
0.00714816
0.00797151
0.00826808
0.00813325
0.012863
0.00828793
0.0204849
0.0172644
0.0261128
0.0228047
0.0240868
0.0117422
0.0100189
0.0041608
0.0070619
0.0290649
0.00808624
0.00784469
0.0169176
0.0326718
0.0175737
0.0210165
0.0177273
0.0179456
0.0176004
0.0246689
0.0132838
0.0137173
0.0167775
0.0177444
0.0247338
0.0214603
0.0122477
0.0223023
0.0216274
0.0152394
0.0282545
0.00732121
0.0203838
0.0258522
0.0224238
0.0232381
0.00395307
0.00378633
0.0235419
0.0193435
0.00698126
0.0100521
0.0212219
0.0246523
0.0231284
0.0102407
0.0265756
0.00780894
0.0276529
0.0224579
0.00408995
0.00117914
0.00920458
0.0229989
0.0265623
0.0128626
0.0137626
0.0190905
0.00594285
0.018928
0.0217932
0.00912533
0.0073949
0.0128964
0.0181559
0.0129962
0.0175798
0.00292786
0.0334826
0.0209644
0.0187557
0.0426784
0.00859746
0.0190427
0.0235064
0.0112561
0.0223374
0.00809998
0.0247626
0.0107321
0.0090779
0.0277589
0.0284873
0.0285306
0.0376039
0.0203126
0.0202949
0.0247885
0.0237837
0.00452078
0.0226382
0.0255422
0.0020659
0.00731622
0.00741298
0.0213821
0.00632464
0.0257789
0.00352046
0.0101087
0.0114757
0.0108424
0.0245716
0.00782141
0.00717809
0.0158641
0.00626193
0.0182046
0.00422633
0.015267
0.0248852
0.0105157
0.0416595
0.0334456
0.0146528
0.0136269
0.019163
0.00363585
0.0288879
0.0222798
0.0219309
0.021195
0.00884196
0.0322267
0.00686851
0.0172829
0.0236822
0.0211079
0.0236873
0.00761659
0.0087955
0.00901284
0.00966283
0.0249288
0.00725056
0.0260304
0.0346917
0.0353618
0.0108735
0.0241562
0.0270778
0.00612104
0.00301779
0.0263688
0.00563144
0.00783932
0.0244943
0.0069633
0.0215887
0.0214122
0.0323835
0.0118607
0.0247906
0.0118325
0.022795
0.00706946
0.00936149
0.0078713
0.0157964
0.0160593
0.0234996
0.0258172
0.015944
0.041515
0.00465593
0.0109979
0.0100649
0.00540779
0.0159934
0.0171111
0.0237979
0.0154173
0.0291756
0.0183491
0.00857492
0.00566071
0.00964501
0.0334816
0.027901
0.0233507
0.028965
0.022024
0.0073349
0.0107422
0.0072966
0.00666435
0.00633311
0.00771935
0.0133734
0.00108358
0.0264752
0.00408297
0.0295402
0.00786813
0.0247923
0.00689848
0.0250959
0.0265142
0.0202158
0.00982503
0.0390865
0.0262229
0.0204371
0.0197451
0.00679364
0.0233037
0.00371315
0.0102869
0.0103735
0.0107579
0.0203515
0.00892134
0.0104016
0.023043
0.0428037
0.0212829
0.023367
0.0169755
0.01826
0.0163718
0.0135671
0.0131503
0.0323308
0.0155445
0.00155716
0.0232899
0.0423957
0.0149178
0.0315788
0.01828
0.0216358
0.00953329
0.00784118
0.0247042
0.00903078
0.0196588
0.0197332
0.0239457
0.00589581
0.00727002
0.0256968
0.0108657
0.00402528
0.00466321
0.0178046
0.00614651
0.0110199
0.0115804
0.026917
0.0262761
0.0285375
0.0268442
0.0234094
0.0114321
0.0240103
0.0107207
0.0257259
0.0289399
0.00888446
0.0235584
0.00977577
0.0193514
0.0276792
0.0185163
0.00487604
0.0225469
0.0631219
0.00486594
0.0148881
0.0100305
0.0219289
0.00290408
0.0077124
0.00904287
0.00772582
0.0239707
0.00194231
0.0153231
0.0312117
0.0136762
0.015859
0.00932244
0.0335041
0.00604889
0.0125775
0.0322254
0.0416203
0.0150515
0.0216006
0.0175533
0.0116563
0.00912912
0.00714339
0.027986
0.00330473
0.0186896
0.0178956
0.0168713
0.00506729
0.00768047
0.0271532
0.0307578
0.00411999
0.00452377
0.0050187
0.00278609
0.0363076
0.0104101
0.00420332
0.0290815
0.0322257
0.0288014
0.00616897
0.0259725
0.024154
0.0273342
0.00315375
0.0322223
0.0323848
-5.17459e-05
0.0279578
0.0270364
0.0280986
0.0179
0.0300402
0.00147505
0.00484069
0.0269911
0.00414017
0.00509073
0.00844118
0.0205616
0.0136852
0.0250883
0.00166685
0.00897793
0.0142655
0.0302619
0.00192414
0.0237857
0.00351012
0.041832
0.0424239
0.0100145
0.0607361
0.0102994
0.0102353
0.0167035
0.0169721
0.0116794
0.0162396
0.043621
0.0118555
0.0235443
0.00102258
0.0106404
0.0165318
0.00947736
0.0268735
0.00197417
0.00643585
0.0160833
0.00598308
0.0147209
0.0151111
0.00801345
0.0339789
0.00573986
0.00427549
0.000913792
0.0189615
0.0308902
0.00469384
0.000932343
0.00555651
0.00632561
0.0048445
0.0287753
0.000194903
0.00213001
0.00144474
0.0258338
0.00319186
0.0268921
0.0278131
0.0289745
0.00867923
0.000494048
0.000693874
0.00429226
0.00109803
0.0177332
0.00153808
0.0177561
0.0283277
0.00239415
0.0103083
0.0138746
0.033692
0.0311191
0.0246472
0.0117749
0.00569445
0.0324514
0.0279502
0.00250335
0.00274463
0.0121092
0.0201256
0.0084868
0.00194179
0.000342029
0.00143289
0.0270183
0.0225413
0.0104012
0.0619303
0.0223259
0.0170732
0.0119159
0.018438
0.0238794
0.0237754
0.0164971
0.0105946
0.0134071
0.0138496
0.0226379
0.00503674
0.0162101
0.00190838
0.0176914
0.0411317
0.0283244
0.0265783
0.0194179
0.0156404
0.0376618
0.0174179
0.0209917
0.00891412
0.033305
0.0313415
0.00460022
0.0170362
0.0193992
0.000499731
0.0380536
0.0103556
0.0018531
0.00505293
0.00269372
0.0337946
0.0307678
0.0314757
0.00463187
0.000374061
0.0267162
0.0179095
0.0283158
0.0290297
0.0289547
0.00182662
0.000522027
0.0276089
0.0239042
0.0246485
0.0293107
0.00168701
0.010418
0.0426203
0.00602236
0.00327452
0.0299924
0.016878
0.00728689
0.027293
0.0269628
0.0217524
0.01271
0.00823474
0.0198185
0.0112191
0.000713412
0.00117495
0.00223896
0.00841949
0.00323523
0.033795
0.0120502
0.000722878
0.000930406
0.025887
0.00914653
0.00110818
0.0630296
0.00850121
0.0101928
0.0134963
0.015378
0.0131448
0.0167039
0.0159193
0.0105352
0.0120665
0.0175822
0.0110407
0.0102911
0.0118282
0.0156758
0.0298159
0.016825
0.0159774
0.0261836
0.0338502
0.0286095
0.00806776
0.0156795
0.00445698
0.0176599
0.0350247
0.00129086
0.00320127
0.00269819
0.00906566
0.0104147
0.0259534
0.0246413
0.00747737
0.00283992
0.0202496
0.0336929
0.00103441
0.0277722
0.0108333
0.0254076
0.0236101
0.0245935
0.0319521
0.0296417
0.0380458
0.0270176
0.0226096
0.028468
0.0254846
0.0263416
0.00944087
0.0332626
0.00934906
0.00243334
0.00631549
0.0257837
0.000334751
0.0213785
0.00510189
0.00703612
0.0213676
0.01294
0.0318856
0.00602284
0.0224383
0.0072114
0.0369196
0.0106283
0.00126624
0.00164509
0.0301351
0.0200295
0.00127044
0.00323848
0.00204788
0.00655284
0.000694727
0.000453413
0.0254909
0.0245706
0.000446526
0.0244995
0.0219829
0.0263226
0.014421
0.0143761
0.0116128
0.0185968
0.0192885
0.00903701
0.0014148
0.0169321
0.0234067
0.0171798
0.032078
0.0284989
0.0169672
0.0275455
0.0106384
0.042698
0.00497191
0.0281002
0.0166378
0.000403276
0.0189768
0.00490516
0.00989828
0.00423704
0.00447137
0.0214745
0.0302126
0.00753352
0.0269614
0.00109139
0.00148161
0.00107037
0.0353948
0.0353063
0.0337306
0.0362476
0.0300273
0.0278218
0.00934141
0.0062195
0.01041
0.00257489
0.0197363
0.00876391
0.0235135
0.0128053
0.0101237
0.00323184
0.000130469
0.0074051
0.00397971
0.0315236
0.0136719
0.00742919
0.00705008
0.013179
0.0014635
0.0221381
0.00716422
0.0277581
0.00510831
0.00365181
0.0182755
0.0183017
0.0279625
0.0334049
0.0293917
0.0225156
0.0126812
0.0138005
0.0267807
0.000396242
0.00135325
0.0262266
0.0267329
0.000162149
0.00076575
0.00399301
0.0264299
0.00735214
0.0160457
0.0341384
0.033008
0.0167525
0.0397124
0.0126278
0.0110551
0.0113285
0.00752998
0.00460253
0.027733
0.00468957
0.0169456
0.0205377
0.031455
0.00992887
0.011268
0.0106769
0.025344
0.025743
0.0258121
0.0364224
0.00335637
0.0293905
0.0291259
0.0296951
0.0161182
0.000546987
0.0346284
0.0359275
0.033167
0.0195174
0.0204597
0.0224964
0.0210668
0.0248993
0.0192578
0.000849992
0.0264329
0.0121817
0.00863648
0.0268507
0.00196514
0.00121204
0.00457124
0.00417221
0.0322831
0.012916
0.0046847
0.00670276
0.0115326
0.0238645
0.0112127
0.0102416
0.0216412
0.015085
0.000851294
0.0277921
0.017617
0.0289482
0.014838
0.00298087
0.0226578
0.0224869
0.0011286
0.0129611
0.0120148
0.00095609
0.00117222
0.0274703
0.031622
0.0127078
0.0163525
0.00190965
0.0293858
0.0365066
0.0305059
0.0210945
0.00975112
0.0281722
0.0213664
0.0115247
0.0157283
0.00885763
0.00869314
0.0143707
0.0270281
0.00491121
0.0173732
0.0112095
0.010153
0.000445512
0.0300718
0.0119287
0.0311689
0.00849515
0.0255501
0.029519
0.0144903
0.0146937
0.0308633
0.0249772
0.0279817
0.0108512
0.0125279
0.024828
0.0237061
0.0187501
0.0197079
0.0290033
0.0296304
0.0388889
0.0228971
0.0258845
0.00160214
0.00123323
0.0264504
0.0241672
0.0122788
0.0285783
0.00413048
0.0203439
0.0224371
0.0282202
0.00346631
0.0290024
0.0263916
0.0313384
0.0297803
0.0311897
0.0147148
0.0268187
0.0118558
0.0203539
0.0199303
0.0190223
0.0323782
0.0300764
0.0291007
0.0245623
0.0133628
0.0175448
0.0192439
0.0295756
0.0189813
0.000267356
0.0308499
0.0338549
0.0159579
0.0136339
0.00545254
0.00422679
0.0112116
0.0300259
0.00930386
0.0101306
0.0368449
0.0151182
0.00549202
0.00783039
0.000771603
0.0144164
0.016242
0.0147453
0.027479
0.00102646
0.0318298
0.00263288
0.0310435
0.029986
0.0365946
0.0140921
0.0142624
0.0123848
0.0232377
0.0205272
0.0242913
0.0372164
0.0271475
0.0287884
0.0188768
0.0231115
0.0137235
0.0240766
0.0210829
0.00455841
0.00398163
0.0171844
0.00166085
0.01218
0.0319924
0.0337556
0.0061879
0.0310952
0.020417
0.0326469
0.0176391
0.0183585
0.00263016
0.00135016
0.023764
0.0213854
0.0103591
0.013707
0.0128078
0.0198785
0.0139013
0.0268681
0.02907
0.0370213
0.0284371
0.0307289
0.0186671
0.0131556
0.0154081
0.00129074
0.00250882
0.00509137
0.0135631
0.0121426
0.0214914
0.01257
0.0225119
0.025485
0.0282263
0.0129804
0.00838677
0.0380308
0.0201032
0.0338188
0.0334537
0.0149355
0.0342711
0.00362771
0.028346
0.00882806
0.0163976
0.0065348
0.0128062
0.0139053
0.0324689
0.0327571
0.000948468
0.0296055
0.0351877
0.0405086
0.0131742
0.0248827
0.0286145
0.0291382
0.0115862
0.0125504
0.0268738
0.0405913
0.0267956
0.00488586
0.0237617
0.039782
0.0230657
0.0228919
0.0221619
0.0107746
0.0334289
0.028769
0.0335412
0.00296396
0.0236143
0.00209105
0.0200247
0.0283007
0.00596737
0.028183
0.00846418
0.027075
0.0368578
0.0159267
0.000659342
0.0177094
0.0192909
0.00121705
0.0118646
0.012304
0.0191524
0.0137485
0.038845
0.0310038
0.0121566
0.0120348
0.0300432
0.0168686
0.0285745
0.0376494
0.0293009
0.00124109
0.00109523
0.0308726
0.0267707
0.0189214
0.0206583
0.0239572
0.0197948
0.0205598
0.0334123
0.0295399
0.0354416
0.0265545
0.0233577
0.00349767
0.0343746
0.00446663
0.0128881
0.0319144
0.0342034
0.0276499
0.0143612
0.0127406
0.000595833
0.0297292
0.0187286
0.0316232
0.0172933
0.0333213
0.0354764
0.0223073
0.0238748
0.0142416
0.00694766
0.0387355
0.0185091
0.0238151
0.0182338
0.0169914
0.0245469
0.0391583
0.0225726
0.0214843
0.042146
0.00364096
0.0330818
0.0204142
0.0407444
0.0212319
0.0169754
0.0329139
0.0335264
0.00615164
0.0126642
0.00711275
0.00846984
0.0289184
0.0152597
0.0167169
0.000627895
0.0134862
0.0489858
0.0137309
0.0144294
0.0198254
0.0204194
0.0193943
0.030613
0.031214
0.0228468
0.0120917
0.0308823
0.0173218
0.0322041
0.0289696
0.029036
0.0320481
0.0327456
0.0301436
0.0115336
0.00105985
0.0343465
0.0104293
0.0363525
0.040287
0.0377172
0.0137693
0.0344764
0.0232184
0.00370598
0.00307434
0.00489757
0.0309141
0.032136
0.0318468
0.02946
0.035216
0.014143
0.0120762
0.03213
0.0360216
0.0171479
0.0319552
0.0341537
0.0226805
0.0131981
0.0388364
0.0344931
0.0298693
0.0242686
0.0309214
0.0251423
0.0333913
0.00288017
0.0249948
0.0298359
0.0343043
0.024537
0.0322347
0.0163164
0.0409574
0.0258631
0.00356583
0.0311038
0.00743602
0.00040084
0.00699066
0.0244628
0.0207685
0.024083
0.0308552
0.0335054
0.0129208
0.0266872
0.0152536
0.0208751
0.0194863
0.0194253
0.011936
0.0315308
0.0213415
0.0219794
0.0314266
0.0223788
0.0110614
0.0107192
0.0221275
0.023252
0.021146
0.0295752
0.030075
0.00176776
0.0208315
0.0314038
0.0301598
0.0217025
0.022126
0.0182314
0.0226517
0.0397545
0.00187662
0.0108522
0.0327891
0.00502508
0.01457
0.0156662
0.0149739
0.0369329
0.0389111
0.00468883
0.0397214
0.0353745
0.0254679
0.0252712
0.0359886
0.0261775
0.0333486
0.0311794
0.00629818
0.0139891
0.0378022
0.000593101
0.000992771
0.0361776
0.0336678
0.00572092
0.0356349
0.0261875
0.0230818
0.0149297
0.033928
0.0332726
0.0119914
0.0314468
0.0292254
0.025807
0.0230132
0.0015085
0.00243491
0.00166795
0.0263377
0.0302586
0.0192922
0.0346085
0.0381914
0.0187558
0.0168493
0.0118382
0.00701131
0.0418714
0.000323673
0.00480021
0.0153241
0.00188384
0.00051123
0.000922805
0.0161436
0.0118621
0.00152461
0.0523059
0.0328491
0.0250969
0.0385191
0.0215353
0.0413289
0.00659855
0.0132967
0.013811
0.0398484
0.0398341
0.0215507
0.0112745
0.022743
0.0204702
0.0267686
0.0247798
0.0259416
0.030073
0.00250517
0.0320652
0.0326085
0.0327301
0.0320035
0.0267046
0.0264345
0.0203763
0.0185884
0.0344357
0.0300165
0.00968561
0.00757075
0.0202486
0.0289379
0.0386181
0.00960525
0.0107687
0.0115236
0.0288178
0.0363855
0.0382157
0.0375339
0.00308877
0.00166105
0.0357758
0.00119263
0.0352542
0.0365029
0.00741202
0.0102286
0.00452361
0.0343814
0.0130248
0.0301254
0.0237071
0.0238133
0.0369008
0.0376102
0.0169647
0.0412821
0.0408739
0.0277753
0.0256466
0.000293573
0.000976449
0.0283593
0.0258245
0.0312509
0.0405838
0.0616365
0.0413051
0.0323083
0.0413693
0.0328097
0.00413146
0.0302465
0.0348513
0.0046299
0.0325463
0.00797544
0.000980991
0.0319788
0.00136456
0.0150179
0.0162335
0.0160105
0.0147752
0.000607225
0.00319066
0.010388
0.0391492
0.0365484
0.026508
0.0156464
0.0199589
0.012654
0.0159608
0.0116065
0.0152135
0.0149774
0.0135969
0.0279394
0.0238358
0.0323523
0.0238538
0.0321486
0.00232489
0.0314152
0.00157175
0.0417245
0.0326767
0.0211632
0.0269499
0.0129955
0.0170554
0.00584499
0.0045918
0.0104762
0.00709118
0.0192416
0.0315456
0.0146813
0.0246398
0.0225532
0.00920592
0.022276
0.0390042
0.00210021
0.00511265
0.0020018
0.0256169
0.0367304
0.0295667
0.00959642
0.00770916
0.036058
0.00476542
0.0363574
0.0346077
0.0628238
0.0363192
0.0360182
0.0411211
0.0385233
0.0370195
0.0289312
0.00745638
0.0298859
0.0070595
0.0304959
0.0317883
0.000205151
0.038828
0.0180194
0.00362844
0.0305486
0.0382791
0.0300757
0.0345603
0.0301648
0.0152122
0.0185875
0.0289469
0.0325725
0.0356898
0.0382812
0.00125153
0.00513685
0.0243285
0.0323255
0.0303334
0.0268585
0.0279895
0.00194597
0.0269015
0.0143948
0.0152353
0.0146499
0.0129355
0.0171421
0.0206607
0.000880842
0.0329385
0.0343198
0.0292603
0.00182884
0.0341387
0.0207549
0.0218202
0.0248689
0.0257642
0.0302627
0.0236699
0.0531671
0.00613991
0.0213971
0.0332553
0.0257053
0.0257718
0.00507269
0.0236769
0.0365677
0.0414252
0.0301829
0.0138521
0.0356286
0.0127591
0.0235909
0.0378459
0.0400953
0.0237127
0.0403872
0.0398417
0.0398747
0.0370307
0.0251074
0.0386547
0.0365787
0.0317544
0.0143485
0.0287826
0.0112587
0.0034132
0.0296449
0.00927763
0.0374683
0.0382509
0.0372344
0.0348408
0.0219754
0.0348289
0.0394534
0.0123831
0.00857962
0.0171146
0.0422542
0.028834
0.0279624
0.00728312
0.00647745
0.0330824
0.00208118
0.0202545
0.0415282
0.0355329
0.0304096
0.0312331
0.0187866
0.0165559
0.0044625
0.0323597
0.000628333
0.0118082
0.0359472
0.00172629
0.00449714
0.00668378
0.00920165
0.00552572
0.0257325
0.0284207
0.0333658
0.0218365
0.0134071
0.0484893
0.0134877
0.0155418
0.0165042
0.0347232
0.0312927
0.039415
0.0355017
0.0114373
0.0197355
0.019394
0.0192677
0.022565
0.0272211
0.0274772
0.0318448
0.0303864
0.0280606
0.0206421
0.0154583
0.0159589
0.00393672
0.0299083
0.0357381
0.0126429
0.00526398
0.0535014
0.0201998
0.0364798
0.0244889
0.0370555
0.044513
0.0285423
0.0129061
0.0110461
0.0238117
0.0391962
0.037776
0.00981698
0.0419941
0.000656279
6.3723e-05
0.0361778
0.0401758
0.0201625
0.0166442
0.0338727
0.00883612
0.0377802
0.0405952
0.0162783
0.0331151
0.0347138
0.0514621
0.00921955
0.0390718
0.0229535
0.0237707
0.0326168
0.0388191
0.00463883
0.0306817
0.0418548
0.0409193
0.04355
0.00936046
0.0342027
0.0329899
0.00467405
0.0269161
0.0390392
0.0278805
0.00413781
0.0120886
0.0257142
0.00831902
0.0279325
0.0121884
0.00108517
0.0013713
0.017225
0.00488953
0.0371083
0.0217286
0.00962087
0.0165447
0.0385982
0.0385646
0.0342246
0.0356655
0.0378868
0.0219752
0.004017
0.00824081
0.0188436
0.0322934
0.032399
0.0333208
0.0336962
0.0232165
0.0225795
0.0204213
0.028102
0.0249549
0.0250856
0.0270284
0.0410809
0.0296251
0.0322506
0.0275769
0.0306779
0.0305222
0.0154427
0.0298373
0.0232364
0.014298
0.0209601
0.0475002
0.0235882
0.0527285
0.031083
0.00914207
0.0141841
0.027271
0.0448347
0.0251955
0.0237297
0.0106078
0.0312125
0.0012236
0.00279078
0.000704006
0.0388186
0.0385206
0.0391149
0.0201374
0.0424248
0.00750598
0.0401725
0.0406439
0.0391557
0.00416756
0.0447598
0.0393629
0.00315472
0.0419791
0.0237635
0.0247332
0.0235318
0.0323993
0.0353587
0.028982
0.0304452
0.032176
0.019821
0.0194613
0.00509054
0.0407015
0.032113
0.0367555
0.0278958
0.0355741
0.0399988
0.0148566
0.0383295
0.00392787
0.0285017
0.0133452
0.00166709
0.000482846
0.0170847
0.0358468
0.0136171
0.0326094
0.0331618
0.011097
0.0348923
0.0132798
0.0418462
0.0332383
0.0412198
0.0310558
0.0169553
0.0329345
0.0344183
0.0384628
0.00879096
0.0338763
0.0336997
0.0355215
0.0382171
0.02733
0.0358798
0.0290426
0.00402204
0.0343721
0.0088966
0.0258143
0.0271918
0.0186882
0.0298345
0.0452209
0.0228108
0.0211992
0.0220559
0.0154055
0.028928
0.0108131
0.0191563
0.0355628
0.0169442
0.0332673
0.0100448
0.0358503
0.0297979
0.00933648
0.0252967
0.0374384
0.00987401
0.0294322
0.0193682
0.00261087
0.000594904
0.00272256
0.0376149
0.0245766
0.028114
0.0213799
0.0210082
0.0374822
0.0408426
0.0394335
0.0300292
0.0388467
0.0316585
0.041302
0.0214769
0.0420011
0.0416792
0.0415412
0.0403191
0.0392396
0.00461431
0.0327547
0.039224
0.0300965
0.0271007
0.0437432
0.0392639
0.0197958
0.0408057
0.00419232
0.037174
0.0387415
0.0272602
0.0256767
0.0351184
0.0365708
0.0350358
0.00181305
0.0410703
0.0309561
0.0115387
0.000902873
0.0404785
0.0124639
0.00526608
0.00356349
0.000486976
0.0289657
0.00925223
0.0489103
0.0147351
0.0348229
0.018598
0.01405
0.0202275
0.0338088
0.0145144
0.0402276
0.0333814
0.0196993
0.0379281
0.0336848
0.0289642
0.045292
0.030558
0.0389201
0.0250747
0.0420996
0.0247699
0.0245203
0.00517992
0.031206
0.0300061
0.0316532
0.0366172
0.0266708
0.0422265
0.0315914
0.0306595
0.0043005
0.00951259
0.0424245
0.0223917
0.00834427
0.0226867
0.0560316
0.0134645
0.0438753
0.0100603
0.00191371
0.0165795
0.0174631
0.0155445
0.0291256
0.00906689
0.026988
0.0336443
0.0241988
0.00820162
0.00901443
0.0395975
0.00246274
0.0296338
0.0275679
0.0184264
0.0370258
0.0441284
0.0191272
0.0369956
0.0344803
0.0306505
0.00057933
0.0296657
0.033234
0.0394002
0.0403178
0.0455763
0.0422212
0.00526054
0.00347109
0.0426677
0.00520105
0.038168
0.0409587
0.0380149
0.00814447
0.0466568
0.0180173
0.0340023
0.0408608
0.0367276
0.0377953
0.0363808
0.0345505
0.0316364
0.0186712
0.0347328
0.0261929
0.0031371
0.0170128
0.0379787
0.0344553
0.044734
0.0473098
0.00269654
0.0247627
0.00409216
0.0076303
0.0398619
0.00764807
0.00652208
0.0418596
0.00951461
0.0160548
0.0242624
0.0401404
0.000499267
0.0396117
0.033936
0.019003
0.0389535
0.0411405
0.0212101
0.0388714
0.0315011
0.0420143
0.0387206
0.0381549
0.0280327
0.0432005
0.0301833
0.0086707
0.00929993
0.0419919
0.0313957
0.0384474
0.0465889
0.0344839
0.0368993
0.0459967
0.00910877
0.0418972
0.0410472
0.0420457
0.0231787
0.0606695
0.00708592
0.0119733
0.0186224
0.0170824
0.045373
0.0136478
0.0332678
0.0263081
0.0275791
0.0256111
0.00948829
0.0171792
0.0110463
0.0393512
0.00193995
0.0418371
0.0426389
0.0434782
0.0203618
0.0358494
0.053742
0.0334115
0.00302947
0.0382258
0.0130373
0.0161618
0.0442044
0.020627
0.0437746
0.0442916
0.0295979
0.00484058
0.0393047
0.0377807
0.0392183
0.0293899
0.0387086
0.0387416
0.037341
0.0329011
0.0339083
0.0348271
0.0350025
0.0289509
0.0268953
0.00259536
0.0403521
0.024442
0.0259058
0.0284971
0.0145734
0.0121649
0.0486021
0.0377999
0.0345142
0.0440682
0.0455318
0.0170781
0.00707936
0.0117837
0.0476428
0.0246137
0.0125623
0.0405994
0.0107049
0.0354037
0.0203992
0.00909319
0.00870895
0.0334493
0.0195127
0.0365309
0.001564
0.0322345
0.00355289
0.0345795
0.0200041
0.0291076
0.0297297
0.0283506
0.0365631
0.0355054
0.0399028
0.0124443
0.0551085
0.0531219
0.0465141
0.031743
0.0315861
0.024717
0.0333224
0.0373796
0.0393665
0.0449848
0.000294246
0.017528
0.0193024
0.0597001
0.0402101
0.00487335
0.0411227
0.00531186
0.0236293
0.0270264
0.0166016
0.0121111
0.0467849
0.0375946
0.012819
0.0254903
0.0482194
0.0164032
0.010298
0.000955877
0.0235377
0.00346306
0.0435127
0.0102175
0.0460065
0.0550128
0.0138236
0.0383492
0.000551049
0.000571054
0.01336
0.0446025
0.0444629
0.042454
0.0375733
0.0028612
0.0289571
0.0622708
0.027992
0.037367
0.0356845
0.0370513
0.0376829
0.0297838
0.0413841
0.0363511
0.0127424
0.00311382
0.00342468
0.00347956
0.0348825
0.0390598
0.0219632
0.0390215
0.00927488
0.00963057
0.0109659
0.0337232
0.045485
0.0449266
0.0472301
0.0265337
0.0133561
0.041369
0.0126157
0.0333902
0.0362764
0.0376257
0.0205085
0.0413075
0.0187247
0.0341819
0.0354572
0.0339849
0.0179401
0.0254558
0.0632965
0.0158898
0.00408443
0.0324932
0.0276912
0.0343933
0.0225406
0.0263378
0.028095
0.0299054
0.0247347
0.0361469
0.0526883
0.0271637
0.0407498
0.0187475
0.0332119
0.0254187
0.032173
0.0346728
0.0330673
0.0446187
0.00638052
0.0439433
0.0288576
0.00135351
0.0190305
0.0458527
0.0409018
0.0245036
0.00578127
0.0371601
0.0133762
0.0473869
0.0134171
0.0383395
0.0362625
0.0429136
0.0323807
0.0394197
0.0268935
0.00448094
0.035274
0.00404687
0.0430454
0.000535943
0.00141988
0.00914161
0.00331793
0.0294369
0.00154657
0.0477324
0.0480283
0.0402563
0.0413935
0.045252
0.0452162
0.0437296
0.0444667
0.0123915
0.0480974
0.0436637
0.00967868
0.0412233
0.0507403
0.028618
0.000364349
0.0395739
0.0431933
0.0371772
0.0344214
0.03887
0.0464171
0.00449678
0.0408783
0.00196103
0.00115258
0.000310627
0.0354653
0.0251572
0.0109458
0.0207543
0.0404611
0.0598732
0.0283268
0.037028
0.0381239
0.0461304
0.00360893
0.0628931
0.0425023
0.0123335
0.0302902
0.0148048
0.0316915
0.0391455
0.0150328
0.0420926
0.0326914
0.0178083
0.0278491
0.0171235
0.0343506
0.0279269
0.0443127
0.0454009
0.0131041
0.0236595
0.0284825
0.0279067
0.0379426
0.0537348
0.0193934
0.0378374
0.0287689
0.0191584
0.024558
0.0483067
0.0269657
0.0250568
0.000102275
0.0512457
0.0503617
0.00177072
0.0413777
0.00319123
0.031216
0.0476358
0.0071738
0.0440192
0.0442454
0.0467883
0.0450555
0.0361751
0.0370025
0.0404935
0.0110837
0.0388911
0.013355
0.00358114
0.0206566
0.00561502
0.0368782
0.040158
0.0171402
0.0172402
0.0209106
0.0469108
0.00534602
0.0399721
0.0239439
0.0463134
0.0327203
0.0454116
0.0436112
0.0487422
0.0435166
0.00195446
0.0288304
0.0431831
0.0299931
0.039194
0.0378351
0.00780731
0.0452995
0.034479
0.0477326
0.00026587
0.0435009
0.0107623
0.0234562
0.00315163
0.0369416
0.0361221
0.0560853
0.0342011
0.0114412
0.042527
0.0406415
0.00135532
0.00096263
0.0554796
0.0379732
0.013308
0.0617035
0.015097
0.0238236
0.0413641
0.000624164
0.0046904
0.0625699
0.0121081
0.0179626
0.0178935
0.0295025
0.0405361
0.0234096
0.0170693
0.0412072
0.0465051
0.0432646
0.0402212
0.0236461
0.0405109
0.02849
0.0173171
0.035668
0.0351229
0.0287186
0.0322815
0.0234744
0.0220231
0.040836
0.0421408
0.0426467
0.0355049
0.0504024
0.0341912
0.0355445
0.0333683
0.0349527
0.04237
0.0304727
0.00680459
0.0461862
0.0447931
0.0415988
0.00712552
0.0398425
0.0345289
0.0387329
0.0350872
0.047527
0.0414081
0.00549436
0.0168288
0.0469049
0.0474307
0.0512362
0.00441835
0.0230211
0.0159537
0.0436404
0.0421853
0.045335
0.0506926
0.051016
0.0439189
0.0501668
0.0432259
0.0426521
0.0274654
0.0451441
0.0382935
0.0500611
0.0607846
0.0378559
0.0354002
0.0627363
0.0313189
0.0224498
0.0467781
0.0256782
0.0500327
0.00155162
0.0390225
0.0240199
0.0579595
0.037403
0.0354994
0.0478134
0.0229569
0.00163229
0.0211805
0.0584987
0.000676484
0.0001069
0.0383592
0.0149948
0.016028
0.0158665
0.0114474
0.00979136
0.0108271
0.00909897
0.0171798
0.0446293
0.0500743
0.00523315
0.0449841
0.0399795
0.00420831
0.0373921
0.0461468
0.0467466
0.0263259
0.032392
0.0249125
0.0455415
0.0258818
0.0399587
0.0354439
0.0263121
0.036575
0.0448953
0.0253999
0.0251287
0.0362183
0.0356305
0.0300352
0.0488207
0.00585642
0.0512392
0.0308804
0.0266195
0.0293691
0.0461534
0.0201648
0.0156086
0.0466074
0.0411744
0.0421954
0.045148
0.0579466
0.0523518
0.0467388
0.0420709
0.0459955
0.0485485
0.0469394
0.0290438
0.049073
0.0471503
0.0136519
0.0422299
0.0312879
0.0492125
0.0407169
0.0484101
0.0243822
0.0435119
0.0306872
0.0357075
0.0453087
0.0490918
0.0134428
0.0399567
0.0316781
0.0308196
0.0324065
0.0504186
0.0408782
0.0431457
0.000982591
0.0366909
0.000287974
0.0432794
0.00382146
0.0591193
0.014843
0.0304928
0.0119874
0.0116385
0.0104643
0.0395581
0.0430947
0.0297479
0.0303729
0.0393827
0.0269643
0.0453552
0.0464148
0.03369
0.0509927
0.0443661
0.0513723
0.0446176
0.0414771
0.0479215
0.0269652
0.0349148
0.0361843
0.0287245
0.00664144
0.048255
0.047569
0.0564257
0.0146686
0.044341
0.0393074
0.0155597
0.0356626
0.0438388
0.0382866
0.0500134
0.0474497
0.0453286
0.0494643
0.0366155
0.0472711
0.0490383
0.0475992
0.046747
0.0388426
0.0434437
0.0344429
0.0506406
0.0422777
0.0627932
0.061849
0.0407393
0.0499943
0.0401296
0.0392968
0.0384477
0.0325237
0.0463216
0.0408747
0.044307
0.0465263
0.0508285
0.0445022
0.0380031
0.0424297
0.0424141
0.0496719
0.0408549
0.0438247
0.0466687
0.0484946
0.00357479
0.0444377
0.00471078
0.00543053
0.00584407
0.00280443
0.0439401
0.00954182
0.000931289
0.0321527
0.0437225
0.0597336
0.0607928
0.0503812
0.0401932
0.0491807
0.0268487
0.0556583
0.0357907
0.0391199
0.0427872
0.0463116
0.0302064
0.0457719
0.0475361
0.0343199
0.0368852
0.0477126
0.0373585
0.0550861
0.0479197
0.0531288
0.0164139
0.00278305
0.0442759
0.0437918
0.0429768
0.053376
0.0453661
0.0545426
0.0452486
0.0487807
0.0288457
0.0508231
0.0367061
0.0490976
0.038779
0.0495827
0.0509294
0.0307699
0.0449124
0.0334292
0.0467609
0.0330937
0.0471141
0.0408993
0.0392902
0.0473174
0.0453642
0.0410733
0.045132
0.0312848
0.0545691
0.0424806
0.0452879
0.0466432
0.0484925
0.0132406
0.0327871
0.0490319
0.00471595
0.00659336
0.0502507
0.0439969
0.000643183
0.0597685
0.0396856
0.0552941
0.0434433
0.0379013
0.0379151
0.0520572
0.0434929
0.0372488
0.0392981
0.0423543
0.0436537
0.0431761
0.0560336
0.0479014
0.0482037
0.0323931
0.0324521
0.0507832
0.0408494
0.0480836
0.0481998
0.0544277
0.0597123
0.0571934
0.0381246
0.0507847
0.0401021
0.0471357
0.0459899
0.0394476
0.0180781
0.0501163
0.0605776
0.0489365
0.0375581
0.0432873
0.0375718
0.0619937
0.0346333
0.0444941
0.0376924
0.0394964
0.0472061
0.0499722
0.0399391
0.0478571
0.0468543
0.0424589
0.0486217
0.0471667
0.0471183
0.0421318
0.050664
0.0510323
0.0501414
0.0430686
0.0491649
0.0495877
0.0491529
0.0153347
0.0502139
0.0356892
0.0366656
0.0452888
0.0542969
0.0360734
0.0437532
0.050848
0.0429123
0.0440932
0.0377189
0.057184
0.0422658
0.0498513
0.036074
0.0360449
0.0435888
0.050398
0.035808
0.0429711
0.0422689
0.0496963
0.0506442
0.0426192
0.0432574
0.0540471
0.0541454
0.0443844
0.053288
0.0525547
0.046962
0.053463
0.0219691
0.0534404
0.0503247
0.0493859
0.0499598
0.047925
0.0500908
0.0554229
0.0451359
0.050036
0.0396387
0.0456958
0.0408614
0.0470362
0.0471094
0.0573042
0.0480026
0.056854
0.0570782
0.0407307
0.046685
0.0487058
0.0327907
0.0420136
0.0436363
0.0437152
0.0554216
0.0482682
0.0376695
0.0429411
0.0352768
0.0514785
0.0357776
0.0374684
0.0428121
0.0439838
0.0445402
0.0498797
0.0491686
0.0499629
0.0414341
0.0366155
0.0389824
0.0489208
0.0509716
0.0335976
0.0501882
0.0569904
0.0529061
0.0420711
0.0487183
0.0475836
0.0494695
0.0459785
0.0453414
0.0558948
0.0420762
0.0452947
0.0532582
0.041567
0.0480785
0.0493763
0.0400357