/*--------------------------------*- C++ -*----------------------------------*\
| =========                 |                                                 |
| \\      /  F ield         | OpenFOAM: The Open Source CFD Toolbox           |
|  \\    /   O peration     | Version:  2212                                  |
|   \\  /    A nd           | Website:  www.openfoam.com                      |
|    \\/     M anipulation  |                                                 |
\*---------------------------------------------------------------------------*/
FoamFile
{
    version     2.0;
    format      ascii;
    arch        "LSB;label=32;scalar=64";
    class       surfaceScalarField;
    location    "0.008";
    object      phi;
}
// * * * * * * * * * * * * * * * * * * * * * * * * * * * * * * * * * * * * * //

dimensions      [0 3 -1 0 0 0 0];

oriented        oriented;

internalField   nonuniform List<scalar> 
68568
(
-1.3634e-07
1.41321e-07
-2.66822e-08
2.17013e-08
1.31852e-07
-6.69782e-08
-7.05275e-08
5.65415e-09
1.58574e-07
-1.21665e-07
-5.39636e-08
1.70546e-08
-4.31874e-09
2.25265e-09
-1.50456e-07
1.52522e-07
-1.40673e-09
1.27397e-07
1.11955e-09
-1.2711e-07
1.26135e-07
-4.21056e-10
-1.15375e-07
-1.03381e-08
7.55555e-08
-8.1845e-08
1.19322e-07
-1.13032e-07
-3.54854e-08
-2.41604e-08
1.35201e-07
1.18304e-07
-1.42084e-08
-9.99264e-08
-4.16882e-09
1.35533e-07
4.75179e-08
-5.11998e-08
9.03681e-08
1.2371e-07
-5.55044e-08
-5.82409e-08
-1.80346e-07
1.71609e-07
-1.27254e-07
6.22204e-08
-5.49396e-09
1.63985e-07
-1.69304e-07
1.26358e-08
-7.31699e-09
-6.45018e-08
-4.69656e-08
1.10249e-07
1.21838e-09
1.15856e-07
8.11508e-08
-1.20164e-07
-7.68424e-08
-4.60582e-08
-7.14524e-08
1.04385e-07
1.31252e-08
1.04413e-07
-1.08949e-07
-4.15223e-08
1.01298e-07
-4.37892e-09
-3.36084e-10
-9.65833e-08
7.78635e-08
-1.3978e-07
6.95943e-08
-7.67787e-09
1.04947e-07
-3.15879e-10
-1.04678e-07
4.64636e-11
-1.56422e-08
8.0997e-09
1.26302e-07
-1.18759e-07
-4.15929e-08
1.71102e-07
-2.46509e-08
-1.04859e-07
-5.03708e-10
-2.36327e-10
-1.24275e-07
1.25015e-07
-6.98275e-08
-4.44869e-08
1.07963e-07
6.3517e-09
-8.89867e-08
-3.62707e-08
-1.10824e-08
-5.91308e-08
1.28896e-07
8.09856e-09
7.01727e-08
4.26869e-08
-2.70796e-08
-8.57799e-08
-6.17747e-08
-9.31225e-08
1.19412e-07
4.37073e-08
-1.09019e-07
3.5374e-09
1.37943e-07
-7.417e-08
-1.29868e-07
6.60943e-08
-1.22394e-08
2.47023e-09
1.09181e-07
-9.94122e-08
1.41607e-07
-2.98583e-08
-9.96952e-09
-1.01779e-07
1.10859e-07
-8.57221e-08
-5.35735e-08
2.84363e-08
-1.85027e-10
1.02248e-07
-1.02076e-07
1.3291e-11
1.09915e-07
7.95807e-08
-7.98846e-08
7.3507e-10
-4.31236e-10
3.86622e-08
-1.43691e-07
8.38316e-08
2.11966e-08
-1.47719e-07
1.28798e-07
5.75825e-08
-6.9526e-08
-4.16285e-11
-2.59791e-10
-8.28376e-10
1.06579e-07
-8.04021e-10
1.04764e-07
-1.04542e-07
-2.83995e-10
6.26836e-11
-2.41563e-08
-1.4469e-07
1.08743e-07
1.75083e-07
-1.34263e-07
-1.49563e-07
-5.53991e-08
-9.38806e-08
2.65135e-07
-1.31694e-07
1.48976e-07
-1.254e-07
1.08118e-07
-1.14338e-07
6.12216e-08
-5.12479e-09
1.048e-07
-1.02308e-07
-3.30913e-09
8.17013e-10
9.01096e-08
2.32392e-08
1.04881e-08
-1.23837e-07
1.93051e-09
-1.39278e-07
1.34753e-07
3.13951e-08
-2.68702e-08
-7.57883e-09
-8.77496e-08
9.48871e-08
4.41391e-10
-1.84736e-07
1.25685e-07
1.66398e-07
-1.06145e-07
-3.57406e-10
-3.36828e-10
1.66405e-09
-1.37066e-09
9.91415e-08
-9.94349e-08
3.63181e-08
-1.05924e-07
-1.84647e-09
8.60105e-08
-9.18488e-08
3.29833e-09
2.53997e-09
-7.81387e-08
1.29816e-07
-5.75162e-08
5.83882e-09
1.34223e-07
-6.97199e-08
-6.77244e-08
3.22097e-09
8.52008e-08
-8.53157e-08
-3.88839e-10
-1.02285e-07
-1.84671e-09
1.06384e-07
6.89489e-08
6.52588e-08
-6.96418e-09
-1.27244e-07
-5.26252e-09
1.25597e-07
-1.20965e-07
6.30337e-10
8.13098e-08
-1.37456e-07
-2.98467e-09
9.95704e-08
-1.6523e-08
3.04425e-08
-1.1349e-07
1.35304e-07
-2.09225e-08
-1.53848e-07
3.94667e-08
3.80019e-08
7.44892e-08
-1.11928e-08
5.90007e-08
-1.16897e-07
6.43476e-08
-6.45143e-09
1.24929e-07
-1.26346e-07
1.05121e-11
-9.0979e-08
1.29579e-07
-2.87179e-08
-9.88241e-09
-1.87012e-07
-1.38609e-07
2.63375e-07
6.22458e-08
-1.04885e-07
3.88456e-09
1.06536e-07
-6.47903e-09
1.24324e-07
-1.3169e-07
-4.86764e-08
5.60423e-08
-1.1474e-07
5.94073e-08
6.13829e-08
-6.05074e-09
-8.68332e-08
-4.48397e-08
-4.46075e-08
-9.49492e-08
9.49421e-08
4.97911e-12
2.10326e-12
3.61305e-08
1.58604e-07
-6.0511e-08
9.77294e-08
-5.73789e-08
4.566e-08
-6.70314e-08
-7.39682e-08
1.37005e-07
3.99438e-09
-4.25836e-10
-1.99509e-07
-3.61715e-10
2.00296e-07
6.95461e-08
-4.29645e-08
7.81821e-08
-2.81328e-11
6.12366e-08
-6.11638e-08
-4.47321e-11
-1.74128e-08
1.28124e-07
6.02857e-08
-1.70997e-07
1.55209e-07
-7.82885e-08
-8.16339e-08
4.71329e-09
1.10355e-07
3.43347e-08
-3.29403e-08
-1.1175e-07
1.47841e-07
-7.02207e-08
6.96163e-08
-1.47236e-07
3.19578e-08
1.18888e-08
1.03994e-07
-8.11627e-08
7.7477e-08
-1.46771e-07
1.16601e-07
5.04783e-10
-1.13305e-07
-3.80157e-09
-3.58475e-08
-2.54907e-07
1.76417e-07
7.70211e-08
7.80654e-08
-6.11039e-09
-5.42614e-10
3.88251e-10
8.5848e-08
-8.56937e-08
-1.14878e-07
1.15013e-07
-3.71095e-10
-5.51213e-08
1.10453e-07
5.88936e-09
6.58995e-09
8.01185e-08
-4.31839e-09
-8.239e-08
-1.17172e-07
5.20396e-08
8.1866e-08
-1.6734e-08
-4.06508e-08
-7.42898e-08
-9.33445e-09
-7.53235e-08
1.47253e-07
5.09147e-09
6.64887e-08
6.9357e-08
-1.3112e-07
-4.72523e-09
1.06632e-07
6.36914e-10
-1.06852e-07
-4.17813e-10
-4.89657e-09
-1.30779e-07
-1.24929e-08
1.36505e-07
-1.79869e-09
1.06497e-07
-1.09502e-07
5.29294e-08
-7.07586e-09
9.13221e-08
-5.42103e-10
-8.9693e-08
-1.08691e-09
1.13262e-07
-7.38324e-10
1.24108e-07
-4.17334e-08
7.28344e-08
-8.03332e-12
-9.66169e-08
-3.30178e-09
1.04339e-07
-4.42081e-09
8.52888e-08
-4.63589e-08
-8.41771e-08
2.1142e-11
8.43808e-08
-2.24787e-10
-3.20644e-08
-1.24781e-07
1.33779e-07
2.30669e-08
-1.38138e-09
1.21101e-07
-1.19303e-07
-4.16393e-10
-8.01588e-08
-3.36304e-08
1.1458e-07
-7.90781e-10
-4.16898e-09
2.23314e-09
-1.00349e-07
-1.49694e-07
8.08287e-08
7.44726e-08
-5.60714e-09
1.8437e-10
-9.45652e-08
9.46294e-08
-2.48631e-10
1.25869e-07
-3.69744e-10
-4.43307e-11
-1.0135e-07
2.0251e-10
1.01192e-07
-9.34546e-08
1.8894e-08
8.57447e-08
1.20257e-07
-6.59799e-08
4.72359e-09
1.28522e-07
-1.27868e-07
-1.28929e-08
-1.14206e-07
1.28574e-07
1.71518e-08
-3.15204e-08
6.56619e-08
-6.7481e-08
1.37123e-07
3.83751e-09
1.02893e-07
1.38094e-07
-1.2083e-09
-1.38268e-07
6.23681e-08
-1.30041e-07
-3.93952e-09
7.16128e-08
1.31465e-07
-7.24614e-08
7.48461e-09
9.35551e-08
-9.15643e-08
-1.04807e-07
5.29722e-08
-2.80493e-08
-1.37549e-07
1.31544e-07
-1.74719e-08
2.34777e-08
1.49285e-07
4.09918e-08
-4.09279e-08
-1.4928e-07
-6.75742e-08
-2.71673e-08
7.35719e-08
2.11697e-08
-1.19187e-07
6.266e-08
-4.93239e-08
1.05851e-07
-1.38604e-07
-2.86826e-09
1.44108e-07
-2.63541e-09
-9.87897e-08
1.83485e-08
-5.81633e-08
-1.49467e-07
-5.86616e-09
8.85564e-08
-1.40336e-09
-1.04799e-07
-4.34212e-10
-9.8989e-08
1.28267e-07
-6.74968e-08
5.69595e-09
1.42823e-07
-7.57145e-08
-7.32295e-08
6.12123e-09
-1.21606e-07
1.64031e-07
-4.20831e-08
-3.41638e-10
7.60201e-08
-7.57658e-08
-1.2186e-07
8.87835e-08
7.07045e-09
-2.2989e-09
6.09267e-10
9.76064e-08
-9.73357e-08
-8.79965e-10
1.72513e-07
-4.38246e-08
-9.43534e-08
-9.98409e-08
1.19829e-07
1.07264e-07
-1.02471e-07
-2.56023e-09
-1.50027e-09
9.54087e-08
-9.40679e-08
1.5943e-10
-8.34489e-09
-1.23653e-07
1.20355e-07
1.16427e-08
-1.28946e-07
1.45154e-07
-9.63726e-09
-6.57066e-09
1.1143e-07
-6.67546e-09
-1.0579e-07
1.00553e-08
-7.0695e-09
-8.92198e-08
8.87105e-08
3.00703e-08
-5.88184e-09
-1.22978e-07
-1.91986e-08
1.03124e-07
-7.79099e-08
-6.01553e-09
1.44235e-07
-5.96319e-09
-1.22537e-08
-1.26018e-07
1.42257e-07
7.08011e-11
-1.93756e-09
-1.4039e-07
1.26535e-07
-1.46661e-09
-1.39884e-10
1.20555e-07
-1.20863e-07
2.63119e-10
4.51294e-11
-1.1473e-07
-7.66384e-08
1.17079e-07
1.93027e-08
-1.54965e-07
-1.03621e-07
1.03584e-07
-3.42539e-11
7.12062e-11
-1.2443e-07
-6.53128e-09
2.01487e-09
-9.54736e-08
-6.92445e-11
9.57035e-08
-1.60711e-10
-1.14146e-07
-4.6564e-10
1.14744e-07
-1.32812e-10
-1.35377e-08
1.20579e-07
-9.73946e-08
-7.48897e-09
-9.58665e-08
9.57643e-08
5.78805e-11
2.99902e-08
2.57733e-08
7.11135e-08
-1.26715e-07
6.63544e-08
-6.64473e-08
1.30338e-07
-1.30245e-07
9.64805e-08
-7.63118e-08
-2.27351e-08
2.56632e-09
5.40451e-08
4.56771e-08
-1.0028e-07
2.92807e-09
5.11213e-09
-9.91804e-08
1.12856e-07
-1.87874e-08
-4.10701e-10
9.58292e-08
-9.51612e-08
-2.57284e-10
-1.28804e-07
-7.94763e-09
1.49973e-07
1.86525e-07
-8.01557e-08
1.69258e-07
1.41208e-07
-7.08347e-08
5.64714e-09
-4.24155e-08
2.30164e-08
-9.66552e-08
1.17682e-07
8.01576e-08
8.55098e-08
-7.0634e-09
8.55063e-08
6.67654e-08
-1.46839e-07
-5.43221e-09
7.51739e-08
7.27376e-08
-6.70382e-09
1.13018e-07
-6.88205e-08
7.63576e-08
6.81397e-08
-1.15224e-07
5.41855e-08
-7.1009e-09
2.08739e-10
-9.26815e-08
-6.4969e-10
-6.80523e-11
-2.80162e-07
1.66528e-07
1.29646e-07
-9.98485e-08
1.6499e-08
8.61103e-09
3.92096e-08
4.09516e-08
-8.87721e-08
-1.18687e-07
1.73399e-09
1.18095e-07
-1.14247e-09
-9.18112e-08
9.14886e-08
7.60251e-11
2.46531e-10
1.16404e-07
-1.5062e-07
1.77479e-07
-1.43263e-07
1.35367e-08
-1.4122e-09
1.15273e-07
-2.91278e-08
6.85355e-09
-6.70437e-08
8.93181e-08
-6.62737e-08
1.27538e-07
5.09043e-09
-1.33039e-07
6.86401e-08
6.97378e-08
-5.33899e-09
-1.00746e-07
-2.33835e-08
1.04931e-07
3.17605e-10
6.98698e-08
-1.36316e-10
-7.00511e-08
1.32242e-07
-6.14595e-08
7.08243e-08
1.0896e-09
-5.57043e-11
-4.36195e-11
-8.87587e-08
1.60462e-07
-4.29209e-08
-2.66236e-08
-9.09175e-08
1.92587e-08
2.72662e-08
-1.2545e-07
8.14161e-08
-3.14531e-08
2.03489e-08
1.34102e-07
6.33754e-08
1.51018e-07
-1.73195e-07
-5.78267e-08
-6.17963e-08
5.41737e-09
1.19794e-07
5.27528e-09
-6.58407e-08
-6.5767e-08
1.24874e-07
6.73388e-09
-1.02497e-08
9.02618e-08
-1.22102e-07
-2.03732e-10
6.40864e-08
-6.42555e-09
-6.41259e-10
-1.22693e-07
1.33413e-10
1.23201e-07
-1.21201e-07
1.46548e-07
-3.53445e-08
9.9581e-09
-8.36513e-09
4.57717e-08
1.00688e-07
-1.16578e-07
6.78421e-08
-2.42622e-08
7.29985e-08
-1.27122e-07
8.58166e-08
-1.19367e-07
1.17896e-07
2.62731e-10
8.48233e-08
2.02556e-08
-1.50211e-07
-1.95404e-08
1.49495e-07
-1.65236e-07
9.08455e-08
-1.25118e-07
-1.39227e-09
1.49865e-07
2.29118e-08
6.20871e-08
-8.92661e-08
4.26725e-09
1.21679e-07
-9.0551e-08
-3.28916e-10
-9.29946e-08
-4.43395e-11
-2.14964e-07
2.15138e-07
-5.36094e-10
-8.71254e-08
-8.99385e-08
-8.6873e-08
9.33824e-08
-1.02376e-07
7.82123e-08
-9.9056e-08
1.55563e-08
5.28745e-09
1.14574e-07
-8.29359e-08
-8.62191e-09
-1.40989e-07
-1.12023e-08
1.94561e-08
1.32735e-07
-2.79927e-07
-3.03687e-10
-1.21466e-07
1.20995e-07
-7.22644e-11
-8.68782e-08
4.18912e-11
-3.66814e-11
-1.23884e-08
-8.6237e-08
1.37901e-07
-3.92753e-08
9.79978e-08
4.40526e-09
3.98537e-08
-1.25256e-07
1.24222e-07
-3.34459e-09
-5.94552e-08
1.34503e-07
-8.7786e-08
1.57264e-10
-1.18478e-07
-3.65844e-10
8.58526e-08
-8.73824e-08
1.59118e-10
-6.07969e-08
-6.12303e-08
1.14473e-07
7.55462e-09
1.03623e-07
1.62469e-08
-8.91338e-08
-3.07364e-08
-2.06253e-08
1.39766e-07
-1.2532e-07
3.38434e-09
-1.03542e-07
-1.73974e-08
1.17653e-07
-3.2773e-11
-1.17623e-07
2.76478e-12
2.20745e-08
6.80999e-09
4.99122e-08
-7.87967e-08
-1.30428e-07
6.96538e-08
-5.0661e-09
-1.06077e-07
9.95678e-08
-7.06138e-09
-2.60343e-10
1.1312e-07
1.57827e-10
-7.35854e-08
-6.63957e-08
1.33809e-07
6.17183e-09
1.19555e-07
-6.31757e-08
-6.16392e-08
5.26022e-09
1.19682e-07
-2.05602e-09
2.71374e-11
-9.47559e-08
-8.36881e-08
9.15658e-08
-1.09942e-07
-4.23391e-08
-1.52406e-08
1.67376e-07
-9.67885e-08
2.65121e-08
-1.16735e-07
1.43381e-10
-9.63226e-08
4.57559e-10
-4.131e-10
1.23247e-07
2.33843e-08
-2.48914e-08
-1.2174e-07
4.21974e-08
-1.1728e-07
-7.50948e-11
-9.94851e-11
3.47776e-08
-1.755e-07
-7.18954e-08
1.19702e-07
8.17725e-08
1.8589e-08
-1.32804e-07
-1.64567e-08
1.30672e-07
-7.55303e-08
6.27882e-09
1.23048e-07
-1.23834e-07
8.60642e-08
3.86089e-08
-8.39133e-10
-4.38763e-10
1.68245e-10
-8.81355e-08
6.06619e-08
-4.59075e-09
-1.41258e-09
-2.39612e-09
-2.27102e-09
8.6694e-08
-8.20268e-08
7.5116e-08
9.82597e-08
-9.49712e-08
-7.84045e-08
1.35816e-07
-1.50987e-07
-1.81673e-10
5.48928e-10
1.42631e-07
-8.9005e-09
-1.2563e-07
-3.83865e-08
1.39589e-07
1.02275e-08
1.10045e-07
-1.03932e-07
-5.13564e-09
-9.77215e-10
-5.78776e-10
1.04553e-07
1.52711e-07
-5.31225e-08
-1.85908e-09
8.48505e-08
-7.50666e-08
-5.66427e-10
4.50767e-10
1.28637e-07
-1.36317e-07
1.6965e-09
1.23966e-07
9.5885e-09
-1.10096e-08
9.67698e-08
-1.2213e-07
2.6062e-08
1.03295e-09
8.30223e-08
-7.42385e-10
-8.33128e-08
-1.09923e-07
1.10071e-07
-1.91631e-10
1.15156e-09
-3.07975e-10
-1.04832e-07
1.04292e-07
-3.89266e-11
-1.03285e-07
-1.64376e-10
-9.2194e-11
6.54436e-08
-9.28865e-08
-7.0191e-08
9.76338e-08
-2.68518e-11
-1.08292e-07
1.08467e-07
-1.48487e-10
-5.02997e-08
1.3647e-07
-5.89008e-08
-1.76129e-08
-1.28803e-07
6.77722e-08
-6.54306e-09
2.58807e-08
-1.48028e-08
9.89669e-08
-1.26907e-07
6.0742e-08
5.90122e-08
7.15252e-09
-1.44492e-07
-1.00549e-07
1.03635e-07
-1.16777e-07
-3.97576e-08
5.28994e-08
1.20779e-07
-1.21055e-07
1.72219e-10
1.03673e-10
-1.29034e-09
-1.67043e-07
2.79191e-10
1.68054e-07
-9.58392e-08
1.01563e-13
9.58063e-08
-1.17855e-07
1.00632e-10
1.31529e-10
6.64795e-08
-1.17893e-07
-6.41275e-09
-1.1067e-10
-1.20626e-07
-1.25867e-10
7.04879e-08
6.97625e-08
-5.49746e-09
-6.79425e-08
-6.82289e-08
1.30044e-07
6.12692e-09
-1.09107e-07
1.14109e-09
1.08111e-07
-1.44656e-10
1.15167e-07
2.81647e-08
1.01987e-07
-1.50086e-08
1.01142e-07
-4.99802e-09
-9.34348e-08
4.39188e-08
4.22253e-08
7.29073e-09
8.99595e-08
1.16955e-07
-1.01533e-07
-1.02163e-07
6.66419e-08
-6.47728e-08
-1.19741e-07
-9.56854e-08
1.04781e-07
1.10645e-07
1.02031e-07
-2.22379e-10
1.07499e-07
-1.08636e-07
1.28184e-09
-1.44517e-10
-1.19528e-07
-1.20087e-07
6.81327e-10
1.02355e-10
1.53104e-08
4.11309e-08
-1.50976e-07
1.3523e-08
-3.87963e-08
1.77889e-07
1.22479e-07
-5.71777e-08
-7.03724e-08
4.15867e-09
1.76355e-08
-1.91201e-08
1.20432e-07
-3.00232e-08
-7.12883e-08
9.96776e-08
-6.50582e-10
-9.88366e-08
-1.90421e-10
-3.71033e-08
-1.31803e-07
2.61505e-07
-9.25991e-08
9.7937e-08
-7.40327e-08
-9.92481e-10
3.06835e-10
9.58295e-08
-3.07101e-10
6.64795e-08
-6.66708e-08
1.08764e-07
-1.3927e-07
-1.17849e-07
7.18104e-08
1.14679e-07
-1.60351e-09
-2.82652e-08
-7.40843e-08
6.59176e-08
7.81906e-08
8.60269e-09
9.03938e-08
-1.17503e-07
2.09355e-09
1.36455e-07
-7.2973e-08
6.25604e-09
1.07962e-07
-1.39646e-07
1.25023e-07
-8.27894e-08
-2.83447e-08
-1.32758e-08
2.04016e-09
9.38511e-08
-1.04236e-07
6.25587e-08
-1.18344e-07
-5.01113e-09
1.37857e-07
1.49284e-08
-3.99111e-08
1.14492e-07
-7.3818e-08
-2.33858e-09
-2.36402e-08
1.27994e-07
-1.43197e-07
3.88437e-08
1.06724e-07
1.85356e-08
-5.07708e-08
3.61772e-10
-1.13051e-07
1.11838e-07
-1.02151e-09
-2.72622e-08
2.10064e-08
-8.92889e-08
9.55446e-08
6.98656e-08
-1.30444e-07
-5.18861e-09
-1.24811e-07
1.24908e-07
-2.07305e-10
-7.16453e-08
1.45757e-07
-1.11215e-07
-6.68723e-08
-7.45007e-08
1.65918e-08
-9.4361e-08
-1.63954e-12
2.00771e-07
-2.60879e-08
-7.86591e-08
-9.94652e-08
-6.79419e-08
1.21952e-07
2.09365e-07
-1.44038e-10
-8.23134e-08
-5.5707e-11
8.25132e-08
2.93413e-08
1.04162e-07
-1.05887e-09
1.36775e-07
5.52325e-09
8.92453e-08
5.31992e-08
2.70957e-09
6.75712e-08
-1.30319e-07
-5.19486e-09
-6.73221e-08
-7.60819e-08
1.34463e-07
8.9412e-09
-8.54048e-08
-4.12159e-09
-3.90846e-09
3.6252e-09
-1.19107e-07
1.03007e-07
-3.02406e-11
-1.12585e-07
-2.93746e-09
1.1026e-07
-8.06763e-08
-1.24517e-07
8.77206e-08
1.17472e-07
-1.04593e-07
3.64526e-08
7.1376e-08
-3.23589e-09
6.44868e-08
6.45448e-08
-1.22177e-07
-6.85449e-09
-6.61668e-08
-6.34931e-08
1.23429e-07
6.23088e-09
4.85567e-08
4.4901e-08
-1.03391e-07
9.93368e-09
-6.20092e-08
1.03142e-07
-3.35215e-08
-7.61123e-09
9.89456e-08
-9.92806e-08
-3.06285e-10
-8.63101e-08
3.36187e-10
7.56496e-08
9.61064e-08
-2.5958e-08
-1.45798e-07
-2.82674e-08
8.11609e-08
3.52184e-08
-8.81119e-08
-9.22644e-08
3.72451e-11
9.37138e-08
-1.4866e-09
-6.79183e-08
-3.89066e-08
8.77047e-08
1.1553e-07
-3.23059e-09
6.48582e-08
-1.20698e-07
6.06504e-08
-4.81099e-09
-4.76848e-08
3.09567e-08
-1.05418e-07
1.09475e-08
1.23548e-07
-9.536e-08
-3.95239e-08
1.28374e-07
7.26218e-08
-6.76595e-08
7.17859e-10
-1.14808e-07
-5.57299e-11
7.27262e-08
-5.96406e-08
9.42133e-08
-1.10566e-07
5.2969e-08
5.03211e-08
7.2755e-09
6.74832e-08
-4.38902e-09
3.63601e-08
5.93046e-08
7.45935e-09
8.4409e-09
1.15305e-07
-9.06731e-09
-4.79857e-09
-7.54158e-08
7.36145e-08
1.22233e-07
-6.83328e-08
-1.42509e-07
1.43118e-07
1.50274e-07
5.50406e-08
-5.20907e-08
-1.53224e-07
1.30747e-08
-1.18133e-07
1.27133e-07
-7.20682e-08
-6.6788e-08
1.327e-07
6.15644e-09
-4.13319e-08
-9.71172e-08
1.60113e-09
6.28039e-08
-6.43231e-09
1.21413e-07
-3.29114e-10
-3.05016e-10
2.02432e-08
-7.89954e-08
8.4633e-08
2.96625e-10
1.34049e-10
-1.25242e-07
-4.01534e-10
8.54204e-08
-8.38363e-08
1.07418e-08
-7.71039e-08
1.31772e-07
-6.54095e-08
-2.54442e-08
-1.23765e-07
1.17031e-09
1.48039e-07
8.50314e-08
-1.63919e-07
6.4519e-08
1.43688e-08
-1.15074e-07
8.34761e-08
-8.98677e-08
9.44653e-08
-4.39651e-10
-9.35612e-08
-4.64407e-10
-4.21679e-08
-1.20807e-07
4.27728e-08
1.20202e-07
-6.83427e-08
-1.12153e-07
1.38377e-07
4.21184e-08
-2.89127e-09
-1.32298e-07
1.32788e-07
2.40158e-09
-1.16984e-07
1.16996e-07
-1.30266e-09
-1.30881e-07
1.15727e-07
-5.86735e-08
1.2559e-07
6.56713e-08
-5.51581e-09
7.02036e-08
-1.26866e-07
-5.85622e-08
-1.1715e-07
7.98855e-08
-9.31641e-08
-1.29617e-08
1.29626e-07
-7.99686e-08
-3.23649e-08
1.13266e-07
-1.11428e-07
-3.06957e-09
1.23132e-09
-9.02063e-08
-2.25384e-09
3.70143e-09
6.57855e-11
-1.37951e-07
1.34994e-07
-8.56084e-08
-6.86867e-10
8.90537e-10
-8.56216e-08
7.20081e-08
1.39787e-08
-3.65244e-10
-5.09263e-08
-1.22133e-07
1.64151e-07
8.90841e-09
1.08156e-07
-5.14451e-10
5.36571e-08
4.47379e-08
-1.0774e-07
9.34475e-09
-1.03097e-07
-3.04964e-10
1.03366e-07
3.53693e-11
-9.98501e-08
1.37091e-08
-2.24949e-08
5.89185e-08
-1.14729e-07
4.83266e-08
7.4838e-09
-4.32848e-09
-8.71567e-08
4.35971e-09
1.37039e-09
-1.23036e-07
1.92495e-09
5.06713e-08
6.88971e-08
-1.41997e-07
1.95529e-08
1.11596e-07
1.88117e-08
1.19677e-07
-1.20173e-07
7.8976e-10
-2.9428e-10
-1.89005e-07
1.78145e-07
7.97139e-08
-6.88539e-08
5.16288e-08
-1.33951e-07
1.02614e-07
-2.02919e-08
6.85506e-08
-6.25023e-09
-6.65695e-10
2.03685e-10
5.43961e-08
-5.74562e-08
-1.06895e-07
1.50246e-07
-1.2351e-07
1.04467e-07
-1.43874e-08
4.88544e-10
-1.38518e-07
1.38337e-07
1.18302e-07
-1.44352e-07
-1.21275e-09
-8.01774e-08
-7.65634e-08
1.50703e-07
6.0378e-09
8.9212e-08
8.10478e-11
-8.92203e-08
-7.27362e-11
-1.3594e-07
7.27352e-08
6.78429e-08
-4.63765e-09
-1.82758e-07
1.13266e-07
-1.27112e-07
1.96604e-07
-1.75515e-07
2.35742e-08
-4.23514e-08
-1.03916e-07
-1.50103e-07
9.15533e-08
3.49093e-08
-1.3091e-08
-1.17948e-07
1.28517e-07
2.52153e-09
-2.8812e-09
-1.03116e-07
-8.73266e-09
1.12868e-07
-9.43421e-08
1.02543e-07
-2.91574e-08
1.54961e-07
6.51786e-08
1.7088e-07
-1.17045e-07
-1.122e-07
5.03872e-10
1.12061e-07
-1.12464e-07
-1.00913e-10
9.47323e-08
-1.0303e-07
3.9687e-09
-7.51466e-08
-7.56733e-10
6.41668e-08
9.82502e-08
-4.10035e-08
6.00242e-08
-1.14171e-07
-4.52705e-09
-6.56989e-12
1.09149e-07
-1.0897e-07
-1.72873e-10
-1.13025e-07
-1.40689e-10
1.13689e-07
-5.24169e-10
-1.13995e-07
4.09915e-08
-3.09285e-08
-1.09561e-08
9.17748e-08
7.45798e-08
-1.36095e-09
-1.64994e-07
2.35545e-09
-1.54575e-10
-1.59666e-08
7.65159e-08
-1.37215e-07
7.66658e-08
-1.18997e-07
1.20768e-07
6.19556e-08
-6.18975e-09
2.50523e-08
-1.23187e-07
-3.47924e-08
1.32927e-07
4.07337e-08
1.1123e-08
3.40501e-08
-8.59067e-08
6.53946e-08
7.09903e-08
-1.30293e-07
-6.0921e-09
-9.97239e-08
9.81089e-08
1.79735e-09
-1.8243e-10
-6.41854e-08
7.05984e-09
5.26503e-08
-5.05738e-08
1.17366e-07
-1.19443e-07
-9.78671e-08
2.05711e-07
-4.26728e-08
-6.51715e-08
8.04868e-08
-6.904e-08
-6.98477e-08
5.84009e-08
6.43767e-08
-5.30412e-08
-1.31401e-07
5.05179e-08
9.23795e-09
5.48294e-08
7.54974e-08
7.1146e-08
7.26196e-08
-1.37448e-07
-6.31734e-09
1.27316e-07
7.5782e-09
-5.55987e-09
-1.29334e-07
9.90404e-08
9.41785e-10
-3.04605e-10
9.3311e-08
-9.47941e-08
2.06746e-09
-5.84285e-10
-6.25339e-08
-7.38655e-08
1.29323e-07
7.07625e-09
-1.15876e-07
1.41415e-09
4.66824e-10
-1.0333e-07
3.2579e-11
2.00931e-10
1.07613e-08
1.16545e-07
1.07299e-07
1.91443e-09
-1.05685e-09
1.37244e-11
-9.80277e-08
9.7709e-08
9.40035e-08
1.67393e-08
2.52308e-09
-1.06439e-08
3.41326e-08
-1.14067e-07
9.05784e-08
1.20538e-07
-1.20302e-07
1.11937e-12
-2.37642e-10
-2.80201e-08
-1.11349e-07
1.62943e-07
-1.13416e-07
-1.85398e-08
1.36396e-07
-4.43957e-09
1.45829e-07
-1.24223e-07
-2.15902e-08
-1.89436e-08
1.21021e-07
1.21224e-07
-1.21596e-07
2.08468e-10
1.62863e-10
1.4273e-07
-4.36205e-08
-1.40821e-07
4.17111e-08
1.17198e-07
-1.17415e-07
1.39577e-07
-1.39361e-07
8.33103e-09
-1.16881e-08
-9.38616e-08
9.72186e-08
2.55686e-08
-9.75968e-08
-4.14479e-08
1.13476e-07
8.14646e-08
7.49467e-08
-1.5007e-07
-6.34103e-09
1.92931e-07
-2.03243e-07
-4.13527e-08
-1.62478e-07
9.95925e-08
-1.23654e-08
1.18133e-08
-1.75061e-07
1.52127e-07
-8.08965e-08
1.25837e-07
-2.14141e-07
1.692e-07
7.63929e-08
-1.51171e-07
-6.11864e-09
1.97564e-08
8.57608e-08
-1.48491e-08
-9.06681e-08
-1.1619e-09
1.26677e-07
-1.38885e-08
-1.09542e-07
-5.60424e-08
1.45892e-07
-1.01661e-07
1.18113e-08
-2.6821e-08
7.74917e-08
-4.31605e-08
-7.51025e-09
2.16285e-10
-9.70199e-08
9.71427e-08
-3.39085e-10
2.59731e-09
1.1839e-07
-1.19907e-07
-1.08025e-09
-1.00289e-07
-1.19088e-07
1.30854e-07
9.35211e-08
5.16098e-09
9.07257e-08
1.60072e-09
-4.51465e-08
-4.16741e-08
1.21408e-07
-2.24536e-07
5.76565e-08
-1.45085e-07
1.14372e-07
-6.71544e-08
1.16705e-07
-1.13744e-07
-3.6346e-10
-9.29708e-08
1.58495e-09
-2.33948e-09
9.37254e-08
5.87425e-08
-1.79082e-07
-1.41698e-07
-1.98411e-10
1.22024e-07
-1.21694e-07
-1.31889e-10
-1.02589e-07
-3.58047e-08
1.31261e-07
5.35755e-09
-8.54747e-09
1.05578e-07
-9.45603e-08
-1.05787e-08
1.36108e-07
-1.13624e-07
5.34458e-10
6.50678e-11
6.1111e-08
-1.47822e-07
8.04809e-08
6.23036e-09
-1.38368e-09
-1.04582e-07
-1.50745e-09
1.21824e-07
5.52654e-09
-1.01909e-07
5.17953e-08
4.82363e-08
1.87706e-09
-1.00419e-07
2.77224e-08
1.37074e-07
3.75161e-10
1.29799e-07
-6.75231e-10
-1.29499e-07
5.81128e-09
1.14871e-07
-2.45168e-08
-9.61654e-08
1.35452e-07
-1.53451e-07
8.00254e-08
-6.20261e-08
4.45547e-08
1.12125e-07
-5.50611e-08
-6.39286e-09
8.01067e-08
7.96612e-08
-1.47241e-07
-1.38161e-08
-6.07554e-09
1.0258e-07
-1.23672e-07
1.12105e-07
1.16232e-10
-1.12588e-07
3.67002e-10
6.92359e-09
9.53737e-08
-4.29949e-09
7.44201e-08
-1.8472e-07
2.96238e-08
-1.25469e-07
2.3222e-09
-7.10107e-08
-6.10331e-08
1.25535e-07
6.50846e-09
-1.01899e-07
-4.7211e-08
3.24199e-08
1.1669e-07
-1.14697e-07
-5.8884e-10
-5.90177e-10
-6.61273e-08
1.39925e-07
-7.93895e-08
5.59159e-09
7.19369e-08
-1.41997e-07
7.30158e-08
-2.95614e-09
-1.08709e-07
-2.64853e-10
9.89936e-08
-1.01552e-07
4.43333e-09
-1.87536e-09
1.4389e-07
-8.04728e-08
8.51929e-09
-1.11373e-07
1.8395e-08
-1.84501e-08
5.6284e-08
-9.29002e-08
-2.07627e-08
1.20616e-07
-1.19881e-07
-2.46806e-10
6.61226e-08
5.80263e-08
-5.90253e-08
-6.51235e-08
7.52718e-08
1.39869e-07
-1.50654e-07
7.50193e-08
6.47412e-08
-1.35148e-07
-4.61292e-09
-1.13214e-07
5.96536e-08
4.59771e-08
7.58369e-09
1.35582e-10
1.21035e-07
5.35745e-11
7.60497e-08
7.10671e-08
-1.41217e-07
-5.90019e-09
9.95643e-08
1.13407e-07
-9.43198e-09
-1.00661e-07
-3.3142e-09
9.23271e-08
1.15468e-10
1.39217e-07
-1.41006e-07
-7.61657e-08
7.79542e-08
4.81483e-08
5.76833e-08
7.57547e-09
-6.15052e-09
-1.63952e-07
1.7831e-08
8.85592e-08
-3.59275e-09
5.78086e-09
1.44084e-07
1.23424e-07
-2.0859e-07
-1.16623e-07
1.04822e-09
-1.36531e-09
1.1694e-07
5.37827e-10
9.68551e-08
-9.73608e-08
-3.21579e-11
-7.53288e-08
1.70764e-07
-1.67503e-07
5.06052e-08
1.16543e-07
-6.27165e-08
-1.04432e-07
4.45982e-08
5.7173e-08
-1.09026e-07
7.25435e-09
1.41193e-07
-1.02255e-08
1.97355e-08
-1.27496e-07
-5.6881e-09
3.4949e-08
-1.23301e-07
-1.85422e-08
-8.89644e-08
-1.06454e-07
1.02115e-07
1.94658e-08
-4.97937e-09
-1.92285e-08
9.40194e-08
2.73241e-08
8.83995e-08
-7.43135e-08
-1.70811e-09
1.20982e-07
2.93831e-09
1.65502e-10
1.87183e-10
-2.08381e-07
-1.53478e-08
-1.62243e-10
1.57698e-07
1.52587e-08
-1.65584e-07
-1.16717e-08
2.56639e-07
-1.13474e-07
-1.31493e-07
-1.57208e-07
1.284e-07
1.08277e-07
-1.36131e-07
-6.39621e-08
6.99987e-08
-7.17037e-08
6.5667e-08
1.13311e-07
-1.16359e-07
-3.38469e-09
6.4329e-09
-3.58272e-09
-6.06345e-08
7.45141e-08
-1.71088e-07
-7.55905e-08
6.14291e-08
3.34431e-08
-1.15549e-07
2.44163e-07
-3.99746e-08
-9.53624e-08
-1.24852e-08
-7.28342e-08
1.46217e-07
1.88916e-09
-3.1581e-08
-6.73078e-08
8.51778e-08
1.3711e-08
3.70107e-08
-1.65948e-07
7.54277e-08
5.35098e-08
-1.03238e-07
1.03134e-07
-4.35125e-11
1.48171e-10
8.93904e-08
-3.22393e-10
1.26177e-08
1.18212e-07
1.08858e-07
-6.87372e-09
-8.0978e-08
-1.4768e-07
1.80232e-08
9.6745e-10
1.29066e-07
-8.07121e-08
1.24451e-07
-4.03562e-08
-5.85063e-09
2.82442e-09
1.20986e-07
-2.8286e-09
9.87029e-08
3.67302e-08
-1.44942e-07
-2.77282e-08
-1.18285e-07
-1.01942e-07
-7.99141e-08
4.0867e-08
-1.10175e-08
1.05108e-07
-8.02617e-09
-8.89882e-08
-1.01193e-07
-3.5097e-09
8.98687e-08
-1.15173e-07
9.55273e-08
-5.55714e-10
-9.43503e-08
-6.21314e-10
-2.41274e-08
-1.39825e-07
-1.66627e-07
1.66131e-07
1.0779e-07
-4.55874e-08
1.21502e-08
-7.43525e-08
1.08504e-07
-5.62362e-10
-1.07847e-07
-9.54228e-11
1.06547e-09
9.8566e-08
-9.98016e-08
1.70113e-10
2.73314e-08
1.14559e-07
-3.45911e-08
-7.46595e-08
-7.79165e-08
1.05795e-08
7.26097e-09
1.03288e-07
-1.06573e-07
-3.97589e-09
-1.17128e-07
1.26951e-07
-2.56206e-09
-1.26896e-07
-2.95981e-09
-1.38757e-07
1.40482e-07
-5.27615e-08
-7.94103e-08
1.37913e-07
-5.74109e-09
1.00794e-07
-1.43378e-08
6.72518e-10
-2.2035e-10
4.31148e-08
1.12254e-08
-2.86522e-10
-6.17997e-10
7.10233e-08
7.78847e-08
-6.17776e-09
-3.13831e-08
9.50822e-08
7.33414e-08
-2.62547e-07
-8.25147e-08
2.20481e-07
1.24113e-07
1.19799e-07
-5.07654e-08
-7.58267e-08
6.09715e-09
-4.2889e-10
-1.19419e-07
-3.24457e-10
5.21835e-08
6.095e-08
-1.11915e-07
-1.21869e-09
-1.09224e-07
1.09063e-07
1.93319e-10
-3.3024e-11
1.00485e-07
3.00125e-08
-1.26017e-08
1.23191e-09
1.81065e-07
-4.15174e-09
-5.04203e-08
-7.81743e-08
-2.80662e-09
-9.39039e-08
-2.12939e-08
7.00466e-10
1.00226e-07
-9.99852e-08
7.28579e-08
-1.76929e-07
1.02026e-07
-9.78593e-10
-5.61796e-10
6.65608e-08
6.0581e-08
-1.23829e-07
-3.31321e-09
-1.51463e-07
7.58846e-08
-2.10819e-08
-2.44165e-08
-3.31323e-08
1.16658e-07
-5.91092e-08
-2.69995e-08
6.68413e-08
2.80012e-08
-1.29462e-07
-8.37728e-08
8.77847e-08
1.2545e-07
7.17582e-08
-5.894e-09
6.18671e-08
1.21289e-07
-5.07086e-08
-1.32448e-07
-3.42925e-09
1.07232e-07
1.36798e-08
-1.17482e-07
1.0218e-07
-8.71562e-08
-1.88399e-08
3.81582e-09
1.31625e-07
-1.75599e-07
1.62363e-07
1.3447e-07
-6.54811e-08
-6.26594e-08
-6.32914e-09
3.90623e-08
-1.56949e-07
-1.11122e-07
-1.14352e-07
-2.18114e-10
-1.73554e-07
1.4685e-07
-1.51346e-07
1.7805e-07
8.1505e-08
-1.38053e-07
-2.53785e-08
1.13255e-07
-1.12457e-07
-4.98017e-10
-3.00231e-10
5.59391e-08
-1.10773e-07
-5.8006e-09
-6.17676e-09
8.18124e-08
-1.6649e-07
6.88441e-08
-1.26053e-07
-1.84586e-10
2.19249e-10
1.26018e-07
-1.69577e-07
1.24264e-07
-7.81024e-08
-7.85778e-08
-2.92788e-08
-6.62984e-09
5.56061e-08
6.50003e-08
-6.23442e-09
-5.03647e-08
-5.74278e-08
-5.42189e-09
-3.37999e-09
-9.47015e-08
-9.52901e-08
-1.00269e-09
-5.61587e-09
6.63847e-08
-6.57737e-08
4.1214e-10
-1.0231e-09
1.01525e-07
-9.97572e-08
-1.17095e-09
-5.97153e-10
-1.10107e-09
1.20096e-07
-1.18748e-07
-2.47435e-10
-1.24905e-07
1.3007e-08
1.05913e-07
5.98427e-09
1.17984e-07
-1.12169e-07
-3.93238e-09
-1.88288e-09
-1.01584e-07
-9.96574e-10
1.03177e-07
-5.96e-10
-9.62938e-08
-5.8714e-08
8.95418e-08
3.14462e-08
-8.89671e-09
-1.12091e-07
7.19795e-08
-7.61542e-08
3.35578e-09
8.1891e-10
4.17046e-08
3.46814e-08
-1.18554e-07
1.0287e-07
-1.00095e-07
-7.02819e-09
4.25325e-09
-4.78267e-08
4.87072e-08
1.41014e-07
4.64585e-09
1.18393e-07
-8.87257e-08
1.13246e-08
-2.58735e-08
-1.04273e-08
-9.3161e-08
-3.14554e-08
1.79142e-07
5.42915e-09
-1.54118e-07
1.20515e-07
-3.09377e-08
-1.81355e-08
2.04436e-08
-7.40065e-08
5.4666e-09
-1.16274e-07
1.16349e-07
5.5222e-08
-6.60787e-08
-2.80499e-08
7.34319e-08
2.452e-09
6.25582e-08
5.50979e-08
-7.69225e-08
-7.6599e-08
1.05547e-07
-1.17963e-08
-6.51035e-08
5.42518e-09
8.69643e-08
1.05705e-08
2.07688e-08
2.24784e-08
-9.70837e-09
4.85269e-08
5.66424e-08
6.95588e-09
-4.51863e-08
1.47732e-07
-1.53471e-07
-1.59877e-07
8.00281e-08
2.0305e-07
-1.36496e-07
9.80652e-08
-2.92469e-08
5.62566e-08
-1.25075e-07
-1.15227e-07
-3.9689e-08
-1.33691e-07
-5.27032e-09
-9.33669e-08
7.44247e-08
-8.16949e-08
1.00637e-07
7.44307e-09
-1.0947e-07
-1.30006e-07
-6.82874e-09
-4.17084e-09
-1.17955e-07
1.06709e-07
1.13426e-07
1.81156e-08
9.71319e-08
1.95654e-09
-1.22868e-07
1.13574e-07
-7.82394e-08
8.75343e-08
-9.66199e-08
1.23069e-08
-1.90171e-08
-3.23549e-08
-4.57902e-08
1.35344e-07
-4.72105e-08
-1.04409e-07
-3.94075e-08
1.20133e-08
-6.61222e-08
-7.8947e-08
7.51979e-09
-6.47152e-08
7.43468e-08
7.41693e-08
2.14478e-08
3.91973e-08
-1.34814e-07
9.01474e-08
-1.5401e-08
-6.21364e-08
-5.47654e-09
-7.45552e-08
-8.21461e-08
5.23881e-09
5.92639e-08
-6.78538e-08
-4.52779e-08
5.38678e-08
-4.73696e-08
-8.09537e-09
1.34241e-07
-1.69653e-07
3.5805e-08
-3.92647e-10
-7.32276e-09
2.48325e-08
7.3397e-08
-9.09067e-08
4.36778e-10
-8.71653e-08
-5.85211e-10
8.73137e-08
-9.49686e-08
9.47249e-08
1.79731e-10
6.39751e-11
1.19838e-07
-6.65115e-08
-1.21556e-07
-5.81711e-08
-3.60111e-08
9.58216e-08
-1.63941e-09
1.41607e-07
1.06538e-08
-1.07054e-07
5.09166e-09
-1.27689e-07
1.63098e-08
-2.65656e-10
-1.78477e-07
-1.08155e-07
1.08321e-07
-3.50836e-10
4.34967e-08
1.04421e-07
-1.34193e-07
-1.11625e-08
-1.48375e-08
2.16439e-07
-3.0611e-10
-1.26138e-07
-3.55446e-09
9.23266e-08
-9.12597e-08
-3.40121e-11
-6.70196e-09
1.56724e-08
2.42593e-08
1.12583e-07
-1.73048e-08
1.08297e-07
-8.77179e-09
-3.07669e-09
1.17908e-07
-1.13425e-07
-1.40726e-09
-9.96841e-08
1.10931e-07
-5.95111e-09
1.12486e-07
4.88075e-09
-2.92223e-08
-8.81445e-08
1.09545e-07
1.40149e-09
-1.09057e-07
-1.88932e-09
-6.57845e-08
-4.99282e-08
6.52924e-08
8.43975e-08
1.74363e-09
1.4499e-07
1.79859e-08
-3.29316e-08
-1.36256e-08