/*--------------------------------*- C++ -*----------------------------------*\
| =========                 |                                                 |
| \\      /  F ield         | OpenFOAM: The Open Source CFD Toolbox           |
|  \\    /   O peration     | Version:  2212                                  |
|   \\  /    A nd           | Website:  www.openfoam.com                      |
|    \\/     M anipulation  |                                                 |
\*---------------------------------------------------------------------------*/
FoamFile
{
    version     2.0;
    format      ascii;
    arch        "LSB;label=32;scalar=64";
    class       volVectorField;
    location    "0.008";
    object      U;
}
// * * * * * * * * * * * * * * * * * * * * * * * * * * * * * * * * * * * * * //

dimensions      [0 1 -1 0 0 0 0];

internalField   nonuniform List<vector> 
31639
(
(0.111066 0.000555725 -0.000476809)
(0.110025 -0.000256449 0.000230403)
(0.110769 -0.000231001 0.000319978)
(0.111614 0.000194707 0.000171672)
(0.110314 -0.000536637 7.31216e-06)
(0.110429 0.000151611 -0.000164577)
(0.109377 5.21849e-06 -0.000252824)
(0.110481 -0.000148628 -0.000129384)
(0.110664 0.000240091 -5.12016e-05)
(0.11129 -0.000154753 -0.000257153)
(0.111557 0.000233898 -0.000172857)
(0.111107 -0.000341671 -0.000449847)
(0.110323 -8.25891e-05 -8.02712e-06)
(0.111016 1.85779e-05 -2.0159e-05)
(0.109748 -0.00032334 8.05593e-05)
(0.109445 -0.000111029 0.000374827)
(0.110191 7.95156e-05 -0.000259035)
(0.109193 -6.10357e-05 4.94741e-05)
(0.109599 0.000279038 -0.000219016)
(0.110476 5.71501e-05 -0.000373945)
(0.107534 -0.000115128 8.52688e-05)
(0.111112 1.90057e-05 -1.79537e-05)
(0.111055 0.000218265 0.000113782)
(0.109851 0.000256324 -0.000176059)
(0.109079 -0.000151569 -0.000215842)
(0.11061 0.000111969 -0.000188534)
(0.110475 -2.01291e-05 0.000111919)
(0.112966 0.000428657 0.00021339)
(0.109514 0.000226014 0.000611716)
(0.110827 0.000126958 0.000364972)
(0.111333 -7.35246e-05 -9.33248e-05)
(0.109228 -3.23656e-05 -0.000163269)
(0.111223 0.000262847 -0.000422656)
(0.109689 6.13242e-05 -0.000286653)
(0.108101 -0.000175905 -2.03481e-05)
(0.111114 0.000433135 -0.000179688)
(0.106778 -3.9032e-05 2.67815e-06)
(0.111504 -0.000233736 0.000119902)
(0.111303 -5.33494e-05 7.84068e-06)
(0.106734 0.000112929 -0.000162245)
(0.108542 2.28523e-05 -3.62568e-05)
(0.107758 -1.93433e-05 9.22615e-05)
(0.111083 4.06934e-05 1.0226e-05)
(0.111549 -0.000618861 -0.000507686)
(0.110859 -0.000300782 0.000358582)
(0.111852 -0.000533463 -0.000260055)
(0.109364 0.000328194 -7.10529e-05)
(0.109981 0.000471013 -0.000259029)
(0.110153 0.000126605 0.000300055)
(0.111351 -0.000314616 -0.000102184)
(0.111633 2.48335e-05 -8.37781e-05)
(0.107328 0.000222166 -0.000206284)
(0.111503 0.000113374 0.000178827)
(0.106886 -4.48638e-05 7.62728e-05)
(0.110321 -8.70883e-05 -0.000190798)
(0.109926 0.000176677 -6.21203e-05)
(0.107761 0.000320355 -0.000282147)
(0.110377 9.84003e-05 0.000272788)
(0.110278 -2.82272e-05 0.000379384)
(0.10806 -9.52838e-06 -8.09836e-05)
(0.110623 7.53234e-05 -0.000113289)
(0.110882 0.000207452 -0.000368746)
(0.109048 -0.000115413 -0.000152822)
(0.110491 0.000111659 -9.92423e-05)
(0.110516 0.0002209 9.77412e-05)
(0.111622 0.000110344 -0.000274647)
(0.110177 0.000149424 -0.000585605)
(0.110337 -4.00982e-05 -8.85696e-05)
(0.108595 -5.23526e-05 0.000116497)
(0.111389 0.000360187 -0.000136324)
(0.111451 -0.000147487 0.000207773)
(0.109338 -0.00028614 -0.000426582)
(0.111432 -0.000219859 -0.000385203)
(0.110548 3.37163e-06 -0.000167973)
(0.110761 4.64993e-05 -3.63176e-05)
(0.107344 -3.1523e-06 -0.00013468)
(0.111599 -0.000449308 0.000251439)
(0.109898 0.000237037 -0.000195373)
(0.110233 -8.8045e-05 0.00025747)
(0.110965 0.000158266 3.2797e-05)
(0.109322 0.000178157 8.62408e-05)
(0.106094 3.54618e-05 9.25297e-05)
(0.1115 -8.74662e-06 -0.000269721)
(0.110872 -0.000156732 -6.4981e-05)
(0.110619 9.84493e-06 -6.95063e-05)
(0.111454 -0.000408851 -0.000154471)
(0.111627 3.7045e-05 0.000123728)
(0.111681 9.02078e-05 -8.95624e-05)
(0.108103 0.00059362 -0.000874598)
(0.111374 0.000182889 -0.000413156)
(0.110827 9.88739e-06 9.51019e-06)
(0.109742 -0.000296282 -0.00019098)
(0.108165 -5.75594e-05 -0.000288575)
(0.110057 0.000271935 -0.000276509)
(0.109118 -0.000534144 -0.00020091)
(0.109727 0.000711866 4.77509e-05)
(0.110424 0.000384809 -0.000272691)
(0.11048 -0.000133022 0.000319581)
(0.110503 3.46587e-05 -7.29176e-05)
(0.107923 -0.000360377 -0.000410975)
(0.110519 0.000188296 -0.000126392)
(0.110606 0.000319678 0.00040241)
(0.109791 3.99629e-05 -0.000126099)
(0.107175 -9.09093e-05 -2.63328e-05)
(0.10799 0.000126367 -0.000303448)
(0.111903 -0.00031177 -0.000362957)
(0.107157 0.00034871 -0.000185329)
(0.107559 -1.88078e-05 -0.00057619)
(0.108869 0.000300861 0.000165231)
(0.106983 -3.34912e-05 0.000152626)
(0.111105 -0.000373484 8.95703e-05)
(0.108204 0.000211064 -0.000232158)
(0.110116 -0.000262024 -0.000270277)
(0.109545 -0.00037881 -0.000303679)
(0.110715 8.51868e-05 -0.000365149)
(0.107456 -0.000178978 -3.74394e-05)
(0.109724 0.000179228 -4.63946e-05)
(0.109497 -0.000371146 1.467e-05)
(0.110462 -0.000130641 4.53428e-05)
(0.110252 -7.45298e-05 0.000150435)
(0.110396 -0.000353661 4.95303e-05)
(0.111302 -0.00029125 0.000293478)
(0.111514 0.000185565 -0.000197174)
(0.110536 0.000283187 -0.000582554)
(0.110611 0.000145719 -0.000553935)
(0.111037 -0.000203036 -5.75378e-05)
(0.110319 0.000115844 0.000296195)
(0.109069 0.000345581 -5.83353e-05)
(0.109049 -0.000223946 -0.00014479)
(0.111279 -5.16623e-05 0.000122885)
(0.111032 6.65305e-05 -6.35558e-05)
(0.111115 0.000248721 -0.000279882)
(0.111096 -0.000111375 -1.05188e-05)
(0.110225 8.54432e-06 8.79741e-05)
(0.111037 3.00795e-05 -6.49049e-05)
(0.110705 0.00011651 -3.36234e-05)
(0.107887 5.87476e-05 -0.00018767)
(0.107602 -0.000444563 -0.000308794)
(0.111578 0.000441498 0.00037228)
(0.110548 -0.000188759 -8.38305e-05)
(0.110501 -0.000127025 2.26882e-05)
(0.111554 5.03937e-05 0.000543577)
(0.111281 0.000152112 4.04773e-05)
(0.107274 -0.000141723 -3.87422e-05)
(0.107481 -8.75423e-05 -0.000529037)
(0.110829 -8.06725e-05 3.29517e-05)
(0.111063 -6.10051e-05 -0.000270321)
(0.107738 -0.000239062 -0.000182029)
(0.108184 1.90559e-05 5.48264e-05)
(0.110833 -0.00010393 -0.000323101)
(0.10904 -6.83148e-05 -0.000450548)
(0.109883 0.000133457 -0.00014387)
(0.109991 -4.09886e-05 -0.000519933)
(0.110902 -9.74605e-05 -0.00015543)
(0.108096 0.000193661 -0.000454171)
(0.111572 -4.8976e-05 8.80915e-05)
(0.110663 -0.000115735 -9.11964e-06)
(0.108874 -0.000528441 0.000235167)
(0.108347 -0.000580035 0.000468805)
(0.109768 -0.00011551 -0.000168899)
(0.111649 -1.32046e-05 -0.000242637)
(0.107348 -1.96569e-05 0.000176029)
(0.1083 -0.000273249 -0.00043213)
(0.107651 -0.000110419 -8.50674e-05)
(0.107816 -0.000544717 0.000138504)
(0.109651 9.43485e-05 1.99632e-05)
(0.107706 0.000321727 0.00018615)
(0.111149 -0.000419078 0.000153179)
(0.111566 -0.000391749 9.20689e-05)
(0.10749 5.45661e-05 -0.000191424)
(0.108959 -2.79597e-05 0.000136851)
(0.110092 0.000287695 -0.00049654)
(0.107997 -0.000122726 -2.83953e-05)
(0.110569 -7.32385e-05 0.00010631)
(0.111692 -0.000222409 -0.000235278)
(0.110876 -0.000285914 -0.000193181)
(0.110587 0.000421008 -7.01045e-05)
(0.111021 0.000270559 6.06305e-05)
(0.110814 -0.000224878 -4.72085e-05)
(0.1103 -9.79313e-05 -0.000264945)
(0.110587 8.47164e-05 -0.000127993)
(0.110039 -0.000353849 0.000420582)
(0.109987 0.000391117 7.93296e-05)
(0.107105 0.000659997 -0.000117603)
(0.110473 -0.000107956 0.000475103)
(0.111209 0.000589363 -0.00054264)
(0.109883 -9.71279e-05 0.000193644)
(0.110823 0.00010113 -0.000128046)
(0.108159 3.87012e-05 -5.6159e-05)
(0.107272 -3.47413e-05 0.000405845)
(0.111429 4.30897e-05 -0.000337181)
(0.111086 -0.000134212 0.000287637)
(0.109958 -0.000301615 0.000453356)
(0.110392 1.22259e-05 0.000302244)
(0.110741 8.89716e-05 -5.45287e-05)
(0.110137 5.52976e-06 5.90932e-05)
(0.109697 0.000551822 0.000257163)
(0.111342 0.000175427 6.59392e-05)
(0.107851 -2.78917e-06 -0.000109581)
(0.109722 0.000317259 -0.000195368)
(0.1114 -4.23149e-05 -4.6306e-05)
(0.111179 1.01618e-05 -8.25086e-05)
(0.110982 -0.000208433 -5.85322e-05)
(0.110768 -0.000705745 -0.000114182)
(0.110236 -0.000253832 5.88481e-06)
(0.110206 -4.14187e-05 -7.8647e-05)
(0.11051 -0.000162276 0.000109046)
(0.110182 0.000127518 -0.00010366)
(0.110869 -1.59179e-05 -0.000360475)
(0.107199 -5.85785e-05 -0.000227854)
(0.11054 2.3484e-05 -0.000287119)
(0.109819 0.000447359 -7.72303e-05)
(0.110416 7.6304e-05 -0.000194466)
(0.110875 0.000159449 -0.000218273)
(0.110651 -0.000218404 -0.000202285)
(0.111145 -5.32824e-05 -6.99231e-05)
(0.10843 -0.00055937 -1.90449e-05)
(0.109141 -0.000148892 9.77227e-05)
(0.110918 -0.000192004 -0.000297598)
(0.111744 -0.000196234 0.000139459)
(0.111239 5.17256e-05 1.91683e-05)
(0.109958 -0.000203041 -0.000360742)
(0.106702 -1.90171e-05 0.000593563)
(0.110347 -0.000541735 0.000340545)
(0.107661 -0.000155701 -0.000167618)
(0.109444 1.88848e-05 2.5323e-05)
(0.111041 -0.00027084 0.000133675)
(0.109411 0.000351582 0.000382998)
(0.107603 0.000124891 -7.29498e-05)
(0.110229 0.000210828 -9.98496e-05)
(0.110921 3.08057e-05 -0.000133806)
(0.11159 -0.000259055 -0.000210809)
(0.107807 7.29756e-05 -0.000140001)
(0.107232 -0.000185172 6.75865e-05)
(0.110465 4.10074e-05 2.42987e-05)
(0.11114 -0.000102345 -0.000277252)
(0.108082 2.62743e-05 0.000188161)
(0.111226 -0.000566732 0.000129882)
(0.1089 3.88149e-05 -0.000273662)
(0.107982 -0.000118415 0.000196127)
(0.110451 4.38621e-05 -3.28561e-05)
(0.110767 -0.000132419 -8.95377e-05)
(0.109795 -0.000382445 0.000153953)
(0.108887 0.000399275 0.000579048)
(0.109116 0.00011394 7.56314e-05)
(0.109917 -7.26782e-05 -0.000154653)
(0.110378 0.000479381 -0.000108426)
(0.109481 -4.43888e-06 -0.000303516)
(0.107808 -0.000235262 0.000275594)
(0.110413 -4.97306e-05 -9.26973e-05)
(0.110333 -7.27156e-05 0.000120421)
(0.108447 -5.09524e-06 -0.000178162)
(0.109361 -0.000497691 -1.06937e-05)
(0.111059 3.72058e-05 -6.88854e-05)
(0.111362 0.000284116 8.65734e-06)
(0.110092 0.000547597 -0.000125558)
(0.108157 -0.000114001 0.000116743)
(0.111407 0.000244998 -0.000181186)
(0.110803 0.000149739 -0.000464241)
(0.109798 -0.000253808 -0.000314565)
(0.111634 0.000334469 0.000472323)
(0.111686 0.0002709 -0.000173757)
(0.110736 0.000188697 -0.000255361)
(0.111342 0.000122469 1.83233e-05)
(0.110143 0.00011281 0.000105329)
(0.109857 -0.000143513 -0.000493115)
(0.107296 0.000434581 -0.000673411)
(0.109312 -8.20617e-05 -0.000177741)
(0.111174 -0.000346186 3.46689e-05)
(0.109702 -0.000116288 0.000339232)
(0.11064 0.000124814 5.07926e-05)
(0.110092 0.000327485 -0.000131157)
(0.110254 -0.000199179 0.000166093)
(0.110445 0.00046703 0.000126362)
(0.111528 0.000321484 -0.000223573)
(0.110713 0.000331079 0.000413787)
(0.107592 -6.44884e-05 3.59876e-05)
(0.109702 -4.65376e-05 -9.85304e-05)
(0.108736 0.000355059 -0.000151997)
(0.111735 -0.000142772 -0.000426589)
(0.109672 -0.000356487 -0.000203766)
(0.110724 -3.442e-05 -0.000456929)
(0.110357 -3.36278e-05 -0.000238618)
(0.109121 0.000119592 -0.000374789)
(0.107699 2.28e-05 1.81155e-05)
(0.10824 1.30921e-05 -0.000263949)
(0.108101 8.98026e-05 -4.79665e-05)
(0.107383 0.000134457 -1.63733e-06)
(0.111699 -0.000295425 -5.81581e-05)
(0.107992 -0.00011407 -0.000325351)
(0.110432 -0.000176464 7.84799e-05)
(0.110838 0.000301913 2.40006e-05)
(0.109675 1.16064e-05 -4.50821e-05)
(0.108475 9.28134e-05 -2.8076e-05)
(0.111309 -0.000593869 0.00036568)
(0.109785 1.90529e-05 -0.000500181)
(0.108628 5.96989e-05 0.000238468)
(0.111183 0.000158942 -9.20113e-05)
(0.110254 -0.000206145 -7.17126e-05)
(0.108105 0.000149398 0.000220862)
(0.110063 0.000101216 -0.00019953)
(0.108077 -4.17449e-05 0.000106805)
(0.110575 0.000363821 -0.000119727)
(0.110343 0.00015625 3.27346e-05)
(0.108207 0.000156254 0.000318574)
(0.109922 9.53881e-06 -0.000140351)
(0.109776 0.000375072 0.000202899)
(0.106485 0.000224795 -0.000588235)
(0.106972 0.000509555 0.000289545)
(0.110941 -0.000323133 0.000104118)
(0.111262 9.90011e-05 -3.49634e-05)
(0.111608 -0.000160765 -5.53201e-05)
(0.107565 9.89992e-05 -0.000180273)
(0.108237 -6.17567e-05 0.000420682)
(0.111398 6.33663e-05 5.88909e-05)
(0.10892 -0.000116123 -2.02284e-05)
(0.108499 0.000594904 -0.000248415)
(0.11085 0.000176049 0.000259519)
(0.111121 -0.000292216 -6.40172e-05)
(0.109534 -0.000555278 -9.16839e-05)
(0.111084 -0.000945671 -0.000357721)
(0.111565 -4.71661e-05 -0.000252172)
(0.107826 -0.00014343 -0.000164423)
(0.111579 -0.000477564 -0.000141932)
(0.107023 0.000355044 -7.05784e-05)
(0.107357 0.000191125 -0.000164781)
(0.111485 -0.000360517 -9.16001e-05)
(0.111037 -0.000289928 -9.35192e-06)
(0.111729 4.06275e-05 -0.000268683)
(0.111408 0.000406694 -0.000383916)
(0.110677 -7.78368e-05 -0.000123181)
(0.108689 0.000885651 -0.00023755)
(0.109471 -0.00035001 0.000217004)
(0.110395 -0.000246469 0.000154328)
(0.110884 -0.000525761 0.000229672)
(0.111311 0.000603749 0.00021491)
(0.110992 -0.000356095 0.000163336)
(0.110482 0.000306406 -3.10955e-05)
(0.1096 -0.000443939 0.000468465)
(0.109939 2.28498e-05 -0.000100888)
(0.111435 0.000128564 -0.000252549)
(0.110812 -0.000196397 -0.00060017)
(0.109719 -5.78251e-06 -0.000292221)
(0.11052 -0.000197316 -7.04842e-05)
(0.110443 0.000469346 -0.000180117)
(0.109745 -0.000275357 -0.000101935)
(0.110874 -0.000134567 -0.000273119)
(0.10987 -0.000357452 0.00042193)
(0.108009 -2.30958e-05 7.16407e-05)
(0.11016 0.000222495 -4.17606e-05)
(0.111438 -0.000187194 -0.000134046)
(0.109409 0.000225032 -0.000200256)
(0.110669 -6.08552e-05 -3.31714e-05)
(0.111344 -0.000314541 -2.34783e-05)
(0.110736 -5.85629e-05 7.2325e-05)
(0.108283 0.000727741 -0.000159757)
(0.110472 8.32164e-05 -0.000369232)
(0.110112 0.000206689 4.92627e-05)
(0.107498 5.53714e-05 -0.000342496)
(0.110646 -0.00060663 -7.10809e-05)
(0.107506 4.75719e-05 0.000183101)
(0.110499 -4.04653e-05 -0.000213029)
(0.11124 -0.000171438 -5.90401e-05)
(0.107814 -0.000261802 -0.000175131)
(0.11046 0.000247171 5.63061e-05)
(0.110245 0.000178761 0.000395743)
(0.107788 -0.000117578 0.000133547)
(0.110526 -0.000122124 -8.71286e-05)
(0.108256 -9.40942e-05 -0.000225489)
(0.10984 0.000124912 0.000356676)
(0.111273 0.000289585 -0.000101703)
(0.110362 1.89207e-05 5.81031e-05)
(0.107385 0.000312497 1.91921e-05)
(0.110926 0.000107826 -9.96662e-05)
(0.108061 6.90704e-05 -0.000145544)
(0.110983 -0.000180565 -9.36681e-05)
(0.110713 0.000102773 0.00023941)
(0.110671 -0.000360283 -7.47281e-05)
(0.111168 -9.80966e-05 -0.000471803)
(0.107862 6.63816e-05 8.48646e-06)
(0.111052 -0.000512774 6.64075e-05)
(0.107772 0.000169521 -0.000369874)
(0.110324 0.000281553 -0.000119447)
(0.107948 0.000314004 -8.38598e-05)
(0.111546 -8.65284e-05 -2.88895e-05)
(0.111626 -7.65703e-05 -3.76319e-05)
(0.111758 -0.000130025 0.000129358)
(0.11143 -0.000416766 -0.000366744)
(0.110287 -1.24278e-05 -2.58807e-05)
(0.110618 -3.40507e-05 8.5629e-05)
(0.110573 -9.45673e-05 2.76066e-05)
(0.11023 2.62279e-05 -7.94351e-05)
(0.110566 0.000175112 -0.000296662)
(0.10817 0.000229289 -0.000215092)
(0.110816 -0.00020405 -6.39129e-05)
(0.110277 -0.000209842 8.08773e-05)
(0.110447 -0.000177976 -0.000235957)
(0.111161 5.15428e-05 -0.000158005)
(0.110819 -0.000158906 -0.000470669)
(0.110854 3.18558e-05 0.000219784)
(0.109929 -0.000176652 4.80684e-05)
(0.10757 -4.99918e-05 0.000214011)
(0.109847 -6.78394e-05 0.000348446)
(0.111016 2.44178e-05 -0.000147102)
(0.110838 -1.73442e-05 0.00010157)
(0.107692 -0.00017153 -0.000298971)
(0.111522 0.000138382 -0.000177034)
(0.111456 7.33199e-05 -0.000397896)
(0.109963 1.56521e-05 -0.000498521)
(0.111324 -0.000116839 -0.000370211)
(0.111615 -9.98214e-05 -0.000459347)
(0.110554 3.47756e-05 -7.97449e-05)
(0.110659 -2.26741e-08 -5.92402e-05)
(0.107567 0.000103784 -0.000159592)
(0.110622 -6.52338e-05 9.87296e-05)
(0.110772 -0.000169081 0.000142086)
(0.106862 -0.000113467 -0.000208096)
(0.110195 -0.000208064 0.000111561)
(0.110874 -0.000333922 -0.00027092)
(0.10881 4.83716e-05 0.0001829)
(0.107586 -0.000160994 -0.00022898)
(0.107738 -0.000189558 0.000181752)
(0.109467 -0.000595374 -8.71227e-06)
(0.107595 0.000156282 1.92203e-05)
(0.109967 -2.12853e-05 0.000121944)
(0.110439 -0.000171173 7.9566e-05)
(0.10911 0.000279767 0.00010676)
(0.110686 0.000300483 -0.000105875)
(0.108074 -0.000117218 -0.000308295)
(0.110967 0.000171667 0.000293835)
(0.11174 -9.83994e-05 -4.57548e-06)
(0.110416 -4.26763e-05 -0.000141955)
(0.110663 4.57831e-05 0.000287818)
(0.109904 -2.22019e-05 -8.96689e-05)
(0.111302 0.000352819 -0.00039384)
(0.110635 0.000328218 -0.000120368)
(0.110056 9.20788e-05 -0.000428283)
(0.111813 2.57857e-06 -0.000191415)
(0.110628 -0.000348437 -0.000208427)
(0.107792 -7.35592e-05 0.000128384)
(0.110589 -0.000174447 2.88507e-05)
(0.111957 -0.000113957 -0.000343058)
(0.111467 0.000132853 -6.24346e-05)
(0.110816 -5.09491e-05 0.000263159)
(0.11121 0.000217036 -0.000289932)
(0.110414 -0.00033697 -2.85213e-06)
(0.110712 -7.64297e-05 3.58295e-05)
(0.110522 9.43362e-05 5.45922e-05)
(0.110744 8.42047e-05 -0.000160306)
(0.111054 -0.000553859 -6.02632e-06)
(0.107437 -5.99917e-05 -0.00016695)
(0.109859 -0.000185876 0.000153301)
(0.106649 -7.74904e-05 4.32918e-05)
(0.109442 0.000463787 0.000273092)
(0.110085 0.000266695 -0.000236319)
(0.10772 -0.000177047 4.66365e-05)
(0.107383 -0.000115222 -0.000329467)
(0.109831 -3.27502e-05 -0.000221704)
(0.110573 -0.000418993 -4.37359e-05)
(0.111217 -5.70483e-06 -8.04458e-05)
(0.10793 7.33485e-05 5.30347e-05)
(0.110393 -0.000101647 0.000154419)
(0.109944 4.58593e-06 4.71655e-05)
(0.11045 -4.04168e-05 -0.000430495)
(0.110539 1.11684e-05 -0.000268663)
(0.11015 0.00126347 0.00127233)
(0.110563 6.68004e-05 -0.000460517)
(0.107748 -0.000132741 1.48418e-05)
(0.110101 -0.000326572 6.12427e-05)
(0.111007 -1.61995e-05 -6.14519e-05)
(0.111541 0.00059537 0.00032622)
(0.111306 0.000104803 -0.000225741)
(0.11014 0.000613017 -0.000264151)
(0.107825 0.000277783 0.000198601)
(0.110598 -0.000151524 6.18987e-05)
(0.110694 -4.91608e-05 -0.000266243)
(0.111235 -0.000411454 -0.000214199)
(0.107309 0.000189871 -0.000106055)
(0.108279 -6.85628e-06 0.000114009)
(0.110123 0.000264836 0.000230411)
(0.108211 7.44717e-05 -0.000232287)
(0.107684 -0.000124693 -6.24731e-05)
(0.110895 0.000337907 -0.000316216)
(0.108088 1.67117e-05 -0.000274733)
(0.10945 0.000446376 1.84725e-05)
(0.107697 -0.000303122 -0.000241967)
(0.110617 5.67519e-05 -0.000166978)
(0.108184 0.000313838 -3.09969e-05)
(0.111369 -2.08104e-05 9.17259e-05)
(0.111213 -1.98983e-05 -6.79379e-05)
(0.111776 -0.000220727 0.000389361)
(0.111352 2.7125e-05 0.000186997)
(0.107831 6.47735e-05 0.000109016)
(0.111487 -2.98649e-05 0.000176551)
(0.111804 -5.17305e-05 -0.000250615)
(0.110295 -0.000235654 -2.30087e-05)
(0.110833 0.000148312 -4.05079e-05)
(0.111002 4.0236e-05 -9.5202e-05)
(0.111791 0.000115226 0.000217364)
(0.110856 0.000416251 0.000194604)
(0.109014 -7.72725e-06 -0.000304013)
(0.112055 -6.07472e-05 0.000114271)
(0.111748 -8.71497e-05 0.000328805)
(0.110805 2.27956e-05 0.000146245)
(0.109818 -0.000408921 -0.00025559)
(0.110984 -0.000329897 -5.75194e-05)
(0.110601 0.000463732 -0.000276312)
(0.106866 0.000347054 -4.38442e-05)
(0.106961 5.4331e-05 -0.000279342)
(0.110069 8.03086e-05 6.01227e-05)
(0.111176 2.55025e-05 0.00014195)
(0.11161 9.99473e-05 -3.67975e-05)
(0.109251 -0.000133187 -9.7154e-05)
(0.110759 0.000243522 0.000132842)
(0.110369 -0.000249593 -3.70589e-05)
(0.111682 0.000539062 0.0006774)
(0.110191 1.08991e-05 3.21699e-06)
(0.109596 0.000454162 -0.000184998)
(0.109877 -0.000781329 0.000414757)
(0.107716 -3.27231e-05 -0.000151893)
(0.109975 7.72585e-05 0.000230265)
(0.110273 7.11228e-05 -5.37827e-05)
(0.111194 9.39948e-05 -0.000146437)
(0.108451 -0.000134105 0.000231909)
(0.108578 0.000179959 -0.000332293)
(0.108798 3.34108e-05 -0.00013655)
(0.109501 -0.000258326 -6.87967e-05)
(0.110485 -7.91057e-05 -6.27091e-05)
(0.107397 -0.000179095 -0.000589559)
(0.111073 0.000429651 -0.000378073)
(0.109822 3.66138e-05 -9.52055e-06)
(0.110733 -0.000104156 0.000260046)
(0.109798 -0.000103143 -9.08866e-05)
(0.111745 -0.000309524 4.33956e-05)
(0.110001 4.58836e-05 -0.000265715)
(0.107647 -0.000226517 4.26424e-05)
(0.110538 0.000409937 -6.27483e-05)
(0.111517 -0.000119833 -0.000748188)
(0.107984 9.3645e-05 0.000357198)
(0.110983 -0.000297587 -0.000126367)
(0.111412 -0.000438113 -0.000135665)
(0.1104 -0.000274725 7.09933e-05)
(0.110271 0.000184121 0.000205438)
(0.113073 0.000127146 2.82974e-05)
(0.108912 0.000142569 -8.2496e-05)
(0.110503 -0.000441557 -0.000265738)
(0.110428 0.000247461 -0.000107093)
(0.108032 0.000124137 6.29816e-05)
(0.108093 -0.000146438 -0.000626182)
(0.109968 0.000297211 0.000165957)
(0.108949 0.000539216 0.000175939)
(0.110919 -4.65605e-05 -5.39984e-05)
(0.108747 -0.000198967 0.000216189)
(0.110066 0.000214292 0.000145072)
(0.111619 -4.36605e-05 0.000269641)
(0.110257 -0.000120441 -0.000159679)
(0.107677 0.00037767 0.000124086)
(0.108836 0.000173843 -2.99688e-06)
(0.110896 0.000205666 -7.87614e-05)
(0.111435 -9.4274e-05 8.06501e-05)
(0.107429 0.000140227 0.000172552)
(0.107228 0.000120758 0.000112164)
(0.111826 0.000110318 0.000340487)
(0.107732 0.000206959 0.000160452)
(0.110928 -4.56232e-05 -0.000103769)
(0.110679 7.84058e-05 -0.000160401)
(0.107901 -1.17228e-05 -0.000488587)
(0.110664 3.03605e-06 0.000164423)
(0.111373 4.75444e-05 0.000143787)
(0.11005 5.86178e-06 0.000550012)
(0.10683 0.000103097 0.000403369)
(0.111674 4.56684e-05 -6.83076e-05)
(0.110294 -8.6141e-05 -0.000158522)
(0.107786 0.000429667 -1.05327e-05)
(0.111691 -0.000160051 -9.62721e-05)
(0.110216 3.19606e-05 -5.272e-05)
(0.109949 0.00040511 -0.000269069)
(0.110552 -0.000490688 7.6629e-05)
(0.107598 0.000518238 -0.00039443)
(0.109654 -3.25278e-05 -0.000560738)
(0.10946 -0.000276972 0.000123088)
(0.109913 0.00019487 -8.91527e-05)
(0.107842 -0.000170347 0.000231638)
(0.1091 1.31638e-05 5.08594e-05)
(0.110829 0.000365198 0.000151841)
(0.11179 -0.000308407 -0.000727461)
(0.111772 -0.000335829 8.48721e-05)
(0.111099 -4.80252e-05 0.000138459)
(0.111454 -0.000285121 -0.000120216)
(0.110998 -0.000345852 -0.000317799)
(0.10883 -0.000149391 0.000255237)
(0.111568 -0.000206952 -0.000539213)
(0.110754 7.70748e-05 -5.02609e-05)
(0.11113 0.000224442 0.000247882)
(0.1082 -0.000180733 -8.70879e-05)
(0.11061 -0.000307143 -0.000261805)
(0.110602 0.00020592 2.67037e-05)
(0.111485 0.00054667 0.00016724)
(0.107746 5.90364e-05 0.000170786)
(0.107013 -0.000309747 -4.79073e-05)
(0.111343 6.49174e-05 3.47589e-05)
(0.109009 -0.000318299 -0.000199454)
(0.111008 7.08834e-05 -0.000103136)
(0.109632 -0.000168462 -0.000144314)
(0.108284 1.66657e-05 -9.40232e-05)
(0.110554 -2.68633e-05 -0.000187674)
(0.111603 0.000405572 -2.82882e-05)
(0.110146 0.000121269 -5.75254e-06)
(0.111217 0.000497912 -4.42137e-05)
(0.107814 1.65878e-05 -0.000637974)
(0.111244 0.000673279 0.000515403)
(0.110824 -2.90745e-06 -0.000271736)
(0.107139 0.000455823 8.13101e-05)
(0.110907 -1.02473e-05 -8.79765e-05)
(0.111481 -0.000294593 5.29242e-05)
(0.11266 0.000299713 0.000306298)
(0.107964 -0.000518359 -0.000442485)
(0.107754 0.000143385 -0.000222065)
(0.109602 0.000417992 -0.000312268)
(0.110381 -9.46849e-05 0.000212726)
(0.110256 -3.12424e-05 0.000114651)
(0.110141 0.000103439 2.4458e-05)
(0.110177 0.000109169 1.73195e-05)
(0.111471 5.99602e-05 -1.42934e-05)
(0.110422 -0.000218191 -5.65287e-05)
(0.110701 0.00026304 -4.01847e-05)
(0.10807 3.32934e-05 0.000317233)
(0.111497 -8.07736e-05 -0.000673792)
(0.10749 -0.000207966 -0.00040515)
(0.110674 0.000396629 -3.18082e-05)
(0.109832 0.00025505 -0.000294659)
(0.109531 -0.000319501 -0.000111436)
(0.111208 0.000207961 -0.000186104)
(0.109688 -0.000294217 -7.4691e-05)
(0.108308 -0.000205248 -0.000473936)
(0.10744 3.09694e-05 -8.42283e-05)
(0.107871 0.000105315 -7.93906e-06)
(0.109631 -0.000216391 -5.47204e-05)
(0.110942 0.000351166 0.000372521)
(0.108424 -3.95667e-05 8.56491e-05)
(0.110791 -0.000357764 -5.03782e-05)
(0.109535 0.000127304 -0.000477903)
(0.111626 -0.000296866 -0.000195538)
(0.107526 -0.000173411 -0.000284961)
(0.109781 6.2829e-05 9.91785e-05)
(0.111492 -0.000535212 -4.61418e-05)
(0.110921 -0.000228564 6.44725e-05)
(0.110918 -0.000155123 -9.90305e-05)
(0.111612 3.43015e-06 2.65391e-05)
(0.110793 7.77069e-05 0.000253729)
(0.110541 0.00013008 3.60442e-05)
(0.11103 -1.26849e-05 0.000193251)
(0.110957 0.000127318 3.11156e-05)
(0.111503 1.8944e-05 0.000107243)
(0.108758 0.000169659 -4.75105e-06)
(0.111633 -0.00048541 -7.61691e-05)
(0.10751 -7.58574e-05 0.00017305)
(0.11183 0.000269142 -0.000119003)
(0.110232 0.000207199 5.08893e-05)
(0.110025 0.00010856 -0.00031875)
(0.107822 0.000167963 -2.98487e-06)
(0.110036 0.000612456 -0.000427063)
(0.106886 -0.000452032 -0.000134554)
(0.110704 6.66752e-06 -8.61926e-05)
(0.110033 0.000118211 -0.000294537)
(0.111529 5.07464e-05 -0.000264037)
(0.109616 0.000392574 -0.000123104)
(0.110109 0.000680948 -0.000219019)
(0.108013 -0.000350695 5.23411e-05)
(0.111203 5.3161e-05 8.89378e-05)
(0.107926 -0.000322747 0.000124869)
(0.106803 -0.000204551 -2.2701e-05)
(0.107997 -0.000195332 0.000101891)
(0.108418 0.00013187 6.4992e-05)
(0.108545 0.000432164 2.98979e-05)
(0.110209 -0.000339752 -3.78924e-05)
(0.107428 0.000212631 9.28833e-05)
(0.110943 -0.000530051 -0.000140776)
(0.110767 -1.16586e-05 -0.000226632)
(0.106496 2.74544e-05 0.000167263)
(0.110733 -2.78999e-05 -6.00292e-05)
(0.107751 0.000373676 -0.000239768)
(0.109704 0.000440521 0.000108014)
(0.110166 -4.40097e-05 0.000145359)
(0.109964 -0.000194834 -0.000530716)
(0.11086 -0.000214859 -7.16304e-05)
(0.111794 2.05505e-05 -0.000287778)
(0.111093 6.40277e-05 0.000225786)
(0.110524 0.000112824 -8.81983e-05)
(0.110808 -0.000534325 -0.000102198)
(0.1111 0.00045624 -8.5005e-05)
(0.109489 0.000162802 -6.7036e-05)
(0.109855 7.30782e-05 3.5337e-06)
(0.10727 0.000192854 -0.000303333)
(0.109059 0.00160425 0.00195934)
(0.111346 0.000113775 -6.38917e-05)
(0.110468 -0.000259165 -9.68925e-05)
(0.110777 -0.000214218 0.000106093)
(0.111124 0.000114073 4.12131e-05)
(0.107768 -0.000122289 -3.48899e-05)
(0.111297 -7.1138e-05 -0.00026008)
(0.111444 0.000478054 -0.000115711)
(0.111511 -1.03652e-05 0.000260953)
(0.111327 -8.32291e-05 5.4681e-05)
(0.110987 0.000182923 5.87299e-05)
(0.110629 -0.00014019 -0.000192513)
(0.111437 -0.000151049 1.75378e-05)
(0.111449 -0.00026179 0.000283982)
(0.110927 3.65171e-05 0.000201211)
(0.111408 -4.18336e-05 4.08661e-05)
(0.110819 -0.000228864 -0.000117066)
(0.108506 -0.000142811 -0.000186713)
(0.111257 -3.77312e-05 5.45965e-05)
(0.109019 8.53136e-05 0.000258668)
(0.110125 -6.38468e-05 3.54259e-05)
(0.110472 -0.000296301 -0.000230011)
(0.110374 -0.000463384 6.89681e-05)
(0.109468 0.000381969 1.05592e-05)
(0.110958 0.000192499 -1.39432e-05)
(0.109418 0.000252041 0.000395671)
(0.110738 -0.000250192 3.8839e-05)
(0.109792 0.000381593 -0.000207188)
(0.107619 -8.08567e-05 -0.000182132)
(0.111961 0.00020275 -0.000195526)
(0.110659 0.000251271 -8.91207e-05)
(0.10918 -0.000121308 0.000484847)
(0.107469 -0.000324405 0.000112613)
(0.111435 -0.000533454 -6.38481e-06)
(0.10748 -0.000460898 -0.000276965)
(0.111567 -3.40851e-05 -0.000107718)
(0.110546 8.87068e-06 0.000246125)
(0.109712 0.000382662 -0.000148389)
(0.110834 -0.000106125 0.000204878)
(0.111416 -0.000198517 -0.000421836)
(0.11081 -0.000144934 0.000171163)
(0.107606 -9.50434e-05 -0.000140445)
(0.110041 -0.000163157 -0.000316399)
(0.108872 0.00012335 -6.37854e-05)
(0.11028 8.14445e-05 -3.76995e-05)
(0.107734 -0.000467874 -0.000456767)
(0.110513 -0.000158039 -0.000389057)
(0.111004 -0.00020736 0.000165948)
(0.109264 0.000123469 -0.000253912)
(0.110208 2.86445e-05 1.13659e-05)
(0.109387 -1.20367e-05 0.000251916)
(0.110883 -0.000115643 -9.01255e-05)
(0.109205 -0.000401279 0.000187602)
(0.110159 0.000127593 -3.73758e-05)
(0.107678 -0.000255273 0.000368779)
(0.111584 -2.63758e-05 0.00019954)
(0.110261 -0.000227218 -0.00021873)
(0.111546 0.000502174 0.000307341)
(0.108894 0.000355127 -0.000170398)
(0.110828 -2.91404e-07 1.03327e-05)
(0.110792 0.000198696 -5.17191e-05)
(0.109772 0.000160668 0.000483246)
(0.110189 -9.444e-05 -0.000137324)
(0.110105 0.000292134 0.000174944)
(0.111573 -0.000292481 1.69184e-05)
(0.110277 -0.000142254 -0.000144817)
(0.107593 4.85715e-05 6.9925e-06)
(0.107189 -0.000386472 -0.00024719)
(0.111047 -0.000153906 -0.000111895)
(0.107377 0.000294329 -0.000453588)
(0.109198 -0.000376056 -0.000499678)
(0.110115 0.000284894 -0.00016187)
(0.110302 0.000268854 -0.000180771)
(0.111428 0.000309105 -0.000324326)
(0.107409 -0.000239143 -3.77726e-05)
(0.110555 -1.50394e-05 -0.000291642)
(0.111598 -2.7545e-05 -4.34152e-05)
(0.108625 0.000496221 -0.000414276)
(0.108171 0.000498497 0.000450655)
(0.110504 -0.000342566 -0.000207536)
(0.108219 -4.59169e-05 0.000104405)
(0.11048 -0.000199086 -1.86074e-05)
(0.108012 -0.000373437 0.000116588)
(0.111263 -0.000449036 -0.000123061)
(0.108782 0.000133741 0.000450678)
(0.109288 0.000142673 0.000117588)
(0.111617 0.000154106 0.00021438)
(0.107177 9.5353e-06 0.000196014)
(0.109858 0.000140574 0.000169121)
(0.109818 -7.61474e-05 0.000160738)
(0.111671 1.94147e-05 -0.000415137)
(0.111427 9.03069e-05 0.000137325)
(0.111053 0.000214674 -9.68525e-05)
(0.10814 0.000324052 0.000348346)
(0.110771 -0.000123556 -0.000348204)
(0.111267 6.95627e-05 0.000423195)
(0.109003 -0.000461325 -6.98423e-05)
(0.111358 -3.62656e-05 -0.000175556)
(0.111011 -7.02717e-06 -2.76106e-05)
(0.110916 0.000250327 -1.35748e-05)
(0.111011 0.000108391 -0.00028573)
(0.11074 -5.4541e-06 -0.000218895)
(0.111688 0.000275537 0.000101308)
(0.111173 0.000391698 0.00049827)
(0.111739 -8.6859e-05 0.000245987)
(0.1107 0.000186827 0.000124143)
(0.110187 -1.26862e-05 -0.000183992)
(0.110755 -0.000173702 5.25726e-05)
(0.110509 0.000149407 8.46586e-05)
(0.107919 -0.000486978 -4.37134e-05)
(0.110224 -0.00043698 0.000129247)
(0.110678 7.45531e-06 0.000218649)
(0.111127 1.62061e-06 -3.14227e-05)
(0.111348 -0.000181749 -0.000329864)
(0.110574 -0.000140665 0.000211224)
(0.111798 0.000390346 0.000327104)
(0.111584 0.000261477 -0.000175267)
(0.109695 -0.000258229 0.000616982)