/*--------------------------------*- C++ -*----------------------------------*\
| =========                 |                                                 |
| \\      /  F ield         | OpenFOAM: The Open Source CFD Toolbox           |
|  \\    /   O peration     | Version:  2212                                  |
|   \\  /    A nd           | Website:  www.openfoam.com                      |
|    \\/     M anipulation  |                                                 |
\*---------------------------------------------------------------------------*/
FoamFile
{
    version     2.0;
    format      ascii;
    arch        "LSB;label=32;scalar=64";
    class       surfaceVectorField;
    location    "0.008";
    object      Uf;
}
// * * * * * * * * * * * * * * * * * * * * * * * * * * * * * * * * * * * * * //

dimensions      [0 1 -1 0 0 0 0];

internalField   nonuniform List<vector> 
68568
(
(0.110705 0.000343169 -0.000284066)
(0.110462 0.000588644 -0.000239505)
(0.11023 0.000308041 -7.32731e-05)
(0.111316 0.000654369 -0.000169926)
(0.110606 -0.000201886 -1.95133e-06)
(0.110563 -0.000288795 -0.00016788)
(0.110145 -0.000187227 4.59929e-05)
(0.108389 -7.34115e-05 4.83879e-05)
(0.111039 9.05155e-05 1.43866e-05)
(0.110837 -0.000344298 0.000279555)
(0.110397 -8.62615e-05 -0.000117002)
(0.109628 -0.00051558 0.000320794)
(0.111475 -9.26181e-05 1.93804e-06)
(0.111031 0.000154306 -2.94903e-05)
(0.111664 0.000126962 5.50148e-05)
(0.111643 6.80752e-05 -2.42876e-06)
(0.109457 -0.000207432 0.000115428)
(0.110677 -0.000336799 0.000146889)
(0.109086 -0.000259513 -0.000107711)
(0.110342 -0.00038223 -0.000129249)
(0.110886 -8.36091e-06 -4.76283e-05)
(0.110429 0.000173421 -1.41733e-05)
(0.11084 0.00017637 -5.73725e-05)
(0.108996 7.52029e-05 -0.000326145)
(0.109899 -6.53265e-05 -0.000204976)
(0.10783 -1.92055e-05 -4.31683e-05)
(0.108717 5.25774e-05 -0.00027739)
(0.109973 -3.35289e-05 -0.000201402)
(0.109967 6.9236e-05 0.000295306)
(0.110793 0.000131726 -0.000153861)
(0.110269 -0.000100574 -5.49105e-06)
(0.110602 -6.52693e-05 -5.48176e-05)
(0.110096 8.22129e-05 -0.000186756)
(0.110146 0.000152044 -0.000377056)
(0.111054 -0.000108459 7.59573e-06)
(0.110866 -8.88098e-05 -0.000224471)
(0.111209 7.34788e-05 -0.000304521)
(0.111431 -0.000186625 -0.000137974)
(0.111312 0.0003512 -0.000162555)
(0.111044 0.000187883 -0.000171831)
(0.111327 8.67218e-05 -0.000100512)
(0.110122 5.76162e-05 -0.000230854)
(0.111506 -0.000178054 -0.000358335)
(0.1113 -0.000255741 -0.00028932)
(0.110631 -4.60914e-05 2.23589e-05)
(0.110315 -0.000113828 9.76105e-05)
(0.108631 6.03588e-05 -0.000136677)
(0.111275 -0.000113318 -0.000172789)
(0.111225 -5.69336e-05 2.26328e-05)
(0.111026 -4.42975e-05 1.54199e-05)
(0.109969 -6.69063e-05 -2.52762e-05)
(0.109745 -0.000163963 -6.14791e-05)
(0.110379 -0.000215672 -0.000141278)
(0.11019 -0.000207191 1.15548e-05)
(0.108254 -0.000223587 -3.65974e-05)
(0.109941 -0.00016763 0.00037504)
(0.107851 -9.4298e-05 0.000170512)
(0.108687 -4.63499e-05 0.000349527)
(0.109902 -4.44559e-05 0.000135775)
(0.109725 1.03201e-05 -0.000117646)
(0.110015 0.00014901 -8.81729e-05)
(0.109969 -5.49428e-06 -0.00017465)
(0.110429 -0.000163646 -0.000215554)
(0.10821 7.1546e-05 0.00012915)
(0.108269 -0.000280082 0.000308374)
(0.10978 -0.000153175 4.94761e-05)
(0.109752 0.00016719 -0.000322141)
(0.108931 -7.90582e-05 -5.81876e-05)
(0.10806 0.000264231 -0.000344888)
(0.110052 5.77857e-05 -0.000221742)
(0.110457 -1.55633e-05 -0.00012055)
(0.110937 -0.000192764 -9.08139e-05)
(0.110829 -0.000218648 -0.0002716)
(0.109188 -9.4563e-05 -0.000135672)
(0.108033 -4.13547e-05 2.44677e-05)
(0.108827 0.000106565 0.000130821)
(0.108175 0.000264537 6.91235e-05)
(0.103377 2.00519e-05 -5.76143e-05)
(0.110687 -0.000111943 -5.07932e-05)
(0.111314 0.000153487 -0.000108884)
(0.11076 6.11412e-05 -7.47203e-05)
(0.111019 6.71845e-05 -0.000134533)
(0.111056 0.000119812 5.28554e-06)
(0.110999 0.000206145 0.000184856)
(0.110002 0.000268244 0.000211362)
(0.111328 0.000211922 4.08551e-05)
(0.108798 0.000132334 -0.000140669)
(0.108981 0.000122953 -0.000183125)
(0.110196 0.000334142 -0.000223674)
(0.110318 0.000202961 -5.09094e-05)
(0.10772 -2.21776e-06 -6.27159e-05)
(0.109603 -8.68762e-05 -0.000176756)
(0.108615 0.000113248 -0.000308751)
(0.109705 -4.51197e-05 9.06668e-05)
(0.110044 0.000210599 -0.000135938)
(0.110112 4.46498e-06 -7.70586e-05)
(0.110972 6.96729e-05 0.000232426)
(0.11049 3.46628e-05 -7.90314e-06)
(0.110833 -0.000139815 1.6353e-05)
(0.109068 -5.53353e-05 0.000231333)
(0.112684 0.000258973 0.000471934)
(0.111965 0.0004505 0.000375989)
(0.113082 0.000168954 0.000144668)
(0.112496 -4.79276e-05 -0.000264902)
(0.110272 0.000218133 0.000351083)
(0.107876 0.000282468 9.38905e-05)
(0.108633 0.000159577 0.000257888)
(0.110902 0.000215835 8.69477e-05)
(0.11064 2.36578e-05 0.000372983)
(0.110938 0.000277636 3.74775e-05)
(0.111337 -0.000196675 -0.000104247)
(0.110981 8.58916e-05 -3.74365e-05)
(0.111413 -0.000124801 -0.000113184)
(0.110785 -0.000106384 -1.06588e-05)
(0.10977 -0.000169934 -9.38348e-05)
(0.109767 -1.30543e-05 -0.000141462)
(0.108274 6.51795e-05 9.03773e-06)
(0.108119 -0.000122412 0.000126486)
(0.111154 7.99037e-05 -0.000136038)
(0.110958 4.49198e-05 -0.000190574)
(0.110945 -4.02963e-05 -0.000355719)
(0.111164 -3.47787e-05 -0.000359598)
(0.108794 8.34677e-05 -0.000303171)
(0.108193 -5.67904e-05 -0.000168625)
(0.110292 3.91687e-05 -0.00013861)
(0.110251 0.000192303 -0.000140598)
(0.108839 -9.26773e-06 2.92451e-05)
(0.107823 -4.27186e-05 -0.000102246)
(0.107729 -0.000255832 -5.89477e-05)
(0.103782 -0.000164462 -1.77813e-05)
(0.111165 0.000380211 -0.000338701)
(0.107755 0.000108253 5.8061e-05)
(0.107758 -0.000121642 -6.62244e-05)
(0.106712 -4.80348e-05 2.41784e-05)
(0.103269 -6.02065e-05 -2.85052e-07)
(0.111408 -0.000130881 8.58888e-05)
(0.11127 -0.000359415 0.000259561)
(0.111379 -0.000110966 0.000190269)
(0.111147 -0.000224028 0.000118363)
(0.110833 -0.000136867 9.38229e-05)
(0.110773 -3.03896e-05 0.000106635)
(0.111334 -2.91967e-05 0.000221211)
(0.107086 0.000327642 -0.000225972)
(0.107717 -0.000159964 -4.73197e-05)
(0.103723 8.79238e-05 -7.97398e-05)
(0.109317 -5.04371e-05 -4.72877e-05)
(0.108169 5.12274e-05 -0.000174968)
(0.103889 0.000131685 -0.000114462)
(0.108537 8.73813e-05 0.000117892)
(0.108469 -6.85819e-05 -5.20697e-05)
(0.108952 -0.000153154 -2.02484e-05)
(0.103369 -3.24865e-05 0.000114069)
(0.111197 -0.000114071 7.1767e-05)
(0.110656 -0.000138122 7.02935e-05)
(0.110727 -0.000238922 -0.000109838)
(0.11118 -0.000724355 -0.000281564)
(0.110725 -0.000550624 -0.000474458)
(0.111198 -0.000348176 -0.000623934)
(0.11097 -0.000282479 0.00022211)
(0.111072 -0.000381719 0.00012502)
(0.110785 -0.000157072 0.000146199)
(0.1115 -0.000398584 -4.28703e-05)
(0.111206 -0.000363945 -7.25267e-05)
(0.110984 -0.00027006 -0.000212966)
(0.111462 -6.93073e-05 -0.000345908)
(0.110178 0.000165365 -0.000165036)
(0.109718 0.000293786 -0.000179989)
(0.107992 0.000128546 -6.85609e-05)
(0.110109 0.000306953 -0.000345992)
(0.110314 0.000131063 -0.000264835)
(0.109274 0.000219496 -0.000448644)
(0.108567 0.000351237 -0.000248231)
(0.109783 -1.78486e-05 0.000225558)
(0.109602 1.96252e-05 0.000106464)
(0.110559 0.000159705 -0.000121034)
(0.110171 2.83939e-05 0.00015353)
(0.110895 -5.39172e-05 -0.000287499)
(0.111049 -4.91955e-05 -0.000110288)
(0.111146 0.000213213 -0.000122293)
(0.111504 0.000230301 -0.000266156)
(0.111758 8.11869e-05 -7.39806e-05)
(0.108719 6.1083e-05 -0.000372225)
(0.107649 0.00014386 -0.000149999)
(0.107913 2.13424e-05 -9.49695e-05)
(0.102763 0.000116393 -0.000118423)
(0.110951 0.000195313 9.58052e-05)
(0.110545 0.000151879 5.10152e-05)
(0.111362 3.16264e-05 7.02539e-05)
(0.111127 -1.92525e-05 0.000163904)
(0.107248 -9.21051e-05 -2.76765e-05)
(0.103347 1.58416e-05 4.84108e-05)
(0.109237 6.65519e-05 -0.00024141)
(0.10909 -0.00010551 7.67073e-06)
(0.110494 8.89498e-05 -0.000179346)
(0.110541 -5.91411e-05 -6.71954e-05)
(0.109315 0.000167833 0.000167423)
(0.109539 0.000164615 0.000133809)
(0.11031 -0.000102813 -5.84606e-05)
(0.108665 0.000249877 -0.000263718)
(0.108029 0.00022931 -9.44431e-05)
(0.108697 0.000283226 9.20188e-05)
(0.103621 0.000352573 -2.63528e-06)
(0.110821 9.61074e-05 0.000302339)
(0.110805 -4.27306e-05 0.000100125)
(0.110351 6.57108e-05 0.000173415)
(0.109052 0.000100796 0.000287018)
(0.110896 -0.000239599 0.000200908)
(0.110414 -7.48428e-05 0.000231178)
(0.110835 -0.000165886 9.13342e-05)
(0.108822 -1.84183e-05 0.000236255)
(0.107616 -2.75229e-05 -0.000144448)
(0.107749 0.00016684 6.81152e-06)
(0.103945 -8.74593e-06 -8.49251e-05)
(0.109907 -0.000189023 -0.000189054)
(0.109805 0.000139108 -8.75336e-05)
(0.109946 0.000206241 3.75683e-05)
(0.110614 0.00025844 -0.00011861)
(0.110389 0.000141792 1.50471e-06)
(0.111092 6.52739e-05 -0.000253663)
(0.110498 0.000200994 -0.000338636)
(0.109817 -6.91582e-05 -0.000177423)
(0.108602 -2.83883e-05 -0.000173818)
(0.108625 -0.000172513 -0.000178691)
(0.103809 -0.000148151 -0.000123027)
(0.110967 5.80995e-05 -5.11782e-05)
(0.111015 0.000172376 0.000158648)
(0.108778 0.000104626 -0.00010127)
(0.109945 2.12841e-05 -6.64524e-05)
(0.109938 0.000182063 2.16989e-05)
(0.110616 0.000170404 0.000106244)
(0.109999 0.000168774 0.000235755)
(0.111576 0.000147037 -0.000242503)
(0.111641 1.62632e-05 -0.000255946)
(0.111546 5.84586e-05 -0.000174479)
(0.11121 0.000129601 -0.000114661)
(0.109371 0.000339023 -0.000463677)
(0.11048 5.33045e-05 -0.000532036)
(0.110612 -0.000182661 -0.000340129)
(0.110306 -7.85945e-05 2.09353e-05)
(0.110756 -7.45693e-05 -6.43357e-05)
(0.110344 -6.65573e-05 5.35586e-05)
(0.1089 3.39601e-05 -0.000147442)
(0.108943 -0.000399754 0.000107555)
(0.109017 0.000158499 9.54666e-05)
(0.103542 -2.87e-05 -2.69411e-05)
(0.111413 0.000344131 -5.62133e-06)
(0.111544 0.000320884 -0.00016715)
(0.11117 0.000182066 -2.49511e-05)
(0.111382 0.00018393 -0.000321257)
(0.111265 0.00013392 0.000128365)
(0.110766 -3.9639e-05 9.80778e-05)
(0.111174 -0.000183008 1.65095e-05)
(0.110843 0.000149934 -6.55103e-05)
(0.109483 -0.000297475 -0.000327633)
(0.109377 -6.92997e-05 -1.26398e-06)
(0.110059 -0.000286736 -0.000322725)
(0.106829 -0.00055224 -0.00034532)
(0.110885 -3.89164e-05 -0.000259315)
(0.110859 -0.000273214 -0.000406856)
(0.111369 -0.000173544 -0.000142496)
(0.111402 -2.43874e-05 -0.000172778)
(0.111057 -2.42564e-05 -0.0001664)
(0.110534 -8.83703e-05 -3.41284e-05)
(0.110486 -2.14608e-05 -3.4585e-05)
(0.109071 8.95991e-05 -0.000277919)
(0.111008 6.5353e-05 0.000121641)
(0.110811 8.28509e-05 9.3129e-07)
(0.110006 -4.77665e-05 -9.67504e-05)
(0.10788 -0.000119014 -0.00019611)
(0.107699 -0.000109084 -9.58218e-05)
(0.108422 1.95276e-05 -0.000217632)
(0.103348 9.92608e-05 -6.64221e-05)
(0.111202 -0.000231428 -6.30332e-06)
(0.111258 -0.000360453 0.000137395)
(0.111614 -0.000363761 0.000136707)
(0.109168 0.00034508 -0.000258285)
(0.110505 6.89365e-05 -0.000109335)
(0.110338 0.000270571 -5.36599e-05)
(0.110425 -0.000124436 0.000198505)
(0.110671 1.97827e-05 0.00010304)
(0.110904 9.77542e-05 0.000200632)
(0.10871 -5.32009e-05 0.00020683)
(0.108779 -0.000133036 -8.67085e-05)
(0.111244 -4.79169e-05 4.84022e-05)
(0.110237 0.000109696 2.24097e-05)
(0.111302 0.000220292 9.75155e-05)
(0.107968 0.000356871 -0.000142484)
(0.109753 5.43818e-05 -9.6418e-05)
(0.109803 5.63708e-05 3.86874e-05)
(0.106593 0.000101608 -0.000105758)
(0.107235 0.000166299 0.000127336)
(0.106951 5.49342e-06 0.000138337)
(0.103514 2.92594e-05 6.79378e-05)
(0.11146 9.62968e-05 -0.000140855)
(0.110858 6.59181e-05 -0.000295457)
(0.111476 -7.24076e-06 -0.00019557)
(0.111274 -0.000196023 2.0631e-05)
(0.111454 -0.000252693 -0.00026137)
(0.111081 1.04246e-05 -3.01377e-05)
(0.111209 -8.3993e-06 -0.000120934)
(0.108974 -8.97963e-05 7.87466e-05)
(0.110137 -2.21433e-05 -7.84944e-05)
(0.110738 -0.000143847 -6.60788e-05)
(0.110886 -1.42555e-05 -9.4847e-05)
(0.11014 -5.76967e-05 0.000145058)
(0.111402 -0.000135791 -6.71527e-05)
(0.110804 -6.6092e-05 -0.000309107)
(0.110909 -6.65698e-05 0.000132234)
(0.111386 -0.000153237 -0.000103588)
(0.111558 -3.49084e-05 8.99277e-05)
(0.111186 -3.4088e-05 -1.45108e-05)
(0.111483 -5.8548e-06 -0.000135561)
(0.111126 8.99246e-05 -0.000130726)
(0.111057 -5.23206e-05 -8.56615e-05)
(0.111395 0.000124936 -0.000272776)
(0.108041 0.000686166 -0.000617054)
(0.109444 0.000138257 -0.000617278)
(0.108924 0.000457262 -0.000597124)
(0.102431 0.000149715 -0.000376996)
(0.110941 0.000110032 -0.000115014)
(0.111169 -1.51841e-05 -0.000100811)
(0.111565 0.000193772 -0.000293564)
(0.11063 -9.63261e-05 0.000131663)
(0.111207 3.59994e-05 -5.50636e-05)
(0.108917 0.00011775 -7.33473e-05)
(0.108946 -2.31458e-05 -9.2326e-05)
(0.108745 -0.000144143 -5.47311e-05)
(0.11019 -0.000126639 5.53404e-05)
(0.109933 -0.000217305 -6.93764e-05)
(0.108365 -9.70942e-05 -0.000506236)
(0.108588 -9.31933e-05 -6.18883e-05)
(0.103063 -0.000113892 -8.33881e-05)
(0.109962 0.000316852 -0.000254522)
(0.11062 0.000166982 -0.000398697)
(0.108555 -5.07952e-05 -0.00014635)
(0.108252 -0.00025186 -5.62245e-05)
(0.109687 -0.000387295 -8.9727e-05)
(0.107997 -0.000344177 -5.95719e-05)
(0.109613 -0.000322949 -7.01588e-05)
(0.110289 0.000501466 -0.000176107)
(0.110265 0.000558297 -0.000140899)
(0.109737 0.000505989 0.00011278)
(0.108791 0.000559518 6.30403e-05)
(0.109643 0.000303542 -4.49269e-05)
(0.110039 0.000167633 -0.000169709)
(0.110903 0.000397811 1.10391e-05)
(0.111133 -0.000196629 0.000108841)
(0.111015 -0.000146679 0.000187063)
(0.108714 -5.37772e-05 0.00021687)
(0.110387 0.000115625 7.98333e-05)
(0.110341 9.88116e-05 1.96547e-05)
(0.110814 6.03009e-05 -5.48803e-05)
(0.108758 -4.11164e-06 -0.000207474)
(0.108424 -0.000273038 -0.000203404)
(0.108742 5.5365e-05 -0.000260347)
(0.108095 -0.000354318 -0.000324969)
(0.103464 -0.000199838 -0.000164323)
(0.110559 0.000259304 7.37748e-05)
(0.110714 0.000106192 -3.79316e-05)
(0.109678 -5.68184e-06 -0.000286131)
(0.110716 7.80693e-05 -0.000152949)
(0.110523 4.33501e-05 0.000186251)
(0.110133 9.36918e-05 0.000132596)
(0.110099 0.00025192 0.000145088)
(0.109761 -0.000137181 -0.000168185)
(0.108319 4.68896e-05 -9.38799e-05)
(0.107486 -2.11027e-05 -0.000138791)
(0.108362 -0.000330777 -0.000141376)
(0.107888 -3.01012e-05 -0.000227488)
(0.103279 -7.64161e-05 2.42254e-06)
(0.108795 7.97961e-05 -0.000227352)
(0.103142 9.34462e-05 -0.000249901)
(0.111148 -0.000191174 -0.000170506)
(0.111737 7.69896e-05 8.96154e-05)
(0.111779 -4.79351e-05 -0.000229104)
(0.104001 0.000152353 0.000163179)
(0.107954 -1.59788e-05 -0.000386614)
(0.108549 0.000136442 -0.000146033)
(0.108289 -4.1821e-05 -0.00035042)
(0.1028 0.000103939 -0.000553974)
(0.108019 0.000361824 4.893e-05)
(0.109696 0.000349441 6.4589e-05)
(0.10778 -5.51073e-05 0.000176219)
(0.107327 9.64488e-05 4.25108e-05)
(0.108148 0.000237891 0.000194541)
(0.103407 -2.96702e-05 -9.27942e-06)
(0.111153 -0.000360199 3.26663e-05)
(0.110496 -0.000345177 0.000230072)
(0.110673 -0.000191036 0.000144626)
(0.111192 -0.000325363 5.53073e-05)
(0.10934 9.76597e-05 -0.000434605)
(0.108762 -1.74213e-05 -0.000238644)
(0.108514 2.21655e-05 -0.000141687)
(0.103272 0.000178271 -0.000199279)
(0.110646 -1.65955e-05 -0.000309227)
(0.110351 3.11275e-05 -0.000244135)
(0.110516 -0.000317772 -0.000156768)
(0.108967 -7.7479e-05 -0.000361193)
(0.108665 -0.000173583 -0.000242822)
(0.10866 -0.000312016 -0.000271927)
(0.109811 -0.000217602 -0.000244885)
(0.111142 -1.38122e-05 -0.000188157)
(0.111057 8.17114e-05 -0.000176795)
(0.110671 6.24377e-05 -6.57214e-05)
(0.108833 0.000212385 -0.000295901)
(0.108635 0.000125244 -0.000100879)
(0.107785 -0.000128758 6.40292e-06)
(0.10826 -0.000145642 0.000128454)
(0.103492 -0.000120261 -7.72867e-05)
(0.11058 0.000128968 5.36588e-05)
(0.108689 9.9881e-05 -0.000187748)
(0.108586 -4.53585e-05 8.25014e-05)
(0.110288 -0.000462364 0.0001423)
(0.108736 -0.000253756 0.000114339)
(0.110249 -0.000297316 0.000202888)
(0.110872 -0.000139311 -2.63805e-05)
(0.109801 -0.00020781 -0.000152582)
(0.110761 -0.00018745 -9.62247e-05)
(0.110802 0.00022506 0.000165043)
(0.110782 -1.89458e-05 9.13886e-05)
(0.108873 -7.45076e-05 0.000111594)
(0.109894 -0.000246902 -7.57648e-05)
(0.110199 -8.71344e-05 -0.000186509)
(0.110655 2.11955e-05 -0.000111371)
(0.110701 -0.000176935 5.6005e-05)
(0.110853 -0.000174562 0.000131384)
(0.111322 -4.62806e-05 6.44508e-05)
(0.111498 -0.000121725 0.000197472)
(0.110979 1.7719e-05 -4.23705e-05)
(0.110943 6.00112e-05 -0.000329197)
(0.111555 1.77482e-05 -0.00015287)
(0.109763 0.00032904 -0.000259132)
(0.110458 0.000104242 -0.000250144)
(0.110671 0.000116073 -0.000384783)
(0.109451 -0.000272276 -0.000111592)
(0.111163 0.000388355 -0.000434927)
(0.110247 -0.000129211 6.38607e-07)
(0.111032 9.30885e-05 0.000112108)
(0.111034 8.81053e-05 -9.6639e-06)
(0.111071 -9.69435e-05 5.65701e-05)
(0.110669 0.000134977 8.45649e-05)
(0.110948 0.00012176 0.000169545)
(0.108637 4.92308e-05 0.00010164)
(0.107868 8.10359e-05 -0.000175491)
(0.107879 0.000138483 -0.000209043)
(0.108295 -0.000355461 -0.000198744)
(0.1098 -0.000238533 -0.000139257)
(0.109903 -0.000273329 -0.000182324)
(0.110804 -0.000291728 9.50652e-05)
(0.110643 -8.62089e-05 1.39602e-05)
(0.111289 -0.000136519 -0.000238312)
(0.111384 -4.48434e-05 7.94659e-06)
(0.111052 8.64665e-07 -0.000166223)
(0.110415 -0.000234422 -0.000192006)
(0.110475 7.57102e-05 -0.000159778)
(0.110886 0.000113433 7.49765e-06)
(0.110989 0.00025038 -0.000185192)
(0.111296 8.91277e-05 -0.000478866)
(0.111056 0.000212947 -0.000212312)
(0.111292 -0.000121275 -0.000219453)
(0.110876 -5.8167e-05 -3.31957e-05)
(0.11082 4.55049e-05 8.57441e-05)
(0.110486 -0.000201028 3.4771e-05)
(0.111185 -0.000212495 -6.49934e-07)
(0.110596 1.86085e-05 3.9591e-05)
(0.109048 -6.90532e-05 -0.000151249)
(0.111099 -2.29857e-05 0.000112503)
(0.108903 0.000137843 -0.00038849)
(0.110935 -2.25506e-06 -0.000111229)
(0.111351 3.15601e-05 -0.000219984)
(0.110825 9.09784e-05 -0.000280531)
(0.111148 0.00012963 0.000279663)
(0.108768 9.61872e-05 -7.75305e-05)
(0.107628 0.000123952 -0.000316565)
(0.103701 5.42337e-05 -0.000201784)
(0.107993 -0.000338986 -0.000460835)
(0.103161 -0.000274048 -0.000134653)
(0.111552 0.00030736 0.000445107)
(0.111031 0.000294289 0.000110627)
(0.110545 -7.02524e-05 -0.000148699)
(0.108763 -0.00010465 -7.27868e-05)
(0.111073 -4.25106e-05 -0.000292529)
(0.110978 -3.79741e-05 -0.000142051)
(0.110517 -6.0152e-05 -0.00013439)
(0.108706 -9.69086e-05 -3.03627e-06)
(0.111414 8.8969e-05 0.000304081)
(0.111533 4.76882e-06 0.000295105)
(0.111507 1.5863e-05 0.000283268)
(0.110979 6.24465e-05 0.000234035)
(0.110907 0.0003211 8.24396e-06)
(0.110833 0.000172071 -4.61764e-05)
(0.111302 0.000191162 -5.31327e-05)
(0.107461 -1.14146e-05 -7.55836e-05)
(0.108373 0.000145525 8.08484e-05)
(0.102811 -2.05431e-05 -0.000178143)
(0.108804 0.000246097 -0.000319686)
(0.108296 -4.51364e-05 -0.000299966)
(0.107889 8.11154e-05 -0.000285487)
(0.103337 -6.4855e-05 -0.000454536)
(0.111136 -8.95859e-05 -1.20802e-05)
(0.110309 -0.000113537 -0.000256878)
(0.111163 -0.000185715 -9.83679e-05)
(0.109944 -9.12512e-05 -0.000193754)
(0.110781 -3.69048e-05 -0.000268179)
(0.108086 -0.000127633 -0.000246031)
(0.108351 -0.000121362 -0.000339229)
(0.103235 -0.00017275 -0.000200072)
(0.108885 -0.000157737 -0.000123588)
(0.107994 0.000142565 -1.3093e-05)
(0.107719 -4.15049e-05 9.63077e-05)
(0.104021 -1.94362e-05 3.39541e-05)
(0.110923 -0.000245258 -6.66272e-05)
(0.110535 -8.91563e-05 -4.95807e-05)
(0.110498 -9.36203e-05 -0.000219922)
(0.111 -3.33907e-07 -0.000229176)
(0.10865 -0.000153687 -0.000428093)
(0.108506 0.000273272 -0.000322526)
(0.109837 -1.83237e-05 -0.000231014)
(0.103565 -0.000116423 -0.000427611)
(0.110181 0.000130518 0.000106142)
(0.110238 -0.000236306 -0.000106462)
(0.110119 -0.000106092 -4.98969e-05)
(0.108413 2.43483e-05 0.000183526)
(0.108931 -0.000112849 -0.000169531)
(0.110304 6.17621e-05 -0.000349667)
(0.110106 9.15839e-05 -0.000433179)
(0.110423 -1.09533e-05 -0.000102297)
(0.111167 -9.53757e-05 -4.61511e-05)
(0.110724 0.000145901 -2.21203e-05)
(0.109119 8.71801e-05 -0.000274206)
(0.108021 0.000251543 -0.000273474)
(0.108795 0.000465979 -0.000309335)
(0.102669 -0.000165415 -0.000332535)
(0.111598 -6.27101e-05 6.26668e-05)
(0.111605 -0.000144861 0.000103639)
(0.110848 -4.63717e-05 6.50201e-05)
(0.111608 8.74738e-06 1.17885e-05)
(0.110852 -0.000108425 -0.000122422)
(0.10965 -2.48123e-05 -8.08842e-05)
(0.109492 9.6154e-06 -0.000232916)
(0.110712 1.88535e-05 1.96686e-05)
(0.109387 -0.000471501 7.69083e-05)
(0.109609 -0.000316068 0.000121078)
(0.103696 -6.50514e-05 -6.15057e-06)
(0.109054 -0.000465605 0.000544419)
(0.108442 -0.000313648 0.000429074)
(0.109223 -0.000314212 0.000307986)
(0.103231 -5.0521e-05 6.80111e-05)
(0.110157 -8.49192e-05 -9.20461e-05)
(0.108034 -9.70451e-05 -4.88326e-05)
(0.109052 -0.000149177 -0.00046015)
(0.111678 -4.84597e-05 -7.96213e-05)
(0.111254 -1.8508e-05 -0.000173662)
(0.108116 8.17167e-05 0.000231591)
(0.107702 2.78058e-05 0.000146781)
(0.108464 -0.000231181 -3.51229e-05)
(0.103096 -8.44169e-05 0.000152793)
(0.109219 -0.000219732 -0.000260728)
(0.109124 0.000142533 4.92066e-06)
(0.103609 -0.000320596 -0.000389418)
(0.107778 -5.39224e-05 0.000128759)
(0.108897 0.000149025 3.85739e-05)
(0.10799 -0.000125134 -2.0062e-05)
(0.103628 -7.27123e-05 -2.53748e-05)
(0.107996 -0.000321978 5.51132e-05)
(0.109055 -0.000315349 0.000298721)
(0.108598 -0.000500006 -9.87567e-05)
(0.103122 -0.000195165 -9.88547e-05)
(0.109567 8.44896e-05 -0.000120489)
(0.110021 0.000128903 1.67377e-05)
(0.1102 -5.12501e-05 4.28352e-06)
(0.108129 8.66322e-05 -7.34268e-06)
(0.108363 0.000381012 0.000191549)
(0.107979 0.000167481 0.000266305)
(0.103627 0.000175781 0.000163756)
(0.111107 -0.000323979 2.56502e-05)
(0.110868 -0.00024945 9.93246e-05)
(0.111049 -0.000224797 -5.0306e-05)
(0.11086 -0.000409525 -1.99894e-06)
(0.110974 -0.000168641 0.000211322)
(0.111029 -0.000131403 -0.000140052)
(0.111519 -0.000237808 0.000103549)
(0.111662 -0.000147729 6.90364e-05)
(0.107004 0.000142729 -0.000410752)
(0.107107 -4.59895e-05 1.24191e-05)
(0.108081 -3.92965e-06 -7.43835e-05)
(0.103723 -0.000268057 -9.77431e-05)
(0.109315 -0.000118407 0.000129021)
(0.109777 -0.000388381 1.10805e-05)
(0.109733 -0.000106281 7.08049e-05)
(0.106434 -8.06574e-05 0.000140022)
(0.109928 0.000357095 -0.000209237)
(0.110608 0.00025514 -0.000419143)
(0.110712 0.000274856 -0.000427045)
(0.108941 0.000206707 -0.000607687)
(0.10882 -8.90035e-05 -4.54558e-05)
(0.107631 6.93852e-06 -0.000116092)
(0.107421 -0.000240987 -3.12783e-05)
(0.10376 2.42693e-05 -2.47288e-05)
(0.110973 -9.37433e-05 0.000152794)
(0.109012 -4.1334e-06 -3.59266e-05)
(0.110699 -0.000260203 -0.000291521)
(0.111378 -0.000109781 -0.000178821)
(0.111189 -8.41988e-05 -6.5789e-05)
(0.110982 6.1746e-05 -0.000134254)
(0.110743 0.000263268 -9.70121e-05)
(0.110053 0.000229893 -0.000117631)
(0.108924 0.000332168 0.00012534)
(0.110947 0.000115457 -0.000145707)
(0.110594 0.000237088 -2.94186e-05)
(0.110901 0.000162784 0.000139954)
(0.110961 0.000126605 4.5886e-05)
(0.111069 -3.47204e-05 -4.12896e-05)
(0.111094 -0.000105333 -2.43708e-05)
(0.1089 -0.000113832 -9.58774e-05)
(0.110668 -2.87606e-05 -0.000164771)
(0.110203 -0.00011128 -7.52599e-06)
(0.110695 -0.000105406 -3.19627e-05)
(0.108394 2.89455e-05 -0.00024657)
(0.110817 -9.45542e-06 -0.00013311)
(0.110955 0.00012916 -7.41664e-05)
(0.108912 0.000106956 -6.32336e-05)
(0.108867 -0.000247321 0.000344875)
(0.11035 -0.000387245 0.000260796)
(0.110369 -0.000374058 0.000294073)
(0.109775 7.30692e-05 0.000106598)
(0.110534 -2.30387e-05 -0.000107073)
(0.110561 0.00011287 -0.000103854)
(0.108696 0.000252693 0.000156141)
(0.108678 0.000254971 0.000209016)
(0.10737 0.000245759 -0.000135527)
(0.103266 0.000442655 -0.000109103)
(0.110787 -0.000118245 0.000159682)
(0.111201 0.000154627 -0.000370749)
(0.111366 0.000638361 -0.000259291)
(0.110445 -0.000150116 5.00728e-05)
(0.110364 -0.000187673 0.000158611)
(0.107982 -0.000279903 0.000239027)
(0.110555 0.000212421 2.70006e-05)
(0.110966 -7.18397e-05 5.99047e-05)
(0.110923 9.89309e-05 -0.000224002)
(0.110994 0.000177679 -0.000176875)
(0.108616 6.42522e-05 -0.000115345)
(0.109054 3.01649e-05 1.17285e-05)
(0.108665 -8.02264e-05 -0.000137)
(0.103052 0.000147676 -1.95045e-06)
(0.107785 0.000174768 0.000316456)
(0.107736 -3.65422e-05 0.000320392)
(0.108462 -3.2989e-06 0.000487264)
(0.103436 -6.59327e-05 0.000270113)
(0.110386 -9.53259e-05 -0.000349141)
(0.110701 9.67819e-05 -3.4835e-05)
(0.111174 -0.000134951 -9.471e-05)
(0.110984 0.000178967 -0.000151276)
(0.110669 -0.000162837 0.000168491)
(0.111212 3.27312e-05 0.000150776)
(0.110416 0.000112771 0.000195244)
(0.10941 -7.50409e-05 0.000500471)
(0.110277 -0.000107843 0.000131033)
(0.110194 -0.000232611 0.000278322)
(0.109721 -0.000148025 0.00049709)
(0.110377 -7.13437e-05 8.82124e-05)
(0.110979 -0.000165109 8.70061e-05)
(0.108876 4.56177e-06 0.000207708)
(0.111184 -9.13791e-05 -0.000235865)
(0.111225 9.67654e-05 -0.00014917)
(0.110544 -8.67047e-05 -7.88113e-06)
(0.108936 0.000166004 -9.50202e-05)
(0.110258 1.85583e-05 -7.57424e-05)
(0.108913 5.25738e-05 -4.42628e-05)
(0.110333 0.000115405 2.29396e-05)
(0.108588 0.000303429 6.32276e-05)
(0.110089 0.000426152 0.000177106)
(0.108984 0.000202851 0.000377482)
(0.110266 0.00035217 0.000222164)
(0.111387 9.44847e-05 5.47266e-05)
(0.110583 0.000274567 -0.00010958)
(0.110753 -0.000208126 -0.00026126)
(0.108681 5.65617e-05 9.71498e-05)
(0.103268 3.03022e-05 -9.71556e-05)
(0.108825 0.000158219 -7.12515e-05)
(0.110133 8.70644e-05 -5.7928e-05)
(0.111426 0.000111764 -5.21621e-05)
(0.111337 -0.000105753 -3.66079e-06)
(0.111075 -1.84841e-05 1.95706e-06)
(0.111444 -9.58096e-05 4.66903e-05)
(0.111033 -0.000176056 5.82387e-05)
(0.110973 -0.000195117 -0.000150392)
(0.110986 -0.000233782 -3.30778e-05)
(0.110964 -0.000189324 -0.000210579)
(0.111176 -0.00026522 -4.01913e-05)
(0.111062 -0.000281175 -8.10226e-05)
(0.1104 -0.00017553 2.12442e-05)
(0.110172 -0.000557452 0.000235647)
(0.110827 -0.000545884 -3.73708e-05)
(0.110714 -0.000478916 -0.000117736)
(0.110166 -3.6487e-05 -0.000158051)
(0.110099 5.81224e-06 -0.000296479)
(0.108844 -1.20205e-05 0.000110481)
(0.111127 7.44902e-05 5.97925e-05)
(0.109102 -0.00010754 4.7423e-05)
(0.11028 0.000301545 -0.000103797)
(0.110311 0.000295557 -0.000142327)
(0.110725 -0.000143137 -6.22514e-05)
(0.108738 -0.000113909 -5.47804e-05)
(0.11094 7.16925e-05 -0.000265867)
(0.11028 0.000151296 -0.0003474)
(0.1107 -7.85751e-05 -0.00036735)
(0.103406 2.92387e-05 -0.000215555)
(0.110553 4.67066e-05 -0.000163672)
(0.108998 4.50643e-07 -0.000164904)
(0.108961 0.00013431 -0.000161155)
(0.110232 0.000223204 6.23848e-05)
(0.108879 0.000299501 -0.000105349)
(0.110403 0.000458597 -9.46976e-05)
(0.110454 -2.31329e-05 -1.03763e-05)
(0.11029 -9.09012e-06 -0.000101097)
(0.110213 9.73823e-05 3.46884e-05)
(0.109056 5.14662e-05 -0.000104481)
(0.111019 6.46737e-05 -0.000143827)
(0.11032 1.08951e-05 -0.000352848)
(0.11082 -8.13276e-05 -0.00018001)
(0.110184 -0.00023721 -0.000265741)
(0.110149 -0.000255543 -0.000244052)
(0.110934 -0.000180379 -8.12007e-05)
(0.110569 -0.000223836 6.38722e-05)
(0.110915 9.1345e-05 -0.000272212)
(0.111041 7.4532e-05 -0.000131754)
(0.108423 -0.00039024 -7.84259e-06)
(0.108804 -0.000480723 -0.00013033)
(0.103327 -2.53328e-05 -0.000127817)
(0.10983 -0.000282206 -5.74201e-05)
(0.110617 -0.000300722 -5.9194e-05)
(0.111063 -0.000165129 -0.000212967)
(0.110413 3.46399e-05 -0.000236534)
(0.111168 -0.000243749 -0.000186717)
(0.11145 -5.96106e-05 -2.01932e-05)
(0.111246 5.07809e-05 -8.49535e-05)
(0.110848 3.49114e-05 -4.79221e-06)
(0.10905 -0.000207841 -0.000304114)
(0.11083 -0.000209743 -0.000306336)
(0.106899 0.000281946 0.000199806)
(0.107768 -0.000104019 0.000512366)
(0.107669 -0.000118068 0.000408479)
(0.102356 -0.000136124 0.000486814)
(0.110712 -0.000299398 -5.55291e-05)
(0.11035 -0.00042944 0.000103886)
(0.109157 -0.000308917 0.000463174)
(0.107568 -0.000432969 -0.000262218)
(0.103693 -0.000121127 -0.00014079)
(0.110034 9.02932e-05 -0.000111147)
(0.110066 2.20442e-05 -1.14541e-05)
(0.102012 -6.39523e-05 -0.000177204)
(0.110485 -0.000161515 0.00010198)
(0.11118 -0.000214991 0.000104614)
(0.108127 2.81627e-05 0.000183738)
(0.109291 0.000327388 0.000186989)
(0.109625 1.43598e-05 9.53702e-05)
(0.108587 8.56373e-05 -9.15156e-05)
(0.108601 9.11553e-05 -0.000147425)
(0.10877 0.00016205 -0.000344771)
(0.103095 4.64281e-05 1.02648e-05)
(0.110236 1.03613e-05 -6.98764e-06)
(0.109973 -2.72161e-05 -0.000173531)
(0.109764 2.23157e-05 -0.000111232)
(0.110907 0.000275492 -0.000103904)
(0.111291 0.000171163 -0.000135691)
(0.10992 -4.967e-05 -0.000163955)
(0.110496 -0.000171276 -0.000193782)
(0.11109 -0.000595987 -0.000293363)
(0.110955 8.00013e-05 0.000218885)
(0.108882 -6.91115e-05 -0.000122131)
(0.108831 -1.47683e-05 -0.000132267)
(0.102917 2.70129e-06 -4.72992e-05)
(0.108142 -0.000327829 8.7451e-06)
(0.107481 -0.000140116 0.000234522)
(0.103539 -0.000119669 2.20731e-05)
(0.110862 -0.000288553 8.54796e-05)
(0.110037 2.84517e-05 0.000214641)
(0.110596 -0.00011589 0.000181328)
(0.110035 -3.2913e-05 1.10051e-05)
(0.110922 -6.33471e-05 -0.000172184)
(0.111408 -0.000104505 -0.000171096)
(0.110532 8.83305e-05 -0.000247945)
(0.108512 0.000220287 4.46748e-05)
(0.108947 0.00014108 7.20916e-06)
(0.102522 0.000257701 -0.000341355)
(0.111127 -0.00040821 8.98215e-05)
(0.111192 -0.000426072 8.78319e-05)
(0.111014 -0.000413816 6.98678e-05)
(0.109537 -7.63762e-05 -6.12887e-05)
(0.108519 4.10738e-05 -0.000240868)
(0.103562 6.33934e-06 -0.000208824)
(0.107587 -9.77886e-06 0.000151555)
(0.107584 -0.000153149 0.000238462)
(0.103722 -5.68601e-05 1.27907e-05)
(0.110473 0.000174857 -4.48306e-05)
(0.110386 0.000154041 -8.0904e-05)
(0.110936 0.000119699 0.000140513)
(0.108954 -0.000106862 -5.25932e-05)
(0.110132 -0.00015683 -0.000267821)
(0.110979 -0.000233573 2.54779e-06)
(0.110066 -0.000128474 0.000262783)
(0.110712 -3.42819e-05 -4.18839e-05)
(0.10961 -0.000346527 0.000197255)
(0.110217 -0.00032377 9.19494e-05)
(0.110292 -0.000325845 0.000115556)
(0.107924 -0.000265072 0.00010117)
(0.107895 0.000104681 0.00031974)
(0.109498 0.000237493 0.000148009)
(0.108813 3.83829e-05 -5.91582e-05)