/*--------------------------------*- C++ -*----------------------------------*\
| =========                 |                                                 |
| \\      /  F ield         | OpenFOAM: The Open Source CFD Toolbox           |
|  \\    /   O peration     | Version:  2212                                  |
|   \\  /    A nd           | Website:  www.openfoam.com                      |
|    \\/     M anipulation  |                                                 |
\*---------------------------------------------------------------------------*/
FoamFile
{
    version     2.0;
    format      ascii;
    arch        "LSB;label=32;scalar=64";
    class       volScalarField;
    location    "0.024";
    object      epsilon;
}
// * * * * * * * * * * * * * * * * * * * * * * * * * * * * * * * * * * * * * //

dimensions      [0 2 -3 0 0 0 0];

internalField   nonuniform List<scalar> 
31639
(
1.49131
1.4863
1.50081
1.50069
1.49969
1.48146
1.51365
1.50348
1.49247
1.49804
1.50595
1.49782
1.48745
1.48784
1.47478
1.50604
1.49502
1.49328
1.47743
1.48401
1.51681
1.50353
1.49953
1.4896
1.49554
1.49179
1.48154
1.27142
1.50011
1.50226
1.49617
1.4939
1.4959
1.49328
1.51903
1.50318
1.50716
1.50757
1.49861
1.52037
1.50608
1.50376
1.49112
1.49976
1.50718
1.49558
1.4834
1.49095
1.4903
1.49884
1.49394
1.50026
1.51258
1.52653
1.48566
1.49841
1.51049
1.48997
1.48476
1.51273
1.48997
1.50148
1.515
1.47976
1.49152
1.49473
1.47788
1.48967
1.51568
1.49689
1.50067
1.45743
1.48982
1.48552
1.50934
1.52188
1.49542
1.49321
1.47901
1.50378
1.4887
1.52175
1.49733
1.49514
1.47818
1.49592
1.49986
1.49884
1.49429
1.50482
1.48905
1.48744
1.50203
1.48115
1.48013
1.47837
1.48914
1.48478
1.49104
1.51297
1.50256
1.49679
1.47333
1.5079
1.49963
1.49922
1.50866
1.51163
1.49891
1.52309
1.46851
1.50483
1.48885
1.49515
1.48253
1.51422
1.51131
1.50691
1.5097
1.48588
1.49508
1.4975
1.48639
1.48953
1.49747
1.50152
1.4896
1.48944
1.49056
1.48916
1.48961
1.4783
1.47891
1.49275
1.49166
1.48837
1.50928
1.50913
1.49384
1.48861
1.48595
1.49679
1.49886
1.50378
1.52024
1.49313
1.49411
1.51445
1.50602
1.49986
1.51459
1.50011
1.48076
1.49105
1.50935
1.49653
1.48733
1.51729
1.48812
1.48935
1.49489
1.51696
1.51621
1.51409
1.51788
1.47593
1.51824
1.50004
1.49425
1.49733
1.45339
1.4757
1.51498
1.48778
1.49808
1.49827
1.49148
1.5018
1.48995
1.47689
1.48031
1.47343
1.45945
1.51557
1.50046
1.50007
1.45543
1.50043
1.52082
1.50335
1.51026
1.49919
1.48127
1.48198
1.48247
1.48849
1.50077
1.48971
1.50142
1.48999
1.49404
1.50891
1.46275
1.46646
1.50382
1.48857
1.47711
1.47187
1.49917
1.52065
1.48602
1.49965
1.4978
1.49606
1.49917
1.49016
1.50942
1.50312
1.50885
1.49642
1.48844
1.49999
1.50991
1.506
1.51429
1.51304
1.50292
1.50051
1.51151
1.4955
1.49121
1.50141
1.4948
1.51913
1.48034
1.4846
1.49134
1.48428
1.52179
1.50429
1.47792
1.4754
1.47108
1.4929
1.52937
1.49525
1.47139
1.47088
1.48453
1.48822
1.46012
1.52651
1.50307
1.49864
1.50189
1.50157
1.5101
1.48821
1.48428
1.50592
1.50065
1.49354
1.50281
1.49823
1.4808
1.49619
1.49381
1.48998
1.47049
1.46435
1.47385
1.4868
1.50157
1.51304
1.50233
1.49385
1.50196
1.49518
1.50428
1.49303
1.49168
1.5043
1.5029
1.49974
1.50077
1.5297
1.50686
1.51446
1.4855
1.50561
1.51354
1.47029
1.48601
1.50632
1.50826
1.49234
1.53352
1.49412
1.51452
1.53568
1.49009
1.49028
1.48382
1.47345
1.51687
1.48731
1.47261
1.4992
1.52003
1.49248
1.502
1.48059
1.51286
1.52578
1.49248
1.49755
1.48093
1.50066
1.50166
1.47597
1.49323
1.49862
1.50874
1.49383
1.52003
1.52597
1.49749
1.4894
1.49049
1.49628
1.49231
1.50258
1.46388
1.47466
1.50267
1.51482
1.50775
1.48269
1.45713
1.50015
1.49318
1.4787
1.46993
1.47804
1.47487
1.4793
1.49191
1.45611
1.51572
1.51146
1.5071
1.49149
1.5115
1.47902
1.47982
1.51024
1.47619
1.48427
1.51836
1.50507
1.50632
1.50115
1.49946
1.50867
1.48894
1.48407
1.51194
1.48941
1.51695
1.47957
1.50734
1.5028
1.51911
1.48996
1.50416
1.49023
1.49349
1.50067
1.51175
1.51576
1.47734
1.503
1.47739
1.50728
1.49125
1.48646
1.49693
1.49496
1.48305
1.50873
1.49182
1.5012
1.48219
1.5323
1.48097
1.47707
1.47387
1.47629
1.48766
1.49799
1.48301
1.5232
1.50233
1.49582
1.48764
1.50617
1.50328
1.49379
1.48855
1.46818
1.48229
1.50239
1.48343
1.4964
1.4884
1.49576
1.51619
1.49469
1.49552
1.51843
1.5003
1.50881
1.51013
1.52793
1.49031
1.47236
1.50591
1.5154
1.50895
1.4876
1.49615
1.48474
1.48188
1.48888
1.50541
1.49417
1.5157
1.49171
1.48305
1.51087
1.48396
1.50637
1.49675
1.49541
1.5032
1.46841
1.49016
1.495
1.49627
1.5121
1.5049
1.48904
1.5111
1.5134
1.47946
1.51764
1.52993
1.49073
1.47609
1.4929
1.51697
1.4916
1.50599
1.47837
1.49743
1.25747
1.4762
1.52366
1.47305
1.49154
1.50868
1.48452
1.49359
1.48605
1.49319
1.47657
1.48842
1.51595
1.52025
1.48182
1.51337
1.50972
1.48513
1.51819
1.48884
1.50078
1.4985
1.49704
1.49763
1.49202
1.49378
1.48742
1.53112
1.50123
1.50256
1.49611
1.50221
1.48955
1.48974
1.51602
1.4977
1.49262
1.4955
1.47793
1.4803
1.49573
1.48644
1.505
1.53083
1.49403
1.51533
1.49352
1.4786
1.51094
1.52394
1.49132
1.49722
1.50595
1.48356
1.50582
1.48175
1.5002
1.50478
1.53233
1.50895
1.50345
1.46845
1.47499
1.49924
1.49056
1.49621
1.48292
1.47958
1.48076
1.49321
1.51631
1.49231
1.48384
1.50128
1.48602
1.51268
1.47882
1.47986
1.28776
1.51222
1.48037
1.48748
1.51252
1.5063
1.49055
1.47062
1.49279
1.52145
1.50209
1.49811
1.48264
1.49687
1.53004
1.49384
1.4941
1.51189
1.5012
1.49922
1.50929
1.48924
1.50296
1.5098
1.48072
1.52007
1.50592
1.535
1.50241
1.51398
1.505
1.49462
1.49389
1.48036
1.489
1.49965
1.47611
1.49394
1.48584
1.547
1.52611
1.52684
1.4815
1.48562
1.50444
1.48755
1.47663
1.50095
1.48715
1.50603
1.52238
1.50877
1.48848
1.49073
1.5264
1.517
1.50988
1.49696
1.47924
1.50022
1.47664
1.49464
1.4815
1.49297
1.51704
1.49032
1.49402
1.47954
1.47479
1.52085
1.49475
1.49828
1.26485
1.51217
1.53321
1.50214
1.487
1.48853
1.48787
1.4844
1.49212
1.4869
1.48599
1.51858
1.4912
1.52752
1.48975
1.49652
1.50192
1.50402
1.4841
1.50399
1.50629
1.53694
1.4969
1.49032
1.48306
1.49624
1.51571
1.48744
1.51484
1.47339
1.49983
1.49971
1.49374
1.47945
1.49055
1.51204
1.51088
1.50725
1.50581
1.52306
1.48093
1.49794
1.50119
1.51973
1.48361
1.50664
1.47881
1.49834
1.48955
1.50884
1.51133
1.4891
1.47532
1.49601
1.47984
1.498
1.52603
1.53602
1.53257
1.49778
1.49311
1.52518
1.46228
1.49282
1.50951
1.50092
1.51792
1.47453
1.46909
1.47756
1.49205
1.48966
1.48989
1.50273
1.477
1.47377
1.49657
1.4905
1.49686
1.25738
1.49935
1.48315
1.49239
1.50034
1.50963
1.49907
1.50416
1.4918
1.48379
1.48828
1.48996
1.49783
1.5002
1.4935
1.502
1.49626
1.51699
1.49643
1.49113
1.5007
1.46281
1.47738
1.48513
1.50979
1.48656
1.49411
1.51345
1.53236
1.49282
1.48823
1.49615
1.52088
1.48378
1.4966
1.47413
1.50957
1.4724
1.51476
1.49941
1.51345
1.5138
1.4844
1.52031
1.50941
1.50688
1.48308
1.47832
1.47176
1.48843
1.46075
1.49212
1.50579
1.47329
1.50626
1.48405
1.49293
1.47961
1.52224
1.47798
1.48232
1.47969
1.5011
1.49154
1.48781
1.48511
1.5003
1.50975
1.47057
1.49502
1.47369
1.50223
1.4962
1.4814
1.50161
1.46931
1.48959
1.49383
1.49297
1.46575
1.50823
1.52289
1.51951
1.50487
1.50534
1.48928
1.49709
1.50085
1.47395
1.47732
1.49358
1.5055
1.49197
1.52079
1.48428
1.50908
1.49657
1.49856
1.49371
1.49512
1.5071
1.48113
1.51794
1.5049
1.51464
1.48421
1.49814
1.48794
1.47785
1.51229
1.45807
1.5048
1.48725
1.51635
1.49306
1.50478
1.50153
1.46153
1.50571
1.4984
1.50078
1.50293
1.50372
1.47167
1.50016
1.5144
1.49725
1.48226
1.49187
1.47694
1.4906
1.47482
1.48699
1.47688
1.48864
1.47807
1.50513
1.48941
1.49786
1.51023
1.49378
1.53058
1.4806
1.49176
1.47819
1.48379
1.50823
1.52008
1.50436
1.51243
1.49004
1.51471
1.47886
1.48
1.493
1.51034
1.49413
1.50155
1.51751
1.50068
1.50071
1.51282
1.50375
1.50078
1.48911
1.486
1.49315
1.48105
1.52042
1.49008
1.49239
1.49465
1.5002
1.49162
1.51675
1.52421
1.4975
1.49195
1.47945
1.513
1.48582
1.47314
1.4887
1.49653
1.51303
1.51586
1.49124
1.48459
1.50228
1.52309
1.47224
1.49326
1.51531
1.51632
1.50675
1.50445
1.46581
1.48873
1.47415
1.50164
1.52133
1.50484
1.47972
1.487
1.49244
1.47917
1.49951
1.4775
1.46651
1.47769
1.49175
1.48265
1.488
1.49031
1.48912
1.51248
1.4755
1.47524
1.51249
1.4859
1.4858
1.4784
1.49512
1.4985
1.52604
1.52347
1.4881
1.4994
1.46991
1.49291
1.47935
1.50021
1.51166
1.48621
1.51337
1.49792
1.50354
1.47637
1.48648
1.4927
1.53188
1.49517
1.49985
1.48801
1.50353
1.53053
1.49018
1.48625
1.49159
1.49042
1.47607
1.51725
1.48679
1.51763
1.47708
1.47097
1.50807
1.50756
1.49379
1.52261
1.5118
1.49273
1.4813
1.49688
1.50614
1.50879
1.50792
1.52355
1.49658
1.50299
1.49512
1.51846
1.51791
1.51851
1.50998
1.48762
1.49911
1.48789
1.52886
1.5001
1.47967
1.50244
1.48655
1.48767
1.50433
1.47392
1.51615
1.52346
1.50797
1.48255
1.48963
1.50479
1.49203
1.52271
1.49213
1.48864
1.49927
1.48416
1.53348
1.50434
1.4884
1.48776
1.50461
1.51558
1.50284
1.4896
1.48763
1.51096
1.50253
1.51075
1.50197
1.48916
1.4871
1.52575
1.48306
1.51735
1.49869
1.48785
1.52427
1.48599
1.50294
1.4828
1.50268
1.52192
1.48022
1.47159
1.50342
1.50336
1.49285
1.48346
1.50977
1.51865
1.52833
1.53351
1.52583
1.51041
1.49476
1.5151
1.50171
1.49468
1.52115
1.48577
1.47328
1.48842
1.498
1.49576
1.51439
1.50169
1.52483
1.51817
1.48795
1.48085
1.48157
1.47807
1.49539
1.51286
1.50958
1.49036
1.50555
1.49642
1.49339
1.5133
1.49981
1.4948
1.47723
1.49048
1.49781
1.48738
1.489
1.48149
1.48787
1.48933
1.52708
1.53812
1.48216
1.51877
1.52487
1.49847
1.50296
1.48986
1.50147
1.52636
1.49576
1.48334
1.50123
1.4973
1.47171
1.53462
1.48717
1.518
1.49294
1.4836
1.49432
1.52522
1.51402
1.51261
1.50079
1.50437
1.49705
1.50839
1.50032
1.48348
1.50303
1.47904
1.4831
1.54152
1.52091
1.49643
1.51762
1.53429
1.49808
1.51073
1.50123
1.50125
1.5044
1.4939
1.48592
1.51568
1.5037
1.51435
1.47976
1.48351
1.5036
1.51838
1.50206
1.50593
1.48519
1.49184
1.51081
1.52338
1.47521
1.54025
1.47831
1.49307
1.49247
1.48087
1.5073
1.50241
1.51208
1.48402
1.52465
1.48292
1.5155
1.5043
1.48994
1.50002
1.51384
1.52734
1.51243
1.51515
1.5333
1.48143
1.47836
1.50849
1.4909
1.49566
1.50814
1.49737
1.50557
1.48089
1.48966
1.50942
1.49724
1.49601
1.48731
1.51622
1.50873
1.52713
1.49804
1.52666
1.50123
1.50615
1.53899
1.5171
1.5016
1.48164
1.51493
1.54664
1.49455
1.48234
1.48944
1.52664
1.509
1.49524
1.5089
1.50878
1.52476
1.51091
1.51926
1.51958
1.4966
1.50833
1.50239
1.49002
1.52223
1.52387
1.48012
1.51149
1.50166
1.5228
1.53415
1.48639
1.48196
1.51096
1.48314
1.49933
1.50777
1.4983
1.51189
1.49801
1.48029
1.51374
1.48076
1.49573
1.53301
1.49106
1.48786
1.49966
1.4804
1.42765
1.48082
1.48764
1.49992
1.53626
1.48227
1.49381
1.52286
1.48166
1.47461
1.51177
1.49384
1.52012
1.51363
1.48709
1.49241
1.49663
1.50734
1.48693
1.4679
1.4763
1.47822
1.47166
1.51591
1.5128
1.48344
1.49079
1.502
1.51578
1.51881
1.52397
1.50626
1.52966
1.49781
1.50715
1.49024
1.51268
1.47555
1.54227
1.4847
1.52919
1.51262
1.51706
1.51278
1.49278
1.51833
1.50679
1.50078
1.51679
1.52192
1.49401
1.52046
1.48154
1.51542
1.49158
1.50513
1.52677
1.48449
1.48799
1.49593
1.50824
1.48781
1.5063
1.49581
1.47454
1.49138
1.4901
1.4864
1.49841
1.49765
1.52136
1.47926
1.50673
1.47923
1.4856
1.50037
1.52817
1.47666
1.5018
1.51405
1.50061
1.50803
1.4851
1.48125
1.47609
1.49154
1.48313
1.49657
1.4958
1.50441
1.46492
1.48876
1.50454
1.5129
1.48613
1.50109
1.49791
1.50249
1.51346
1.4745
1.49645
1.52703
1.5041
1.49303
1.49477
1.48934
1.47464
1.52005
1.54157
1.53941
1.52339
1.49223
1.49783
1.50711
1.49283
1.53392
1.51391
1.50537
1.49397
1.51676
1.52045
1.49431
1.51106
1.52315
1.48295
1.52168
1.52275
1.52356
1.50405
1.48006
1.50564
1.49604
1.50428
1.50539
1.51547
1.49524
1.4897
1.48894
1.49126
1.513
1.48382
1.51809
1.47335
1.51333
1.50824
1.49737
1.48822
1.493
1.49583
1.49245
1.47128
1.50128
1.48061
1.48095
1.4747
1.47953
1.47838
1.51084
1.34449
1.48643
1.52036
1.50483
1.48567
1.48521
1.51582
1.49087
1.50523
1.52818
1.51546
1.49113
1.49851
1.49722
1.49031
1.48338
1.49557
1.49593
1.51736
1.48632
1.51238
1.50298
1.49162
1.49137
1.51195
1.5029
1.48801
1.51377
1.50529
1.51501
1.48331
1.4846
1.50334
1.49665
1.49058
1.46814
1.47196
1.50632
1.51153
1.52117
1.51708
1.52814
1.51583
1.51374
1.53425
1.48529
1.50241
1.52744
1.48062
1.48373
1.5415
1.52982
1.49324
1.51626
1.50801
1.50703
1.52435
1.51543
1.5159
1.49224
1.50978
1.5221
1.4931
1.4766
1.47934
1.51822
1.49776
1.48973
1.50779
1.22181
1.49807
1.5014
1.48098
1.51283
1.47383
1.49096
1.48028
1.49449
1.48907
1.48288
1.47543
1.52234
1.48934
1.50656
1.49201
1.50711
1.49234
1.49089
1.49313
1.48584
1.4998
1.5056
1.49487
1.49805
1.48686
1.48792
1.5118
1.47463
1.49736
1.49619
1.47658
1.51104
1.49827
1.51122
1.48097
1.50793
1.5174
1.49988
1.47807
1.48556
1.50941
1.50003
1.51084
1.48854
1.4791
1.50642
1.49376
1.48233
1.50336
1.49511
1.5
1.51117
1.5084
1.52454
1.47652
1.48916
1.49984
1.47065
1.4973
1.51513
1.54185
1.48922
1.50796
1.50665
1.46118
1.48376
1.49746
1.51092
1.50264
1.29708
1.51391
1.50817
1.49577
1.49075
1.52092
1.50235
1.50343
1.49127
1.49824
1.48246
1.5189
1.48217
1.48534
1.51545
1.49058
1.50271
1.51669
1.49047
1.49107
1.50549
1.47996
1.49432
1.5235
1.48185
1.4874
1.48594
1.47939
1.4858
1.49106
1.49794
1.50641
1.54475
1.54705
1.47947
1.52969
1.5036
1.4961
1.50729
1.48828
1.48864
1.51959
1.49392
1.48646
1.52568
1.50382
1.48943
1.51112
1.48914
1.49844
1.50696
1.5018
1.52326
1.54416
1.32005
1.48648
1.51695
1.48342
1.49317
1.50745
1.49258
1.50476
1.5243
1.47816
1.50319
1.50482
1.5289
1.4879
1.50538
1.47084
1.5069
1.50962
1.48044
1.52066
1.51375
1.47457
1.50787
1.53659
1.51553
1.5036
1.49858
1.49874
1.47992
1.53975
1.50848
1.51153
1.53828
1.51642
1.52081
1.50411
1.49957
1.51395
1.48709
1.5093
1.51947
1.48138
1.49749
1.49266
1.53381
1.52152
1.49642
1.49261
1.47526
1.48743
1.49085
1.46698
1.47713
1.50012
1.49825
1.49465
1.49777
1.51982
1.48611
1.47958
1.5
1.47321
1.49822
1.51017
1.50068
1.50658
1.53768
1.52292
1.52768
1.51149
1.488
1.4348
1.5049
1.49695
1.49052
1.49934
1.49328
1.54129
1.49311
1.48212
1.51255
1.51979
1.50488
1.50715
1.49528
1.51785
1.50856
1.49745
1.51051
1.50111
1.47774
1.48923
1.49458
1.50036
1.50847
1.51297
1.50436
1.32645
1.4919
1.50032
1.49893
1.51226
1.46771
1.50779
1.4937
1.48367
1.48073
1.49376
1.50806
1.47501
1.51446
1.50486
1.5022
1.48325
1.51137
1.49389
1.50328
1.5089
1.47732
1.50889
1.46496
1.47134
1.50585
1.50586
1.37722
1.47106
1.49546
1.50513
1.49308
1.487
1.51509
1.49111
1.49122
1.48698
1.49576
1.49699
1.50059
1.47799
1.4853
1.50799
1.52955
1.48859
1.49871
1.5028
1.49935
1.51633
1.49177
1.53522
1.49209
1.48367
1.47384
1.48233
1.493
1.46932
1.49176
1.50567
1.49977
1.50034
1.50046
1.49738
1.51946
1.47809
1.49251
1.48548
1.48784
1.49981
1.50545
1.49512
1.51143
1.49929
1.48194
1.48534
1.52135
1.51007
1.48625
1.50085
1.49402
1.48299
1.51261
1.50824
1.49292
1.4929
1.50932
1.4935
1.49831
1.48273
1.50083
1.4868
1.45817
1.49258
1.3485
1.50308
1.49145
1.4938
1.50758
1.47524
1.50028
1.52933
1.4877
1.50774
1.50811
1.51848
1.49885
1.51508
1.49545
1.47198
1.51133
1.47987
1.50244
1.48956
1.49523
1.48322
1.50092
1.45471
1.4968
1.50177
1.49258
1.48637
1.53096
1.52642
1.50505
1.4973
1.5226
1.51493
1.49808
1.51339
1.51873
1.48797
1.51559
1.51395
1.52039
1.51754
1.48965
1.45854
1.48993
1.49688
1.48439
1.51438
1.48883
1.49804
1.4916
1.51169
1.48472
1.47523
1.48222
1.48754
1.4914
1.48617
1.50326
1.49099
1.49484
1.50833
1.49251
1.48046
1.50007
1.50483
1.49707
1.49262
1.51097
1.48927
1.4927
1.50544
1.489
1.47643
1.53546
1.46084
1.51667
1.47868
1.48917
1.49636
1.48555
1.5031
1.45911
1.49637
1.50432
1.51205
1.5035
1.49848
1.48875
1.52295
1.51354
1.48312
1.53403
1.4842
1.49279
1.5151
1.47629
1.51253
1.51685
1.49385
1.49755
1.50993
1.5206
1.5099
1.50636
1.4541
1.53881
1.50889
1.49975
1.49992
1.48515
1.48533
1.47958
1.51166
1.50339
1.50837
1.49317
1.5171
1.49595
1.47952
1.48783
1.4917
1.50645
1.47252
1.48309
1.49863
1.51213
1.48991
1.47994
1.47596
1.5049
1.51524
1.4836
1.49197
1.49701
1.51157
1.55345
1.48044
1.4896
1.46488
1.49204
1.50627
1.51601
1.48365
1.4937
1.47291
1.46804
1.49353
1.50954
1.4979
1.49393
1.50003
1.42457
1.49639
1.50311
1.50255
1.49158
1.52133
1.48391
1.50235
1.49419
1.50581
1.50165
1.50878
1.50289
1.50955
1.48855
1.51936
1.50945
1.49136
1.48755
1.50025
1.49178
1.46591
1.51871
1.50535
1.50712
1.51937
1.49307
1.48079
1.50609
1.49486
1.51779
1.50266
1.46981
1.48374
1.51797
1.50541
1.27871
1.49771
1.48036
1.4746
1.4894
1.49452
1.49465
1.47294
1.50324
1.49216
1.48758
1.4748
1.51012
1.47378
1.46155
1.49131
1.5231
1.48695
1.51026
1.51308
1.46441
1.4851
1.4983
1.47264
1.49986
1.49599
1.50955
1.51189
1.53566
1.47839
1.48352
1.44426
1.47271
1.49626
1.51875
1.48741
1.48652
1.46543
1.49867
1.49109
1.50316
1.48015
1.50736
1.49957
1.51247
1.51495
1.52393
1.50234
1.50357
1.51439
1.48974
1.48049
1.52391
1.4814
1.49102
1.51401
1.48588
1.505
1.46819
1.48549
1.51834
1.48944
1.47828
1.51241
1.49159
1.46357
1.47082
1.50833
1.52215
1.49389
1.48903
1.49857
1.48303
1.49803
1.52015
1.5246
1.5078
1.51287
1.48535
1.50392
1.50449
1.49821
1.49709
1.48923
1.50286
1.49218
1.50347
1.46981
1.4914
1.49624
1.50055
1.47903
1.50798
1.51278
1.46949
1.50557
1.47272
1.50991
1.5025
1.48093
1.25804
1.48394
1.4777
1.48448
1.49875
1.45282
1.49714
1.50696
1.52777
1.49194
1.51758
1.4735
1.47591
1.48317
1.47404
1.46432
1.49122
1.47777
1.49203
1.50881
1.47845
1.31
1.5015
1.49455
1.46357
1.4752
1.49872
1.48762
1.5168
1.46618
1.51961
1.47986
1.49732
1.49518
1.45934
1.47254
1.51139
1.48202
1.48862
1.49163
1.51984
1.51136
1.52917
1.52274
1.51965
1.52678
1.51801
1.5015
1.50734
1.52125
1.49916
1.46517
1.48729
1.44509
1.50188
1.47624
1.49422
1.45583
1.4875
1.48137
1.48347
1.46943
1.53836
1.47102
1.49834
1.4679
1.49944
1.48693
1.50096
1.4943
1.5246
1.49794
1.51486
1.47997
1.49533
1.51154
1.5294
1.49014
1.49922
1.4995
1.48738
1.51057
1.49327
1.5043
1.48421
1.31829
1.34019
1.44573
1.50047
1.50495
1.49374
1.51582
1.49265
1.49249
1.46752
1.48163
1.49847
1.49751
1.24464
1.49334
1.48389
1.49997
1.48047
1.5109
1.50555
1.50648
1.49555
1.46396
1.47146
1.49183
1.48088
1.41964
1.49002
1.47888
1.48891
1.49414
1.5005
1.47803
1.4736
1.48535
1.31475
1.51144
1.45592
1.50748
1.49734
1.47933
1.48396
1.49599
1.49938
1.51231
1.48847
1.5173
1.261
1.51502
1.50111
1.5204
1.50381
1.48725
1.50715
1.49264
1.50453
1.49617
1.50493
1.50669
1.50579
1.50068
1.49739
1.48722
1.48783
1.4764
1.4902
1.48523
1.50013
1.46958
1.47847
1.46296
1.48665
1.48387
1.48211
1.46746
1.51073
1.47702
1.47817
1.52216
1.48625
1.4843
1.50348
1.51676
1.49641
1.49467
1.53404
1.27028
1.50681
1.48278
1.54217
1.50019
1.55105
1.51097
1.49097
1.50147
1.50689
1.4994
1.4897
1.34882
1.5149
1.49731
1.49671
1.53966
1.48698
1.5305
1.55787
1.50723
1.48542
1.51357
1.4908
1.50268
1.46654
1.49016
1.45774
1.51541
1.48243
1.47195
1.47486
1.49454
1.43151
1.49921
1.50499
1.48553
1.46779
1.50218
1.50113
1.48829
1.48641
1.48318
1.48547
1.47686
1.48179
1.47444
1.45568
1.47848
1.50121
1.49263
1.44941
1.41969
1.48176
1.47898
1.49544
1.46098
1.47469
1.49397
1.4897
1.43544
1.49399
1.47645
1.48667
1.39211
1.48136
1.49578
1.48616
1.51196
1.49471
1.5417
1.48921
1.48161
1.52602
1.4872
1.48431
1.4805
1.49814
1.50362
1.50887
1.4791
1.50353
1.50894
1.22851
1.48325
1.5048
1.5016
1.46896
1.47142
1.26904
1.4948
1.4887
1.48858
1.51853
1.50611
1.48101
1.47351
1.48892
1.52523
1.49081
1.49888
1.47607
1.5286
1.52162
1.4933
1.49366
1.48583
1.48078
1.48967
1.50177
1.4943
1.33093
1.49794
1.49658
1.49763
1.49037
1.49348
1.44677
1.50206
1.4824
1.48204
1.40221
1.38092
1.48425
1.49172
1.48347
1.52536
1.44901
1.45888
1.48903
1.47959
1.45755
1.47828
1.50026
1.49767
1.47427
1.47323
1.47728
1.49471
1.48857
1.5045
1.47882
1.47015
1.49617
1.49724
1.51233
1.50592
1.47245
1.4766
1.506
1.51034
1.49241
1.51208
1.48453
1.47592
1.44858
1.47195
1.48439
1.49021
1.46711
1.5158
1.49654
1.50363
1.49587
1.46128
1.48739
1.4568
1.481
1.47338
1.4775
1.50411
1.50278
1.51225
1.49845
1.28107
1.49281
1.48105
1.47464
1.4694
1.49742
1.49339
1.28968
1.49727
1.46628
1.27579
1.4917
1.52511
1.48864
1.47928
1.50761
1.26363
1.47554
1.50716
1.48995
1.50607
1.48091
1.52198
1.4893
1.4938
1.49363
1.49428
1.47887
1.47975
1.4837
1.5009
1.4919
1.49637
1.5345
1.50825
1.511
1.49079
1.51377
1.48582
1.5079
1.4723
1.52035
1.39318
1.48794
1.49129
1.52057
1.53807
1.4831
1.51404
1.49274
1.46753
1.46096
1.48941
1.49258
1.48199
1.51297
1.47264
1.50185
1.42621
1.4862
1.47306
1.48327
1.46331
1.43069
1.38548
1.48982
1.51564
1.47869
1.4961
1.47363
1.49113
1.38096
1.38042
1.47477
1.38718
1.47066
1.46567
1.51341
1.46791
1.49501
1.40733
1.2802
1.51425
1.49838
1.27671
1.51232
1.51448
1.46481
1.49872
1.40302
1.5114
1.52043
1.50094
1.28661
1.51101
1.52893
1.45416
1.49523
1.51301
1.49911
1.28803
1.51146
1.49763
1.49486
1.50225
1.4779
1.48482
1.47166
1.46892
1.47819
1.47134
1.47572
1.46069
1.40884
1.48238
1.45759
1.46424
1.50345
1.51826
1.46823
1.44487
1.49876
1.4977
1.48524
1.48683
1.50108
1.48089
1.51606
1.49309
1.50266
1.46964
1.48693
1.49784
1.50523
1.50599
1.51491
1.43487
1.49616
1.3881
1.47579
1.5164
1.48725
1.46274
1.51303
1.46426
1.43828
1.49898
1.48901
1.47101
1.25526
1.36417
1.47379
1.48988
1.47517
1.4361
1.45305
1.52011
1.43596
1.45284
1.49434
1.49199
1.52203
1.41364
1.49433
1.42683
1.49862
1.48604
1.49091
1.5073
1.45731
1.42593
1.46898
1.51574
1.49013
1.49959
1.52518
1.38802
1.48765
1.4947
1.4989
1.51999
1.49457
1.46181
1.47622
1.25216
1.49799
1.50929
1.46662
1.47445
1.4604
1.47537
1.49191
1.50119
1.49334
1.50086
1.48494
1.48782
1.48203
1.52882
1.37518
1.49226
1.37687
1.47604
1.50319
1.45487
1.5008
1.53249
1.51084
1.49513
1.46094
1.41303
1.44964
1.28297
1.47309
1.47945
1.49765
1.47454
1.5246
1.47514
1.51545
1.40624
1.44515
1.46102
1.39406
1.49832
1.44788
1.44277
1.46121
1.48025
1.51825
1.48904
1.52283
1.37925
1.4812
1.27121
1.26939
1.4937
1.39313
1.50455
1.48305
1.51544
1.51235
1.45576
1.51143
1.49007
1.45889
1.3803
1.46431
1.51477
1.47186
1.47738
1.41241
1.49463
1.47148
1.45754
1.42904
1.50791
1.47714
1.47841
1.4918
1.49333
1.49875
1.47841
1.46357
1.48567
1.51105
1.48553
1.25841
1.26744
1.39455
1.49604
1.43519
1.48082
1.29323
1.5367
1.48756
1.49371
1.4524
1.52822
1.45978
1.45362
1.52365
1.53527
1.43628
1.51908
1.30769
1.43749
1.34721
1.48209
1.51575
1.49785
1.47356
1.48624
1.34645
1.47884
1.31762
1.46489
1.43827
1.50055
1.39086
1.51679
1.42143
1.4919
1.41886
1.39168
1.5115
1.4619
1.53209
1.44777
1.48634
1.43652
1.47226
1.48714
1.44059
1.48291
1.49866
1.46463
1.5153
1.29684
1.50117
1.49145
1.45778
1.44641
1.4914
1.483
1.42756
1.50833
1.4862
1.38525
1.46925
1.50858
1.27732
1.50795
1.30926
1.47359
1.50848
1.49706
1.37073
1.50035
1.50333
1.50054
1.47835
1.48348
1.50597
1.27798
1.46001
1.44934
1.51417
1.51759
1.38773
1.50346
1.42049
1.41791
1.31145
1.25206
1.28067
1.51788
1.41545
1.50835
1.45845
1.46455
1.47087
1.49799
1.41073
1.24524
1.44018
1.49075
1.4829
1.48367
1.27997
1.53305
1.47983
1.48655
1.51167
1.44555
1.41203
1.49447
1.45027
1.45626
1.47059
1.43779
1.43902
1.4576
1.50175
1.38388
1.38409
1.40182
1.47974
1.42678
1.41636
1.41093
1.48539
1.40275
1.51949
1.51222
1.47874
1.3245
1.48862
1.48208
1.37433
1.47551
1.47268
1.51237
1.2773
1.49091
1.40851
1.48688
1.51264
1.47441
1.39338
1.5252
1.4755
1.47259
1.41583
1.38373
1.49546
1.49671
1.32338
1.32544
1.46627
1.32693
1.35445
1.45515
1.32415
1.50184
1.33084
1.40367
1.43122
1.42411
1.43285
1.40955
1.31673
1.47135
1.39122
1.51051
1.46753
1.49694
1.44843
1.43823
1.27008
1.43306
1.28159
1.30397
1.48343
1.47455
1.42709
1.51314
1.47437
1.47667
1.48413
1.3038
1.43783
1.51188
1.46946
1.50348
1.38327
1.50787
1.48624
1.49411
1.49621
1.47506
1.41608
1.43002
1.40182
1.49125
1.52272
1.50254
1.42836
1.37336
1.52437
1.4079
1.29332
1.34901
1.47313
1.42463
1.44293
1.41317
1.4477
1.45716
1.29721
1.49945
1.48567
1.34735
1.50958
1.4253
1.41731
1.50099
1.4231
1.51952
1.45762
1.38471
1.47702
1.33587
1.36446
1.5069
1.47054
1.29815
1.49585
1.43972
1.45963
1.47475
1.42834
1.47617
1.3864
1.44922
1.46506
1.44095
1.43409
1.48075
1.42019
1.33169
1.36836
1.28974
1.46865
1.45571
1.32619
1.4954
1.49502
1.33221
1.34659
1.49462
1.32645
1.41777
1.37034
1.39534
1.49765
1.40261
1.51694
1.47031
1.43466
1.38742
1.4429
1.39742
1.28159
1.34676
1.40344
1.3191
1.51802
1.40757
1.45485
1.35929
1.46805
1.48559
1.41119
1.33868
1.42369
1.36365
1.44147
1.48362
1.42873
1.28248
1.38239
1.37041
1.5146
1.50979
1.50205
1.51138
1.47121
1.48743
1.48704
1.50412
1.48263
1.51247
1.39898
1.4904
1.4634
1.43348
1.23616
1.50873
1.43378
1.47984
1.37882
1.49414
1.25724
1.28648
1.2873
1.48117
1.36636
1.38374
1.47202
1.36337
1.5157
1.35133
1.48794
1.52619
1.50992
1.50985
1.23835
1.42849
1.52005
1.37562
1.36066
1.38053
1.30052
1.38358
1.41293
1.36198
1.41411
1.42324
1.34015
1.36882
1.45811
1.44602
1.49992
1.45947
1.37123
1.39196
1.38078
1.46094
1.44607
1.50097
1.33343
1.30084
1.32553
1.43976
1.34584
1.333
1.5149
1.49419
1.38437
1.46
1.26079
1.28497
1.42255
1.28425
1.45043
1.46916
1.45718
1.42821
1.49688
1.48818
1.43288
1.43835
1.37435
1.29991
1.30141
1.50815
1.36392
1.4758
1.39249
1.39596
1.41982
1.47846
1.48412
1.49837
1.51888
1.24403
1.35591
1.52753
1.45259
1.40719
1.5167
1.49577
1.49478
1.4285
1.38091
1.41485
1.29226
1.27151
1.42185
1.28314
1.3835
1.3818
1.33586
1.30886
1.41264
1.36702
1.49293
1.28513
1.28021
1.36463
1.3515
1.4101
1.33581
1.39745
1.34518
1.40068
1.34573
1.47006
1.45525
1.47573
1.44361
1.38839
1.41379
1.41508
1.45417
1.30943
1.39884
1.44056
1.47416
1.39874
1.47143
1.31277
1.48764
1.23861
1.27366
1.25631
1.5111
1.47043
1.46058
1.49283
1.44505
1.35924
1.49844
1.43363
1.42053
1.34173
1.3949
1.48629
1.30827
1.46787
1.45736
1.23886
1.32898
1.36397
1.3403
1.25574
1.38649
1.37075
1.47194
1.31968
1.46164
1.43919
1.28932
1.36556
1.46814
1.36411
1.41661
1.37362
1.42493
1.25793
1.33589
1.3734
1.37335
1.28709
1.33831
1.28841
1.26639
1.47209
1.44322
1.3123
1.30674
1.41941
1.42028
1.36282
1.45671
1.44789
1.26539
1.31162
1.37803
1.26955
1.47474
1.44951
1.2953
1.29655
1.43256
1.28368
1.46021
1.49809
1.24761
1.49102
1.47461
1.43924
1.24522
1.32648
1.26473
1.39437
1.48807
1.50029
1.33732
1.2539
1.38175
1.33222
1.49584
1.38527
1.33889
1.28063
1.32521
1.28784
1.34263
1.34042
1.35222
1.36917
1.34332
1.36613
1.26092
1.47618
1.32889
1.27076
1.38784
1.36016
1.27217
1.45748
1.37738
1.48288
1.30187
1.47234
1.48221
1.42811
1.37308
1.29787
1.42755
1.48932
1.31269
1.37105
1.27876
1.43598
1.31208
1.25381
1.26438
1.44795
1.29684
1.28505
1.42395
1.43244
1.40855
1.43821
1.25782
1.28048
1.33461
1.39397
1.35993
1.49093
1.31553
1.49441
1.23089
1.25679
1.37236
1.30775
1.3128
1.37898
1.42737
1.30231
1.26521
1.33207
1.37614
1.47047
1.34992
1.27254
1.4751
1.32704
1.47595
1.253
1.28643
1.33562
1.3294
1.34094
1.31805
1.33266
1.49295
1.5074
1.49328
1.47498
1.2454
1.28502
1.35806
1.42171
1.25974
1.28067
1.30494
1.25625
1.44747
1.4701
1.29486
1.44669
1.49035
1.27894
1.40957
1.36634
1.29349
1.4731
1.27991
1.43879
1.44426
1.45861
1.4954
1.36426
1.34139
1.46952
1.49183
1.40684
1.26734
1.48109
1.47213
1.40363
1.46892
1.28405
1.494
1.45689
1.40996
1.24682
1.34263
1.48907
1.30198
1.30019
1.47581
1.27532
1.26455
1.40145
1.47842
1.37487
1.4234
1.313
1.45169
1.37848
1.38842
1.52392
1.29329
1.30874
1.32879
1.2974
1.24611
1.43242
1.38298
1.43101
1.28555
1.3001
1.30252
1.47978
1.26673
1.42929
1.42449
1.47341
1.27018
1.43093
1.29962
1.26737
1.40716
1.27807
1.31041
1.29382
1.25978
1.29044
1.32718
1.4067
1.49363
1.49342
1.38782
1.31849
1.4887
1.27285
1.27016
1.26534
1.45663
1.45158
1.42554
1.434
1.43406
1.40361
1.2764
1.49041
1.25342
1.28256
1.45124
1.2681
1.28389
1.48148
1.25833
1.27819
1.47402
1.33822
1.32825
1.28623
1.37749
1.39186
1.29427
1.4746
1.43683
1.44115
1.25894
1.42938
1.30439
1.31625
1.45885
1.26889
1.26314
1.46913
1.31517
1.30031
1.3075
1.24949
1.33455
1.40874
1.29469
1.45153
1.48452
1.31933
1.34082
1.34535
1.3641
1.45858
1.28381
1.46644
1.49146
1.34851
1.27917
1.24562
1.36936
1.24527
1.29917
1.46587
1.40134
1.28782
1.25693
1.3264
1.27369
1.28012
1.47189
1.44633
1.26254
1.32563
1.29608
1.28613
1.2765
1.29749
1.46398
1.25404
1.26388
1.24508
1.50332
1.26244
1.49054
1.34402
1.36069
1.26971
1.43323
1.23951
1.26771
1.28286
1.24454
1.43157
1.44952
1.23939
1.44638
1.27687
1.38599
1.28581
1.4793
1.47578
1.33377
1.28194
1.45471
1.3026
1.32417
1.28137
1.37349
1.37235
1.29673
1.35658
1.26882
1.37563
1.43348
1.27868
1.35432
1.23029
1.48751
1.3234
1.38238
1.24878
1.32425
1.25466
1.25291
1.33179
1.47677
1.32969
1.50658
1.48194
1.28013
1.39852
1.27067
1.24435
1.45423
1.45807
1.40638
1.2961
1.28796
1.2361
1.24481
1.47012
1.3215
1.25634
1.43334
1.34206
1.36035
1.26888
1.2594
1.41651
1.4323
1.28454
1.27796
1.4595
1.27581
1.46653
1.38539
1.4645
1.25774
1.26731
1.40983
1.31417
1.27667
1.31867
1.2867
1.32216
1.35093
1.28088
1.26925
1.45727
1.37411
1.25941
1.32596
1.39809
1.30206
1.41776
1.40645
1.3409
1.35303
1.27459
1.38783
1.23498
1.22835
1.25275
1.33417
1.38334
1.31885
1.28578
1.42996
1.28344
1.44176
1.34381
1.46241
1.32343
1.4809
1.27294
1.4689
1.27741
1.30358
1.47407
1.31702
1.23967
1.26788
1.29773
1.43401
1.42317
1.32135
1.41857
1.41022
1.26934
1.22094
1.25789
1.35872
1.25713
1.29738
1.28616
1.43392
1.26182
1.28782
1.41797
1.45088
1.37791
1.25729
1.35548
1.33867
1.31943
1.3697
1.31022
1.27125
1.28048
1.29641
1.30361
1.42475
1.28776
1.47648
1.29687
1.26992
1.48251
1.38968
1.25223
1.26868
1.48255
1.30505
1.33639
1.40255
1.27488
1.27463
1.48356
1.49121
1.26164
1.31606
1.48118
1.28981
1.41998
1.26207
1.24801
1.37496
1.36899
1.51667
1.34647
1.2774
1.37047
1.34314
1.27476
1.47857
1.29068
1.24214
1.24748
1.29011
1.2424
1.27692
1.26935
1.29813
1.25342
1.36433
1.37811
1.36842
1.42429
1.26322
1.24795
1.43902
1.30889
1.26374
1.25117
1.28806
1.34415
1.30811
1.31144
1.26754
1.41958
1.39447
1.39986
1.389
1.26711
1.2668
1.30933
1.32557
1.48689
1.31114
1.27373
1.32366
1.24585
1.25723
1.27845
1.23713
1.2794
1.24936
1.4054
1.32049
1.26864
1.49219
1.35021
1.29037
1.28767
1.27274
1.26417
1.26691
1.36126
1.29618
1.26139
1.26425
1.28541
1.27458
1.28454
1.26301
1.30266
1.28542
1.42897
1.44526
1.37828
1.27248
1.24284
1.25281
1.27996
1.30144
1.258
1.23767
1.44573
1.44995
1.4687
1.48775
1.29538
1.26938
1.29421
1.355
1.2775
1.25567
1.47805
1.49013
1.25556
1.30181
1.27947
1.48137
1.29006
1.2633
1.27279
1.29826
1.31106
1.30186
1.29822
1.27155
1.29256
1.41585
1.36944
1.27917
1.29524
1.24065
1.27922
1.26042
1.32186
1.27926
1.28228
1.29805