/*--------------------------------*- C++ -*----------------------------------*\
| =========                 |                                                 |
| \\      /  F ield         | OpenFOAM: The Open Source CFD Toolbox           |
|  \\    /   O peration     | Version:  2212                                  |
|   \\  /    A nd           | Website:  www.openfoam.com                      |
|    \\/     M anipulation  |                                                 |
\*---------------------------------------------------------------------------*/
FoamFile
{
    version     2.0;
    format      ascii;
    arch        "LSB;label=32;scalar=64";
    class       volScalarField;
    location    "0.024";
    object      k;
}
// * * * * * * * * * * * * * * * * * * * * * * * * * * * * * * * * * * * * * //

dimensions      [0 2 -2 0 0 0 0];

internalField   nonuniform List<scalar> 
31639
(
0.0329934
0.0323052
0.0328806
0.033955
0.0325772
0.0319355
0.0322008
0.0333018
0.0329768
0.0335256
0.0335704
0.0333817
0.0325968
0.0336793
0.0318885
0.0317323
0.0331216
0.0321862
0.0313833
0.0323612
0.0299765
0.0336217
0.0338145
0.0316149
0.031437
0.032809
0.0323758
0.0283339
0.032156
0.0338542
0.0335252
0.0319477
0.0336937
0.0314651
0.0306022
0.0338037
0.0293488
0.0341227
0.0336194
0.0290138
0.0306085
0.0302962
0.0333522
0.0335997
0.0337658
0.033534
0.0319212
0.0321781
0.0330373
0.0338553
0.0334071
0.0291418
0.034111
0.0298804
0.0318415
0.0329623
0.0301034
0.0325219
0.0323078
0.0300267
0.0326312
0.0334028
0.0314488
0.0321419
0.0329208
0.0338075
0.0325355
0.0325413
0.0310048
0.0337838
0.0338442
0.0310043
0.033186
0.0324072
0.0340209
0.0305345
0.0335416
0.0322724
0.0320607
0.033541
0.0313119
0.0289672
0.0336857
0.0328629
0.0327941
0.0334825
0.0338625
0.0336682
0.0305275
0.0340823
0.0326611
0.0324911
0.0302062
0.0321591
0.0308843
0.0319109
0.0323749
0.0324169
0.0326459
0.0301614
0.034018
0.0334614
0.0320043
0.029802
0.0300815
0.0336183
0.029721
0.0295384
0.0311368
0.029894
0.0328199
0.0302427
0.0321793
0.0318502
0.03246
0.0297793
0.0323347
0.0322765
0.0337382
0.0322624
0.0332574
0.0333859
0.0331169
0.0328819
0.0326558
0.0337921
0.032409
0.0312348
0.0309973
0.0332756
0.0334207
0.0331009
0.0331839
0.0319658
0.0332268
0.0325463
0.0300733
0.0297316
0.0332909
0.0324606
0.0323841
0.0335455
0.0335602
0.0295387
0.0293901
0.0337988
0.033462
0.0303437
0.030115
0.0335872
0.0312554
0.0326714
0.031436
0.0331934
0.0304677
0.0338229
0.0324577
0.0310615
0.0304278
0.0315686
0.0335358
0.030668
0.0312224
0.0299687
0.030471
0.0319806
0.0305032
0.0338191
0.0333145
0.0295974
0.0308767
0.0317312
0.0305949
0.0326089
0.0339548
0.0335296
0.0326943
0.0339028
0.0327129
0.0323766
0.0321016
0.0319597
0.0315075
0.0292751
0.032957
0.0339596
0.0315581
0.0337876
0.0304479
0.0298527
0.0342315
0.0334257
0.0328757
0.0322051
0.0323651
0.0319027
0.032022
0.0332184
0.0298018
0.0319788
0.0336359
0.0340396
0.0326048
0.032721
0.0327718
0.0324152
0.0319535
0.0318456
0.0334177
0.0293448
0.0322405
0.0321584
0.0328896
0.0334616
0.0331462
0.03358
0.0306803
0.0316535
0.0335575
0.0335876
0.0330796
0.0322612
0.029858
0.0326147
0.0299328
0.0327099
0.033455
0.0315156
0.0304209
0.0332227
0.0329114
0.0340462
0.0305519
0.0301091
0.032896
0.0330676
0.030015
0.0334417
0.031405
0.0296494
0.032026
0.0327272
0.0321023
0.0315894
0.0316058
0.0331479
0.0318401
0.0316343
0.0300853
0.0323003
0.0315325
0.0307245
0.0316896
0.0338712
0.0337028
0.0319769
0.0306372
0.0331487
0.0329599
0.0324191
0.0339197
0.0334956
0.03322
0.033627
0.0320034
0.032458
0.0295508
0.0314283
0.0331519
0.0316498
0.0329048
0.0317066
0.0327239
0.0339314
0.0339144
0.0325996
0.0300375
0.0321864
0.0311009
0.033455
0.0322852
0.0336644
0.0339576
0.0318912
0.0303081
0.0313277
0.0305311
0.0299261
0.033271
0.0307719
0.033961
0.0319223
0.0315779
0.0307383
0.0340993
0.0318612
0.0318912
0.0335355
0.032803
0.0314645
0.0323122
0.0305002
0.0323419
0.0319484
0.0305639
0.032054
0.0318695
0.0287026
0.0296456
0.0333482
0.0338395
0.0331124
0.0299821
0.0308301
0.0332091
0.0307917
0.0308164
0.0337742
0.0337953
0.0317966
0.0335243
0.0338541
0.0304665
0.0339079
0.0297019
0.0300052
0.0334826
0.0332207
0.0333759
0.0337904
0.0331688
0.0306625
0.031912
0.0319935
0.0336255
0.0340655
0.0340824
0.0320687
0.0314067
0.0329284
0.0332645
0.0328228
0.0315031
0.0322379
0.0318844
0.0321475
0.0333039
0.0315458
0.0304745
0.0332864
0.0342538
0.0319555
0.0339589
0.0333901
0.0321781
0.030528
0.0320601
0.0321824
0.0299677
0.0338365
0.030623
0.0328445
0.033594
0.0295403
0.0323766
0.0321791
0.0300972
0.03266
0.0307296
0.0321864
0.0339942
0.0332081
0.0296285
0.0328844
0.0305926
0.0329032
0.0334475
0.0336883
0.0337217
0.0307505
0.0329382
0.0298363
0.0318929
0.0297128
0.0336422
0.0332454
0.0336036
0.0334539
0.0311218
0.0339279
0.032376
0.0329618
0.0321194
0.0310875
0.0323081
0.0328916
0.0326336
0.0329554
0.0327514
0.0332364
0.0321605
0.030486
0.0325543
0.0333835
0.0330839
0.0295381
0.033691
0.0333777
0.0322592
0.0326017
0.0329315
0.0327118
0.0335213
0.0300194
0.0328947
0.0336126
0.0296608
0.032694
0.0328831
0.0307824
0.0298906
0.0301423
0.03207
0.030235
0.0323319
0.032157
0.0318737
0.0340263
0.0303766
0.0332644
0.0337365
0.0322939
0.0330507
0.0320298
0.0336477
0.0324205
0.0328034
0.0337941
0.0322854
0.030128
0.0323442
0.0338998
0.0335125
0.0331651
0.0339538
0.0316812
0.0329167
0.0332634
0.0338572
0.0340543
0.0304629
0.0321884
0.0291222
0.0324349
0.0320006
0.0304836
0.0300453
0.0319716
0.0329381
0.0333731
0.030203
0.0330772
0.0317416
0.0321325
0.0332882
0.0265253
0.0319701
0.0299128
0.0317516
0.0334232
0.0341999
0.0330532
0.0323843
0.0293961
0.0331195
0.0322795
0.0332131
0.0300105
0.0304418
0.0321462
0.0303168
0.0306185
0.032832
0.0300216
0.0318784
0.0301111
0.0331592
0.0301954
0.0338113
0.0333487
0.0334213
0.0335174
0.0315079
0.0335375
0.0337153
0.0328061
0.0334378
0.0325091
0.0333278
0.0342608
0.0318326
0.0335771
0.0338259
0.0321498
0.0310363
0.0338362
0.0324086
0.0292547
0.0298473
0.0325086
0.0338142
0.0337209
0.0319421
0.0341143
0.0343765
0.0331824
0.0326884
0.0322949
0.0324491
0.0307101
0.032088
0.0330202
0.0339221
0.0313724
0.0310629
0.0308137
0.0313988
0.0320786
0.0291697
0.0331329
0.0316281
0.0328912
0.0322383
0.033155
0.0324437
0.0305015
0.0327889
0.0335034
0.0309044
0.0332486
0.0341893
0.0323246
0.0320236
0.0286472
0.0310486
0.0322043
0.0324585
0.0305848
0.0303611
0.0325201
0.0311063
0.0331029
0.0314262
0.032324
0.0335497
0.0322817
0.029865
0.031761
0.0325417
0.0336461
0.030173
0.0290216
0.0334977
0.0300114
0.0326917
0.0340334
0.0301449
0.0323457
0.0339709
0.0326558
0.0302341
0.0336193
0.0326575
0.0301325
0.0334421
0.0327009
0.031871
0.0333454
0.0294197
0.0313688
0.032351
0.031971
0.0319374
0.0329998
0.0340862
0.0334874
0.0331273
0.033848
0.0333719
0.0329796
0.0314527
0.0330275
0.0338518
0.0346586
0.031057
0.0324989
0.032712
0.0346218
0.0306409
0.0294713
0.0337733
0.030815
0.0339962
0.0317116
0.0302366
0.0323559
0.0334856
0.0327028
0.0329943
0.0296911
0.0331758
0.0325097
0.0297808
0.0337236
0.033362
0.0278753
0.0305418
0.0309397
0.0322077
0.0324885
0.0324683
0.0322171
0.0324034
0.0333405
0.0324525
0.0323034
0.0306722
0.0337606
0.0300705
0.0324085
0.0323202
0.0320178
0.0341565
0.0323508
0.0310847
0.0297302
0.030714
0.0322879
0.0335737
0.030463
0.0338357
0.03256
0.0332694
0.030407
0.0317398
0.0332992
0.0339009
0.0335005
0.0330615
0.032578
0.0325539
0.0340515
0.0339622
0.0337369
0.0313881
0.0333369
0.0303505
0.0337563
0.0337002
0.0320848
0.0306776
0.0317933
0.0290782
0.0335028
0.0327539
0.0341371
0.0323478
0.0315741
0.030225
0.0334437
0.0297778
0.029312
0.0310182
0.0314638
0.0304163
0.0323472
0.0302379
0.0326808
0.0329288
0.0291123
0.0339028
0.0305417
0.0312016
0.0317089
0.0315892
0.033213
0.0336066
0.0338483
0.0337648
0.0319313
0.0322808
0.0319908
0.032032
0.0295784
0.0246113
0.033744
0.0321108
0.0332123
0.033496
0.0301756
0.0336149
0.0339506
0.0331902
0.0332069
0.0331719
0.0327204
0.0337396
0.0339395
0.0325262
0.0335589
0.0334662
0.0307839
0.033518
0.0318202
0.0334339
0.0315122
0.0321676
0.0313126
0.0341478
0.0319639
0.0325531
0.0325502
0.0307391
0.0337629
0.0326663
0.0318121
0.030414
0.0330486
0.0294726
0.033234
0.0333864
0.0316591
0.0340427
0.0339647
0.0339685
0.0301885
0.0322926
0.0326565
0.032711
0.0306341
0.0330497
0.0332217
0.0314972
0.0323734
0.031276
0.033046
0.032084
0.032007
0.029537
0.0331884
0.0328818
0.0334204
0.0315388
0.0322545
0.0326224
0.0321532
0.0316553
0.0326356
0.0332517
0.0320677
0.0294826
0.0296552
0.0318927
0.0292761
0.0301786
0.0328543
0.0327719
0.0332332
0.0294357
0.0319161
0.0336253
0.0305162
0.0296854
0.0323515
0.0307032
0.0334522
0.0311024
0.033853
0.0315292
0.031674
0.0337879
0.0296003
0.0318058
0.0318811
0.0333805
0.0337594
0.0335996
0.0308615
0.0330785
0.0338163
0.0318644
0.0338373
0.0332815
0.0331334
0.033846
0.0323891
0.0343487
0.0339968
0.0342191
0.0329284
0.0319543
0.0325302
0.032225
0.0301757
0.0316463
0.0330701
0.0333901
0.0340794
0.0321266
0.0340427
0.0334242
0.0314098
0.0334689
0.0335558
0.0332746
0.0333552
0.0303337
0.0316872
0.0337183
0.0294542
0.0323617
0.032095
0.0322204
0.0319468
0.0336999
0.0329534
0.0333445
0.0322448
0.0330601
0.0324864
0.0336226
0.0325877
0.0321156
0.0305053
0.0335125
0.030852
0.03181
0.0323178
0.0316935
0.0326024
0.0340004
0.0305192
0.0339749
0.0305435
0.032595
0.0323036
0.0320269
0.0321561
0.0337307
0.0302757
0.03328
0.0335733
0.0339399
0.0327135
0.0329273
0.0293387
0.033834
0.0335013
0.0331364
0.0331767
0.0334448
0.0322897
0.0329592
0.0325532
0.0305343
0.0323153
0.0338267
0.0296352
0.0311316
0.0346204
0.0334826
0.0314475
0.0317631
0.0329132
0.0314758
0.0319475
0.0307247
0.0333253
0.033982
0.0294384
0.0326218
0.0334757
0.0333912
0.0340406
0.0317767
0.0334444
0.0308526
0.0307114
0.0339754
0.0336139
0.0319928
0.0304096
0.0329827
0.0335951
0.0313657
0.0337005
0.0333144
0.0334594
0.0329874
0.0333402
0.0326807
0.0325338
0.0318723
0.0315202
0.0298026
0.032602
0.0325339
0.0304707
0.0335408
0.0297739
0.0317451
0.0320746
0.0305145
0.032124
0.0317017
0.0329794
0.0326829
0.033453
0.0304231
0.0305847
0.0319934
0.030171
0.0315386
0.0334917
0.0320048
0.0336545
0.0327021
0.0323155
0.033823
0.0319276
0.0326823
0.032114
0.0321704
0.032941
0.0311251
0.0325861
0.0333617
0.0336072
0.0340932
0.0304458
0.0299308
0.0322554
0.0335614
0.0306559
0.0318351
0.033144
0.0323254
0.0344426
0.0320793
0.0318101
0.033382
0.030179
0.0335501
0.0340202
0.0306145
0.0314712
0.0321045
0.0318488
0.033958
0.0337837
0.0330922
0.0309459
0.0334714
0.0301356
0.0321166
0.0337555
0.0318492
0.0343255
0.0298388
0.0322935
0.0329844
0.0324396
0.0301279
0.0297964
0.0334013
0.0337843
0.0318806
0.0336426
0.0330127
0.0320639
0.0304303
0.0311906
0.0329546
0.0323019
0.0323407
0.0339807
0.0335117
0.034418
0.0336757
0.0327904
0.0329203
0.0331368
0.0306916
0.0335239
0.0330396
0.0325572
0.0329054
0.0339613
0.032317
0.0336705
0.0321392
0.0294282
0.0340144
0.0317658
0.0338081
0.0318522
0.0333428
0.0307931
0.0330071
0.0345028
0.032432
0.0324478
0.0302954
0.0332521
0.0339026
0.032787
0.0301969
0.0347291
0.0323422
0.0326905
0.0338098
0.0335594
0.0333058
0.0321469
0.0325495
0.0343347
0.0307741
0.0310236
0.030743
0.0313006
0.0327962
0.0299572
0.0339026
0.0335414
0.0342278
0.0320422
0.0321243
0.0325065
0.0337128
0.0325497
0.0328738
0.0337331
0.0340576
0.0326981
0.0333839
0.0323404
0.0320069
0.0330353
0.0318823
0.0341468
0.0340461
0.0338367
0.0340038
0.0337077
0.031534
0.0343827
0.0327241
0.032848
0.0319218
0.0327796
0.0340567
0.0323939
0.0332936
0.0317903
0.0323551
0.0331072
0.0310769
0.0304579
0.0321163
0.0324299
0.0342139
0.0317806
0.0298295
0.0328076
0.0334722
0.0313976
0.031816
0.0324614
0.0339281
0.0338242
0.0317864
0.0316496
0.0323856
0.0335514
0.0319218
0.0326701
0.0325679
0.030152
0.0321458
0.0320136
0.0332383
0.0337159
0.0325666
0.0338959
0.0333148
0.0324193
0.0329187
0.0303142
0.0308154
0.0301676
0.0339619
0.0327309
0.0340991
0.0349805
0.0333266
0.0300372
0.0333243
0.0320753
0.033224
0.0330391
0.0331854
0.0300855
0.0340463
0.0305321
0.0323829
0.03265
0.0324552
0.0343776
0.0323689
0.0333072
0.0304776
0.0322718
0.0327762
0.0337068
0.0312817
0.0313446
0.0329828
0.0335542
0.0329684
0.032958
0.0339867
0.0304511
0.0325163
0.0320854
0.0314421
0.0332937
0.0340994
0.0339556
0.0335022
0.0340363
0.0307915
0.0306774
0.0306843
0.0342585
0.0303987
0.0330938
0.0327163
0.0305093
0.0319005
0.0334189
0.033754
0.0314724
0.0319255
0.0318733
0.0325438
0.0339641
0.0328085
0.030461
0.0324561
0.0341915
0.0338065
0.0343099
0.0338177
0.0347843
0.0339307
0.033572
0.0311368
0.0303077
0.032668
0.0313478
0.0339988
0.0306683
0.0328008
0.032172
0.0337425
0.0310074
0.0332704
0.0334023
0.0330242
0.0321835
0.0306157
0.0335975
0.032001
0.0342279
0.032586
0.0345182
0.033938
0.032585
0.0302917
0.0305588
0.0321071
0.0330261
0.0317737
0.0345026
0.030887
0.0336155
0.0330921
0.0321486
0.0329354
0.033584
0.0338479
0.0337956
0.0341236
0.0328231
0.0328782
0.0301077
0.0315949
0.0337305
0.0310348
0.0330341
0.0321118
0.0305844
0.0322851
0.0322674
0.0321716
0.0331256
0.0335118
0.0308189
0.0320942
0.0326158
0.0305039
0.031648
0.0319637
0.032255
0.0331782
0.0307816
0.0306383
0.0322589
0.0319212
0.0336803
0.0341763
0.0335957
0.0317585
0.0319077
0.0324656
0.0315736
0.0339834
0.0306648
0.0323656
0.0322543
0.0339446
0.0334815
0.0325969
0.0328662
0.0336868
0.0307535
0.0326634
0.0339241
0.031864
0.0285175
0.0322876
0.0306363
0.0327986
0.0299589
0.0341277
0.0341125
0.0339213
0.0327858
0.0308412
0.0302149
0.0335151
0.0341884
0.0340683
0.0325815
0.0329145
0.0330403
0.0342266
0.0336198
0.0300103
0.0327406
0.0326314
0.0329886
0.0320697
0.0333793
0.0296864
0.0339867
0.0335249
0.0326014
0.0326845
0.0331339
0.0324129
0.0339108
0.0331044
0.0308936
0.0322271
0.03334
0.0320638
0.0326517
0.0330619
0.0300418
0.0306466
0.0336864
0.0341436
0.0335513
0.0340118
0.0332222
0.033392
0.0327777
0.0326032
0.0329035
0.0336064
0.0319257
0.0325003
0.0314765
0.0324702
0.0336576
0.0297322
0.0326903
0.0298353
0.0335175
0.0299133
0.0302894
0.0320589
0.0293569
0.0327384
0.0330307
0.0334987
0.0335156
0.0315343
0.0313996
0.0344738
0.0317058
0.0309522
0.0325774
0.0314482
0.0337537
0.0331533
0.0327872
0.0307793
0.0337133
0.0338718
0.03376
0.0303591
0.0313173
0.0324811
0.0337715
0.0343854
0.0303679
0.0302483
0.0336563
0.0329446
0.0340217
0.0322694
0.0296381
0.0331028
0.0336132
0.0303168
0.0298482
0.0336325
0.0307191
0.0306288
0.0336977
0.0341325
0.0330569
0.0345368
0.0320488
0.032211
0.033779
0.0316074
0.0336155
0.0317792
0.0330942
0.0335932
0.0319391
0.0303036
0.0332017
0.0333973
0.0318209
0.0321977
0.0324147
0.0313196
0.0298457
0.0326657
0.0333538
0.033883
0.0317627
0.0332036
0.0301684
0.0332018
0.0341179
0.030142
0.0338629
0.0326348
0.0288675
0.0302289
0.0325946
0.032287
0.0333577
0.0319389
0.0307952
0.0334745
0.0341703
0.0338887
0.0329238
0.0337048
0.0302035
0.0337535
0.0323987
0.0303084
0.030456
0.0288615
0.0302828
0.0331034
0.0321482
0.0328973
0.0325054
0.0308071
0.0311554
0.0295721
0.0296212
0.0345736
0.0342793
0.0308859
0.0339447
0.0336801
0.0308851
0.0321713
0.032762
0.0313607
0.0316363
0.0336233
0.0312597
0.0298155
0.0337654
0.0343342
0.0316682
0.0338273
0.0324995
0.0312079
0.0307001
0.0324209
0.0302929
0.0304959
0.0326747
0.0329083
0.0321186
0.0339729
0.0336986
0.032257
0.034005
0.0247331
0.03243
0.0301008
0.0324335
0.0340454
0.032039
0.031586
0.0321533
0.0304444
0.0329013
0.0322346
0.0314686
0.0305065
0.0293318
0.0293087
0.0318779
0.0302579
0.0323722
0.0302283
0.0321014
0.0335717
0.0330392
0.0323019
0.0327399
0.0331737
0.0323136
0.0332925
0.0300058
0.032417
0.0339211
0.0338279
0.0319553
0.0343864
0.0310038
0.0336711
0.0320813
0.0300785
0.0335505
0.033928
0.0329177
0.0331969
0.0339553
0.0329881
0.0294227
0.029461
0.0319862
0.0340817
0.0328407
0.0332992
0.0318289
0.0320526
0.0310414
0.0300023
0.0299374
0.0301376
0.0330289
0.0327138
0.0338673
0.0316615
0.0319777
0.0342588
0.0302002
0.0324943
0.0339879
0.0339276
0.0312971
0.0317969
0.0334028
0.0341332
0.0338739
0.0281504
0.0328224
0.0334844
0.0329944
0.0325671
0.0345975
0.0336147
0.0338699
0.0326666
0.0315071
0.0324017
0.0340476
0.0331681
0.0323839
0.0302771
0.0335706
0.033584
0.0340092
0.033312
0.0298467
0.0291389
0.032061
0.0332569
0.0326711
0.0326005
0.0332307
0.0332522
0.033323
0.0317564
0.0332197
0.032548
0.0335858
0.0306327
0.0305751
0.0316984
0.0341203
0.0305281
0.0335489
0.0303819
0.0321366
0.032429
0.0341423
0.0322217
0.0333875
0.0339649
0.0336551
0.0327659
0.0335267
0.0325741
0.031892
0.0295549
0.0339826
0.0291118
0.0302564
0.0283198
0.0294837
0.0298933
0.0319322
0.0326234
0.0304688
0.0317902
0.028966
0.0309023
0.0319031
0.0337524
0.0297809
0.0304749
0.0332924
0.0298089
0.0319729
0.0335095
0.0330867
0.0323052
0.0306287
0.0300406
0.0317105
0.0340078
0.0314728
0.0304624
0.0329412
0.0318703
0.0328357
0.0321662
0.0308276
0.0340007
0.029682
0.0304133
0.032479
0.0340247
0.0318755
0.0323048
0.0325595
0.0325012
0.0294587
0.0309299
0.0319045
0.0339264
0.0331079
0.030236
0.0293905
0.0323578
0.0338877
0.0320636
0.0323051
0.0317085
0.0316548
0.0321559
0.0301228
0.0337792
0.0316268
0.0301935
0.0292863
0.0332391
0.0323066
0.0339829
0.0325688
0.0334602
0.03019
0.0323007
0.0295357
0.0293706
0.0338537
0.0307905
0.0323637
0.0324316
0.0324258
0.0302998
0.0338465
0.033401
0.0338669
0.0329528
0.02862
0.0325018
0.0293895
0.0341504
0.0305835
0.0339214
0.0290761
0.0328398
0.0335763
0.0319162
0.0320487
0.0292972
0.0314801
0.0322662
0.0335142
0.0330919
0.0337398
0.0339996
0.0301715
0.0339133
0.0296212
0.0327415
0.0329012
0.0335524
0.0336315
0.0321873
0.0340842
0.0321279
0.0313821
0.0313925
0.032741
0.0339406
0.031118
0.0310114
0.0338076
0.033252
0.0322466
0.0344804
0.0328929
0.0329746
0.0335714
0.0333937
0.0339414
0.031948
0.031599
0.033669
0.0334732
0.0294264
0.0319931
0.0314058
0.0340233
0.0327249
0.033381
0.0304908
0.0303302
0.0325225
0.033264
0.0336039
0.03392
0.0336554
0.0325382
0.0329887
0.0305551
0.0329491
0.0324711
0.0336745
0.0339186
0.0337872
0.0325198
0.0337702
0.0310868
0.0337112
0.0312666
0.0319513
0.0318669
0.0325255
0.0317024
0.0333108
0.0301899
0.0336082
0.0336718
0.0323432
0.0303513
0.0343395
0.033009
0.033669
0.0322783
0.0325018
0.0333897
0.030046
0.0337559
0.0324578
0.0327329
0.0311573
0.0312904
0.0314568
0.030074
0.0316411
0.0340384
0.0326474
0.0294792
0.0332951
0.0299749
0.0327967
0.0327398
0.0295315
0.0298054
0.031571
0.0325705
0.0334217
0.0317599
0.0329235
0.0322695
0.0294582
0.0317231
0.033722
0.0337586
0.0337761
0.0330061
0.0329925
0.0304338
0.0301749
0.0339857
0.0321968
0.0329165
0.0335711
0.0343751
0.0325693
0.0326909
0.0295021
0.0332149
0.0336803
0.0317422
0.0338274
0.0335313
0.0329363
0.0313812
0.0332594
0.0320048
0.0295158
0.0324921
0.0307308
0.03022
0.0328451
0.0325454
0.033854
0.0337749
0.0327598
0.0338816
0.0293025
0.0317784
0.0341969
0.0341657
0.029999
0.0328468
0.0306147
0.0314085
0.0336462
0.0318394
0.0329027
0.0342772
0.0330519
0.0294194
0.0334905
0.0301801
0.0334832
0.0329897
0.0326997
0.0334825
0.0326961
0.0335206
0.030275
0.0337277
0.0337656
0.0307162
0.0329269
0.032242
0.0322063
0.0335466
0.0323622
0.0333871
0.0340418
0.0337559
0.0324506
0.0339285
0.0323951
0.0329761
0.0312288
0.0313287
0.0301582
0.0294873
0.0327712
0.0330191
0.0322821
0.033886
0.0317108
0.0338267
0.0296521
0.0341398
0.0340125
0.0331093
0.0336654
0.0310664
0.0296646
0.0322326
0.0302291
0.0333109
0.0325435
0.0295895
0.0319361
0.0340904
0.0335376
0.0297511
0.031244
0.0294138
0.0342703
0.0301638
0.0335397
0.0309967
0.0305374
0.0338362
0.0339071
0.0337843
0.0331578
0.0301076
0.0328523
0.0341467
0.0307065
0.0337914
0.0332174
0.0340749
0.0295933
0.0330904
0.0318152
0.0331055
0.0320477
0.0319169
0.0317579
0.0319094
0.0322451
0.0320534
0.0330541
0.0321108
0.0339995
0.0309882
0.0321594
0.0326328
0.0333737
0.0340903
0.0305266
0.0331637
0.0303123
0.0317818
0.0337469
0.0340002
0.0325125
0.0327382
0.0332773
0.0316395
0.0320738
0.0322635
0.0301722
0.0298758
0.0328343
0.0335457
0.0317164
0.0319582
0.0336142
0.0303938
0.0327529
0.0305281
0.032931
0.0339048
0.032495
0.0299684
0.0335883
0.0301051
0.0330204
0.0338672
0.0295713
0.0342519
0.0307623
0.031772
0.0321105
0.0298979
0.0314607
0.0315199
0.0293419
0.0338172
0.0341087
0.0291114
0.0316465
0.0330705
0.0329954
0.0328282
0.0342687
0.0337404
0.031957
0.0312372
0.0298938
0.0293195
0.0283834
0.0339736
0.0332949
0.0328952
0.0329947
0.0300263
0.0301359
0.0319944
0.0337575
0.0292594
0.0328588
0.0321845
0.0323717
0.0329193
0.0313766
0.033388
0.0315207
0.0323776
0.034282
0.0287106
0.0323171
0.033576
0.0335584
0.0328765
0.033486
0.0328097
0.0300578
0.0342463
0.0347385
0.0322203
0.032505
0.0311647
0.0321565
0.033148
0.0335656
0.0325205
0.032204
0.0317544
0.0297592
0.0319366
0.033975
0.0330636
0.034266
0.0327713
0.0326259
0.0341983
0.0305277
0.0335067
0.0300642
0.034142
0.0331237
0.0317358
0.034477
0.0315871
0.0322975
0.0342132
0.03193
0.0340873
0.0331655
0.0332798
0.0302925
0.0324417
0.0321156
0.0312778
0.0334011
0.0316072
0.0318341
0.0341688
0.0303838
0.0337024
0.0324458
0.0337759
0.0318794
0.0328301
0.0303963
0.0309424
0.0343102
0.0303563
0.0323494
0.0335424
0.0301805
0.0323202
0.0335515
0.0315791
0.030548
0.0313473
0.0321317
0.0316774
0.0335141
0.0322621
0.0338962
0.0328312
0.0337254
0.0296427
0.030995
0.0340035
0.0320444
0.0300969
0.0306497
0.0324192
0.0278157
0.0297823
0.0322437
0.0320821
0.0338925
0.0314713
0.0334788
0.0338265
0.0339284
0.0334052
0.0337154
0.0316182
0.0313316
0.0332115
0.032007
0.0314921
0.0337699
0.0321525
0.0297555
0.029824
0.032043
0.0281986
0.0332526
0.033413
0.0313387
0.0332471
0.0334424
0.0332784
0.0344307
0.0321286
0.0304108
0.0316534
0.0320339
0.0334917
0.0313646
0.0328805
0.0340479
0.0320256
0.0317569
0.0326257
0.0339963
0.033366
0.0348936
0.0339117
0.0325872
0.0329156
0.0308918
0.0320243
0.0338822
0.031127
0.0338639
0.0314498
0.0333335
0.0294591
0.0333019
0.0322761
0.0334876
0.0318889
0.0329205
0.0322346
0.0333155
0.029389
0.0310466
0.0321891
0.0317678
0.0324475
0.0325959
0.0324669
0.0338575
0.0329154
0.0300484
0.0315148
0.0302038
0.0325752
0.0324838
0.0304997
0.0346262
0.0324042
0.0322662
0.0334009
0.0311383
0.0306332
0.0337873
0.0304655
0.029653
0.0296176
0.0298237
0.0301375
0.0314842
0.033844
0.0334416
0.0320869
0.0327156
0.033349
0.0321542
0.0332075
0.0297275
0.0336324
0.0253106
0.0334311
0.0300173
0.0300094
0.0334615
0.0298752
0.0323896
0.0330938
0.033504
0.0314297
0.0325532
0.0317911
0.0321417
0.0309041
0.0330983
0.0325738
0.0334341
0.032413
0.030326
0.0330182
0.0319475
0.0321133
0.0298682
0.0308699
0.0308479
0.0296266
0.0298545
0.0322795
0.0320363
0.0306541
0.0318671
0.0338306
0.0336477
0.0340138
0.0252364
0.0300226
0.0338352
0.0302676
0.0335037
0.029693
0.0337295
0.0335711
0.0336511
0.0302076
0.0323273
0.0340282
0.0339666
0.0329659
0.0338244
0.0322693
0.0327589
0.0320655
0.0299555
0.0328003
0.0316694
0.032247
0.0323057
0.0307063
0.0320418
0.033569
0.0313226
0.0311281
0.0301291
0.0329968
0.0330345
0.0295541
0.0323071
0.0322761
0.0331887
0.030484
0.0326282
0.0323926
0.0344396
0.0271945
0.0325204
0.0321286
0.0298782
0.0335388
0.0308373
0.0307775
0.032932
0.0338183
0.0295561
0.0335873
0.0328153
0.0304851
0.0297938
0.0338171
0.0337862
0.0298638
0.0323532
0.0296026
0.0309741
0.0338977
0.0318415
0.0330691
0.0335983
0.0338328
0.0316525
0.0316407
0.0318425
0.0324116
0.0326244
0.0314657
0.0333382
0.0300985
0.0310689
0.0324682
0.0322073
0.0329814
0.0318456
0.0330719
0.0333112
0.0323357
0.033748
0.0330275
0.0319478
0.0312985
0.0330903
0.0317584
0.0312227
0.0328754
0.033929
0.0331707
0.0328843
0.0307493
0.03304
0.0313926
0.0301426
0.0319648
0.0327053
0.0302073
0.0329792
0.0314876
0.0289104
0.0296581
0.0332445
0.0284042
0.0320316
0.0334761
0.0328298
0.0303102
0.0330334
0.0346483
0.030226
0.0299801
0.0305755
0.0335096
0.0322621
0.0321178
0.033802
0.029926
0.0332294
0.0322532
0.0339232
0.0341711
0.0256136
0.0323436
0.0333589
0.0336312
0.0324358
0.0318082
0.0278199
0.0329132
0.0337548
0.0313949
0.0297878
0.0321552
0.0333534
0.0327366
0.0298953
0.0325632
0.0332299
0.0336146
0.0320029
0.0325083
0.0295544
0.0301587
0.0300869
0.0324495
0.0318723
0.0327366
0.0339365
0.0336309
0.0287935
0.0335003
0.0336522
0.0329073
0.0317561
0.0334453
0.0315071
0.0304522
0.031612
0.0325717
0.0315227
0.0299059
0.0329059
0.0320049
0.0334099
0.0307595
0.0291276
0.0315814
0.0337587
0.0332735
0.0314569
0.0319478
0.033575
0.0336415
0.0315651
0.0316914
0.0333194
0.0338456
0.033122
0.0339139
0.0331376
0.0327392
0.0296654
0.0320669
0.030278
0.0332982
0.033283
0.0315333
0.0301336
0.0341088
0.0299536
0.0317902
0.0305802
0.0322423
0.0292114
0.032738
0.0322221
0.0322428
0.0323332
0.0309903
0.0337406
0.0304247
0.033118
0.0321545
0.03211
0.0295888
0.0333274
0.0327635
0.030164
0.0311381
0.0322549
0.0321515
0.0329115
0.0270497
0.0328119
0.0318333
0.0323166
0.0312917
0.0314732
0.0313936
0.0272787
0.033678
0.0321271
0.0212691
0.0302467
0.0328419
0.0336008
0.0331398
0.0306809
0.0278276
0.0333385
0.0301895
0.0332574
0.033845
0.0327435
0.0307486
0.0334729
0.0297987
0.0294022
0.0294301
0.0329209
0.0320604
0.0317187
0.0339186
0.0331073
0.03272
0.0309288
0.0290842
0.0341143
0.0324547
0.0342517
0.0333324
0.030308
0.0319664
0.0327471
0.0305507
0.0322864
0.031549
0.0323296
0.0350692
0.0325583
0.0320223
0.0300134
0.0326234
0.0318642
0.0331702
0.0319109
0.0297978
0.0305808
0.032749
0.0331604
0.0307702
0.0332501
0.0311709
0.0328772
0.0312778
0.0312138
0.0276298
0.0338279
0.0332761
0.0327346
0.0338943
0.0319676
0.030779
0.0298007
0.0278172
0.0328213
0.0301462
0.0322408
0.0318358
0.0336183
0.0321012
0.0334127
0.0315407
0.0220896
0.0303532
0.0334725
0.0232928
0.0323057
0.0341151
0.0329919
0.0338531
0.0303446
0.0304887
0.0308926
0.0339698
0.0273714
0.0340917
0.0303016
0.0285579
0.0332619
0.0305541
0.0335407
0.0225094
0.0292267
0.0328291
0.0334561
0.0338565
0.032872
0.0335615
0.0328192
0.0327289
0.0333038
0.0331
0.0319532
0.0317661
0.0276113
0.03343
0.0317081
0.0315155
0.0339044
0.033902
0.0331606
0.0302701
0.0336542
0.0329435
0.0317751
0.0306958
0.0296761
0.0330659
0.0338586
0.0333748
0.0336268
0.0328665
0.032444
0.0298401
0.0333275
0.0322522
0.032408
0.0322125
0.0297464
0.0284238
0.0316185
0.034497
0.0329104
0.0326836
0.0305648
0.0314826
0.031365
0.0302121
0.0336298
0.0319964
0.0256343
0.0269021
0.0291694
0.0304271
0.0333055
0.0324431
0.032812
0.0313798
0.0290136
0.032909
0.0334893
0.0291583
0.0343184
0.0299699
0.0338441
0.0312982
0.0333512
0.0335551
0.0323969
0.0330348
0.0319424
0.0308951
0.0307204
0.0314143
0.0330412
0.0324423
0.0306739
0.0314382
0.0326408
0.029792
0.0322371
0.0307492
0.0335197
0.0315165
0.032117
0.026492
0.0335322
0.0340063
0.0323185
0.0330614
0.0315685
0.0320121
0.0335411
0.0327499
0.032681
0.0340068
0.0324331
0.030069
0.0297833
0.0345766
0.0302679
0.030038
0.0297683
0.0332495
0.033938
0.0327047
0.0339048
0.0345962
0.033894
0.0328603
0.0317223
0.0304228
0.0328424
0.0288807
0.0325689
0.0326804
0.0317705
0.0315112
0.0307859
0.0324022
0.034055
0.0292691
0.0315894
0.032615
0.0295406
0.0335712
0.0283838
0.0291313
0.0300979
0.0337968
0.0304364
0.0299775
0.030694
0.0297443
0.0324346
0.027487
0.0280293
0.0322278
0.0305061
0.0291466
0.0321106
0.0303075
0.0310866
0.0325741
0.0310124
0.0298904
0.0329227
0.031065
0.0314205
0.0299113
0.0317516
0.031609
0.0282166
0.0337655
0.032231
0.0329192
0.0315752
0.0303034
0.0298596
0.0320747
0.0318999
0.0337652
0.0324085
0.033357
0.0311347
0.0322713
0.0334684
0.033595
0.0275362
0.0282083
0.0298711
0.0333986
0.0299186
0.0322303
0.0260747
0.0311416
0.0325364
0.0316279
0.0323015
0.0307932
0.0317691
0.0317945
0.033791
0.0304072
0.031929
0.0342529
0.0297
0.0321152
0.0303615
0.0330399
0.0306563
0.0298995
0.0323871
0.0300432
0.0272904
0.0285203
0.0299537
0.0311949
0.028127
0.0338466
0.0310436
0.0292864
0.0319381
0.0333815
0.0320673
0.0285545
0.0341382
0.0327488
0.029827
0.0318623
0.0319868
0.0305288
0.0320109
0.0322055
0.032244
0.0297748
0.0292484
0.0319698
0.0304572
0.028221
0.0290517
0.029609
0.0326091
0.0296442
0.0331871
0.0318887
0.0324037
0.0307823
0.0335375
0.0302233
0.0323369
0.0309266
0.0224112
0.0337928
0.0284467
0.0323603
0.0334683
0.0336669
0.0274346
0.0334198
0.0337542
0.03019
0.0325003
0.0318736
0.0308374
0.0273538
0.0322512
0.0308652
0.0332793
0.0341871
0.0313519
0.0338768
0.0305848
0.0307636
0.0293669
0.027682
0.0283093
0.0337612
0.0280683
0.0332736
0.0308678
0.0289014
0.0313575
0.0336637
0.0282112
0.023784
0.0305152
0.0327654
0.0335727
0.0324812
0.0218926
0.0311259
0.0333413
0.0326324
0.0340962
0.0316327
0.0284498
0.0337324
0.028428
0.0327815
0.0312922
0.0312451
0.0311709
0.0330082
0.0300305
0.0301783
0.0279403
0.0305417
0.0330596
0.0323869
0.0321588
0.0295079
0.0302544
0.0312632
0.0300887
0.0326062
0.0291913
0.0297273
0.0324628
0.0334977
0.0292886
0.0333101
0.0308026
0.0343873
0.0288116
0.0337067
0.0318315
0.0324931
0.0323527
0.0309419
0.030229
0.0343986
0.0321109
0.0320937
0.0320049
0.0297407
0.0330382
0.033806
0.0295093
0.0300757
0.031092
0.0286268
0.0308243
0.0325985
0.0271127
0.0338577
0.0275715
0.0313153
0.032481
0.0284156
0.031136
0.0319415
0.0299768
0.0319249
0.0302629
0.0320713
0.0287883
0.0327044
0.0289122
0.0312979
0.0252369
0.0321456
0.0288535
0.0296807
0.0326276
0.0297165
0.0306558
0.0341106
0.0323921
0.0325342
0.033517
0.0279473
0.0323515
0.0303593
0.0321259
0.0320849
0.0314126
0.0334524
0.0324062
0.0294988
0.0293322
0.0332041
0.0321225
0.0323553
0.0277484
0.033535
0.0344513
0.0330221
0.0322697
0.030103
0.0301917
0.0314952
0.0293711
0.0295978
0.0328708
0.0317834
0.0310195
0.0315706
0.0314674
0.0318909
0.0287047
0.0304357
0.0297484
0.0274593
0.0339121
0.0318412
0.0304352
0.0333923
0.0319437
0.0308548
0.0329567
0.0280389
0.029958
0.0285092
0.0291582
0.0339372
0.0327196
0.0265387
0.0334414
0.028542
0.0319256
0.0321367
0.0318328
0.0334438
0.0312531
0.0322783
0.0314092
0.0312236
0.0310296
0.0331657
0.0285901
0.0292026
0.0310714
0.0275431
0.0309538
0.0282673
0.030055
0.0336681
0.0318171
0.0262567
0.0266056
0.02959
0.0289413
0.0309277
0.0299029
0.0313198
0.0325033
0.0272645
0.0322261
0.0312345
0.0309272
0.028548
0.0317706
0.0281292
0.0260143
0.0298017
0.0296276
0.0294527
0.0305388
0.030675
0.0312985
0.0292265
0.0333167
0.0293583
0.0317366
0.0299133
0.0318632
0.0306331
0.0289689
0.032417
0.0315368
0.0274636
0.0299923
0.0310881
0.0341822
0.033403