/*--------------------------------*- C++ -*----------------------------------*\
| =========                 |                                                 |
| \\      /  F ield         | OpenFOAM: The Open Source CFD Toolbox           |
|  \\    /   O peration     | Version:  2212                                  |
|   \\  /    A nd           | Website:  www.openfoam.com                      |
|    \\/     M anipulation  |                                                 |
\*---------------------------------------------------------------------------*/
FoamFile
{
    version     2.0;
    format      ascii;
    arch        "LSB;label=32;scalar=64";
    class       volScalarField;
    location    "0.024";
    object      nut;
}
// * * * * * * * * * * * * * * * * * * * * * * * * * * * * * * * * * * * * * //

dimensions      [0 2 -1 0 0 0 0];

internalField   nonuniform List<scalar> 
31639
(
6.56947e-05
6.31949e-05
6.4833e-05
6.9145e-05
6.36896e-05
6.19585e-05
6.16521e-05
6.63866e-05
6.55776e-05
6.75264e-05
6.73512e-05
6.69575e-05
6.42907e-05
6.8614e-05
6.20561e-05
6.01742e-05
6.60417e-05
6.24368e-05
5.99976e-05
6.35119e-05
5.33179e-05
6.7666e-05
6.86269e-05
6.03889e-05
5.9474e-05
6.4941e-05
6.36753e-05
5.68284e-05
6.20358e-05
6.8663e-05
6.7609e-05
6.14896e-05
6.83029e-05
5.96703e-05
5.54858e-05
6.84163e-05
5.14357e-05
6.9511e-05
6.7879e-05
4.98312e-05
5.59858e-05
5.49339e-05
6.71394e-05
6.77471e-05
6.80816e-05
6.76712e-05
6.18219e-05
6.25032e-05
6.59139e-05
6.88243e-05
6.72335e-05
5.09458e-05
6.92332e-05
5.26394e-05
6.142e-05
6.52602e-05
5.39952e-05
6.38875e-05
6.32703e-05
5.36409e-05
6.43178e-05
6.68789e-05
5.8754e-05
6.28339e-05
6.53964e-05
6.88189e-05
6.4464e-05
6.39765e-05
5.70813e-05
6.86228e-05
6.86951e-05
5.93604e-05
6.65302e-05
6.36275e-05
6.90158e-05
5.51372e-05
6.77093e-05
6.27745e-05
6.25485e-05
6.73301e-05
5.92728e-05
4.96264e-05
6.8205e-05
6.50089e-05
6.548e-05
6.74482e-05
6.88069e-05
6.80655e-05
5.61295e-05
6.94729e-05
6.44753e-05
6.3875e-05
5.46706e-05
6.28424e-05
5.79988e-05
6.19923e-05
6.33466e-05
6.36976e-05
6.43296e-05
5.41144e-05
6.9315e-05
6.73237e-05
6.25692e-05
5.30104e-05
5.43073e-05
6.78466e-05
5.26961e-05
5.19485e-05
5.82125e-05
5.28063e-05
6.60147e-05
5.47013e-05
6.2596e-05
6.10637e-05
6.3964e-05
5.27086e-05
6.22624e-05
6.22198e-05
6.78571e-05
6.30452e-05
6.65819e-05
6.69887e-05
6.64063e-05
6.53289e-05
6.40919e-05
6.84453e-05
6.34608e-05
5.89517e-05
5.80153e-05
6.69195e-05
6.74838e-05
6.67052e-05
6.70123e-05
6.16064e-05
6.66115e-05
6.40523e-05
5.39305e-05
5.27174e-05
6.67716e-05
6.37054e-05
6.35188e-05
6.76629e-05
6.76286e-05
5.22203e-05
5.11369e-05
6.88569e-05
6.74469e-05
5.47173e-05
5.41972e-05
6.7692e-05
5.80494e-05
6.40406e-05
6.00641e-05
6.65046e-05
5.53518e-05
6.87987e-05
6.37485e-05
5.72293e-05
5.59947e-05
6.02219e-05
6.77095e-05
5.58005e-05
5.78649e-05
5.33859e-05
5.50527e-05
6.23664e-05
5.51562e-05
6.86217e-05
6.68476e-05
5.26538e-05
5.90367e-05
6.14067e-05
5.56076e-05
6.43245e-05
6.92642e-05
6.7532e-05
6.45017e-05
6.88813e-05
6.4641e-05
6.38785e-05
6.26529e-05
6.23902e-05
6.12182e-05
5.08935e-05
6.51496e-05
6.91919e-05
6.15849e-05
6.84765e-05
5.48628e-05
5.33521e-05
6.98298e-05
6.70727e-05
6.56687e-05
6.29865e-05
6.35932e-05
6.15392e-05
6.14928e-05
6.6665e-05
5.32386e-05
6.17711e-05
6.8153e-05
6.91108e-05
6.54088e-05
6.57088e-05
6.42758e-05
6.35292e-05
6.22106e-05
6.20112e-05
6.70416e-05
5.09655e-05
6.29539e-05
6.20641e-05
6.4999e-05
6.73578e-05
6.59568e-05
6.8104e-05
5.61245e-05
5.99919e-05
6.71701e-05
6.78495e-05
6.61655e-05
6.24476e-05
5.31391e-05
6.35686e-05
5.3251e-05
6.36431e-05
6.70238e-05
5.95739e-05
5.51032e-05
6.64245e-05
6.5373e-05
6.94837e-05
5.61997e-05
5.37083e-05
6.57911e-05
6.62886e-05
5.43681e-05
6.78114e-05
5.8329e-05
5.25948e-05
6.24594e-05
6.53358e-05
6.30493e-05
6.01582e-05
5.87847e-05
6.61364e-05
6.20103e-05
6.12326e-05
5.48735e-05
6.3094e-05
6.12874e-05
5.56563e-05
6.01307e-05
6.88977e-05
6.80666e-05
6.12874e-05
5.59418e-05
6.64527e-05
6.58715e-05
6.28119e-05
6.9003e-05
6.76088e-05
6.60903e-05
6.7927e-05
6.225e-05
6.33725e-05
5.26122e-05
5.96625e-05
6.72662e-05
6.15657e-05
6.61162e-05
6.0854e-05
6.41841e-05
6.84851e-05
6.89038e-05
6.40264e-05
5.40646e-05
6.23585e-05
5.78706e-05
6.7468e-05
6.28889e-05
6.78031e-05
6.90536e-05
6.10334e-05
5.50867e-05
5.77422e-05
5.56742e-05
5.3221e-05
6.70661e-05
5.66032e-05
6.85817e-05
6.23773e-05
6.03932e-05
5.64527e-05
6.93838e-05
6.12207e-05
5.96888e-05
6.77435e-05
6.39433e-05
5.80207e-05
6.30615e-05
5.61797e-05
6.34443e-05
6.23454e-05
5.54258e-05
6.21737e-05
6.20732e-05
4.9457e-05
5.20367e-05
6.70622e-05
6.86155e-05
6.66483e-05
5.34772e-05
5.60659e-05
6.65039e-05
5.69809e-05
5.77126e-05
6.84117e-05
6.84515e-05
6.16491e-05
6.77384e-05
6.88294e-05
5.53699e-05
6.92701e-05
5.22346e-05
5.30997e-05
6.73779e-05
6.66885e-05
6.72634e-05
6.86775e-05
6.63507e-05
5.63144e-05
6.26101e-05
6.24705e-05
6.772e-05
6.89464e-05
6.93382e-05
6.24246e-05
6.0924e-05
6.505e-05
6.66947e-05
6.55711e-05
6.07646e-05
6.32835e-05
6.20362e-05
6.28756e-05
6.69099e-05
6.15083e-05
5.51441e-05
6.59752e-05
7.00678e-05
6.16187e-05
6.86659e-05
6.78427e-05
6.29729e-05
5.55383e-05
6.26655e-05
6.28011e-05
5.32324e-05
6.84629e-05
5.60301e-05
6.46763e-05
6.77378e-05
5.20566e-05
6.33618e-05
6.27968e-05
5.39214e-05
6.44559e-05
5.60253e-05
6.30161e-05
6.89985e-05
6.60432e-05
5.20083e-05
6.53202e-05
5.59991e-05
6.5383e-05
6.74169e-05
6.80635e-05
6.76988e-05
5.61457e-05
6.60937e-05
5.33057e-05
6.19632e-05
5.27153e-05
6.83063e-05
6.69194e-05
6.78909e-05
6.73762e-05
5.87781e-05
6.86667e-05
6.32374e-05
6.51366e-05
6.26432e-05
5.67636e-05
6.34337e-05
6.59191e-05
6.50298e-05
6.62101e-05
6.48931e-05
6.63685e-05
6.27692e-05
5.49144e-05
6.34887e-05
6.70543e-05
6.62186e-05
5.21356e-05
6.79564e-05
6.71221e-05
6.29197e-05
6.51543e-05
6.58465e-05
6.41013e-05
6.81738e-05
5.41998e-05
6.54295e-05
6.79806e-05
5.2222e-05
6.43617e-05
6.50723e-05
5.61634e-05
5.35961e-05
5.41951e-05
6.12954e-05
5.38467e-05
6.31293e-05
6.32093e-05
6.07167e-05
6.87616e-05
5.50359e-05
6.69447e-05
6.84647e-05
6.32171e-05
6.63424e-05
6.20142e-05
6.76861e-05
6.33111e-05
6.38953e-05
6.89034e-05
6.32557e-05
5.40701e-05
6.34472e-05
6.86603e-05
6.75317e-05
6.6198e-05
6.90245e-05
6.15173e-05
6.54397e-05
6.66092e-05
6.89503e-05
6.90245e-05
5.54977e-05
6.2623e-05
5.05123e-05
6.25626e-05
6.22954e-05
5.51069e-05
5.31035e-05
6.17123e-05
6.61494e-05
6.71439e-05
5.41212e-05
6.60156e-05
6.02115e-05
6.28563e-05
6.66001e-05
5.03575e-05
6.23141e-05
5.28529e-05
6.15963e-05
6.74069e-05
6.97742e-05
6.62346e-05
6.31945e-05
5.23346e-05
6.6114e-05
6.35098e-05
6.67016e-05
5.34691e-05
5.48616e-05
6.27632e-05
5.46593e-05
5.58875e-05
6.53243e-05
5.34297e-05
6.1431e-05
5.43722e-05
6.60381e-05
5.48138e-05
6.87008e-05
6.70852e-05
6.72979e-05
6.7975e-05
5.83539e-05
6.74304e-05
6.80871e-05
6.47422e-05
6.69869e-05
6.38555e-05
6.71037e-05
6.96839e-05
6.08922e-05
6.79798e-05
6.88581e-05
6.29426e-05
5.85642e-05
6.88897e-05
6.35942e-05
5.11798e-05
5.2375e-05
6.36619e-05
6.791e-05
6.85217e-05
6.21041e-05
6.93214e-05
6.97904e-05
6.64488e-05
6.42308e-05
6.23303e-05
6.38768e-05
5.6368e-05
6.25395e-05
6.54111e-05
6.88234e-05
5.78077e-05
5.7551e-05
5.68382e-05
6.04241e-05
6.2789e-05
5.10781e-05
6.62843e-05
6.01723e-05
6.56573e-05
6.32191e-05
6.68123e-05
6.34429e-05
5.52201e-05
6.48391e-05
6.8082e-05
5.72561e-05
6.69524e-05
6.95466e-05
6.35906e-05
6.23682e-05
5.73551e-05
5.73733e-05
6.30521e-05
6.37454e-05
5.56612e-05
5.50767e-05
6.38557e-05
5.92163e-05
6.60655e-05
5.84207e-05
6.26029e-05
6.762e-05
6.3259e-05
5.36272e-05
5.93373e-05
6.37996e-05
6.81918e-05
5.41948e-05
5.04949e-05
6.73607e-05
5.37084e-05
6.45882e-05
6.93591e-05
5.41689e-05
6.35918e-05
6.83269e-05
6.37324e-05
5.35953e-05
6.77065e-05
6.33999e-05
5.42967e-05
6.73442e-05
6.44235e-05
6.17542e-05
6.72079e-05
5.19434e-05
5.99956e-05
6.30502e-05
6.19129e-05
5.93404e-05
6.42214e-05
6.84868e-05
6.81249e-05
6.64823e-05
6.85382e-05
6.73802e-05
6.62922e-05
5.93186e-05
6.60147e-05
6.8481e-05
7.10133e-05
5.75358e-05
6.38612e-05
6.46039e-05
7.06765e-05
5.57006e-05
5.17722e-05
6.85773e-05
5.77733e-05
6.93347e-05
6.1292e-05
5.50518e-05
6.35987e-05
6.7594e-05
6.34476e-05
6.57418e-05
5.31054e-05
6.69512e-05
6.44966e-05
5.24844e-05
6.84766e-05
6.68582e-05
5.52893e-05
5.55176e-05
5.61918e-05
6.21518e-05
6.38837e-05
6.37388e-05
6.27843e-05
6.36609e-05
6.70476e-05
6.37464e-05
6.32011e-05
5.57564e-05
6.87902e-05
5.32766e-05
6.34521e-05
6.28213e-05
6.14299e-05
6.98128e-05
6.34672e-05
5.78217e-05
5.28117e-05
5.52405e-05
6.26801e-05
6.80712e-05
5.63156e-05
6.8864e-05
6.29498e-05
6.6972e-05
5.49319e-05
6.15366e-05
6.65377e-05
6.89697e-05
6.76191e-05
6.64945e-05
6.40831e-05
6.30789e-05
6.90692e-05
6.88731e-05
6.8027e-05
5.82177e-05
6.75397e-05
5.53453e-05
6.83148e-05
6.72578e-05
6.24481e-05
5.6218e-05
6.15179e-05
5.07889e-05
6.78186e-05
6.39919e-05
6.93963e-05
6.32422e-05
6.08157e-05
5.49594e-05
6.80231e-05
5.3274e-05
5.06722e-05
5.63737e-05
5.81361e-05
5.55914e-05
6.30703e-05
5.3954e-05
6.57349e-05
6.53709e-05
5.05313e-05
6.89218e-05
5.5307e-05
5.94212e-05
6.15964e-05
6.07817e-05
6.6539e-05
6.82344e-05
6.92089e-05
6.82792e-05
6.21293e-05
6.3636e-05
6.15453e-05
6.19554e-05
5.26029e-05
4.33556e-05
6.83489e-05
6.25689e-05
6.65207e-05
6.73036e-05
5.42858e-05
6.78394e-05
6.89675e-05
6.64589e-05
6.68847e-05
6.65423e-05
6.46703e-05
6.84006e-05
6.91042e-05
6.37533e-05
6.7482e-05
6.73671e-05
5.6222e-05
6.75683e-05
6.11128e-05
6.70383e-05
6.1096e-05
6.30361e-05
5.94178e-05
6.95107e-05
6.18556e-05
6.3833e-05
6.30061e-05
5.54965e-05
6.8725e-05
6.45314e-05
6.08766e-05
5.47386e-05
6.62486e-05
5.22364e-05
6.7433e-05
6.64548e-05
6.12652e-05
6.8857e-05
6.92433e-05
6.86165e-05
5.41824e-05
6.3226e-05
6.31321e-05
6.38003e-05
5.60495e-05
6.62848e-05
6.7192e-05
6.06664e-05
6.33711e-05
6.02683e-05
6.58683e-05
6.15256e-05
6.25811e-05
5.21283e-05
6.67987e-05
6.51798e-05
6.79392e-05
5.88098e-05
6.33514e-05
6.46149e-05
6.28812e-05
6.00794e-05
6.42672e-05
6.68844e-05
6.23188e-05
5.21431e-05
5.2425e-05
6.22499e-05
5.15969e-05
5.56202e-05
6.46679e-05
6.46037e-05
6.70987e-05
5.1932e-05
6.23949e-05
6.83136e-05
5.61048e-05
5.31223e-05
6.42645e-05
5.62524e-05
6.61335e-05
5.72965e-05
6.85388e-05
5.94336e-05
6.06281e-05
6.86307e-05
5.25408e-05
6.1769e-05
6.19204e-05
6.71426e-05
6.81316e-05
6.81003e-05
5.63646e-05
6.63467e-05
6.81997e-05
6.10602e-05
6.87641e-05
6.67397e-05
6.6084e-05
6.84093e-05
6.37451e-05
6.99534e-05
6.91212e-05
6.95776e-05
6.57489e-05
6.13405e-05
6.40078e-05
6.32409e-05
5.41903e-05
6.18177e-05
6.54084e-05
6.74672e-05
6.89333e-05
6.22146e-05
6.93131e-05
6.69627e-05
6.07526e-05
6.69552e-05
6.76318e-05
6.63974e-05
6.6624e-05
5.50715e-05
6.14041e-05
6.82082e-05
5.15581e-05
6.29522e-05
6.25451e-05
6.26285e-05
6.21916e-05
6.85709e-05
6.62679e-05
6.72949e-05
6.33601e-05
6.60789e-05
6.42616e-05
6.75977e-05
6.41706e-05
6.19732e-05
5.54562e-05
6.76657e-05
5.59697e-05
6.1508e-05
6.30127e-05
6.11581e-05
6.44716e-05
6.89829e-05
5.51474e-05
6.90568e-05
5.55142e-05
6.41722e-05
6.20036e-05
6.24231e-05
6.28792e-05
6.85854e-05
5.46207e-05
6.67147e-05
6.75603e-05
6.83174e-05
6.41812e-05
6.50215e-05
5.12079e-05
6.8513e-05
6.73055e-05
6.63632e-05
6.66635e-05
6.74211e-05
6.33582e-05
6.43032e-05
6.4006e-05
5.62257e-05
6.28809e-05
6.86456e-05
5.29907e-05
5.75082e-05
7.07721e-05
6.73773e-05
5.96571e-05
6.13747e-05
6.44385e-05
6.00111e-05
6.23551e-05
5.70701e-05
6.6789e-05
6.86898e-05
5.14533e-05
6.42259e-05
6.79354e-05
6.6797e-05
6.84715e-05
6.17277e-05
6.74145e-05
5.65362e-05
5.59827e-05
6.89496e-05
6.75932e-05
6.28451e-05
5.59045e-05
6.64161e-05
6.76439e-05
5.82006e-05
6.79244e-05
6.75035e-05
6.77593e-05
6.56208e-05
6.76334e-05
6.41027e-05
6.44738e-05
6.23424e-05
6.05113e-05
5.35866e-05
6.45195e-05
6.40196e-05
5.60701e-05
6.79921e-05
5.27499e-05
6.14694e-05
6.27627e-05
5.5407e-05
6.25045e-05
6.08761e-05
6.62122e-05
6.42995e-05
6.72132e-05
5.45864e-05
5.52611e-05
6.19057e-05
5.46392e-05
6.09024e-05
6.76213e-05
6.23164e-05
6.79479e-05
6.36707e-05
6.3239e-05
6.80331e-05
6.12471e-05
6.39373e-05
6.28686e-05
6.26611e-05
6.54253e-05
5.69167e-05
6.39169e-05
6.67871e-05
6.83125e-05
6.95767e-05
5.45077e-05
5.4105e-05
6.30025e-05
6.7963e-05
5.67496e-05
6.17943e-05
6.51623e-05
6.3253e-05
7.03506e-05
6.27027e-05
6.19111e-05
6.65037e-05
5.43721e-05
6.78171e-05
6.84112e-05
5.5796e-05
5.97157e-05
6.26223e-05
6.09876e-05
6.89066e-05
6.80813e-05
6.53607e-05
5.65708e-05
6.73737e-05
5.43808e-05
6.20906e-05
6.75348e-05
6.01441e-05
6.98323e-05
5.30683e-05
6.30927e-05
6.5317e-05
6.36536e-05
5.34333e-05
5.32659e-05
6.78584e-05
6.83714e-05
6.15342e-05
6.84722e-05
6.52021e-05
6.27772e-05
5.49683e-05
5.74725e-05
6.48159e-05
6.33417e-05
6.31922e-05
6.90609e-05
6.7742e-05
7.00157e-05
6.84022e-05
6.50049e-05
6.50563e-05
6.65863e-05
5.52843e-05
6.72363e-05
6.60075e-05
6.41212e-05
6.47669e-05
6.84908e-05
6.25449e-05
6.84971e-05
6.24908e-05
5.15842e-05
6.93018e-05
6.01132e-05
6.84891e-05
6.13168e-05
6.72833e-05
5.59328e-05
6.61147e-05
7.06099e-05
6.31649e-05
6.36874e-05
5.4192e-05
6.69675e-05
6.88284e-05
6.52473e-05
5.46136e-05
7.13241e-05
6.35997e-05
6.53579e-05
6.84302e-05
6.74232e-05
6.68753e-05
6.26969e-05
6.31567e-05
6.98636e-05
5.57697e-05
5.64861e-05
5.57477e-05
5.83783e-05
6.47618e-05
5.33092e-05
6.88848e-05
6.77417e-05
6.93153e-05
6.21922e-05
6.30411e-05
6.38938e-05
6.82843e-05
6.3749e-05
6.4225e-05
6.81987e-05
6.84622e-05
6.33821e-05
6.74106e-05
6.35659e-05
6.22311e-05
6.6451e-05
6.1177e-05
6.93655e-05
6.91069e-05
6.91399e-05
6.91199e-05
6.83358e-05
5.99275e-05
7.03072e-05
6.42601e-05
6.49647e-05
6.20823e-05
6.48819e-05
6.96929e-05
6.3496e-05
6.69992e-05
6.13949e-05
6.33232e-05
6.62365e-05
5.69188e-05
5.42815e-05
6.26323e-05
6.23219e-05
6.90901e-05
6.06626e-05
5.32828e-05
6.50196e-05
6.71575e-05
5.8127e-05
6.09073e-05
6.39349e-05
6.90102e-05
6.87682e-05
6.17878e-05
5.87459e-05
6.34725e-05
6.67406e-05
6.14291e-05
6.47481e-05
6.38822e-05
5.36465e-05
6.1427e-05
6.09797e-05
6.62524e-05
6.80077e-05
6.37605e-05
6.85525e-05
6.65784e-05
6.37626e-05
6.48874e-05
5.59185e-05
5.76246e-05
5.31346e-05
6.82532e-05
6.44318e-05
6.89546e-05
7.17776e-05
6.67255e-05
5.37493e-05
6.65762e-05
6.16779e-05
6.60362e-05
6.57621e-05
6.67024e-05
5.37463e-05
6.9378e-05
5.54024e-05
6.37797e-05
6.46723e-05
6.3049e-05
7.00507e-05
6.27787e-05
6.63e-05
5.62888e-05
6.28299e-05
6.39956e-05
6.71227e-05
5.96994e-05
5.74084e-05
6.62296e-05
6.78667e-05
6.55439e-05
6.60157e-05
6.89702e-05
5.55471e-05
6.2932e-05
6.24336e-05
5.83573e-05
6.72742e-05
6.90524e-05
6.8981e-05
6.77982e-05
6.95069e-05
5.63668e-05
5.54553e-05
5.60273e-05
6.97147e-05
5.42408e-05
6.65358e-05
6.51616e-05
5.55348e-05
6.14312e-05
6.7204e-05
6.79912e-05
5.95352e-05
6.09279e-05
6.17413e-05
6.3987e-05
6.87816e-05
6.47028e-05
5.58208e-05
6.37434e-05
6.9393e-05
6.81758e-05
6.93751e-05
6.87082e-05
7.1329e-05
6.90208e-05
6.73486e-05
5.66962e-05
5.4492e-05
6.39641e-05
5.96918e-05
6.86714e-05
5.47311e-05
6.47892e-05
6.2842e-05
6.87975e-05
5.66808e-05
6.60189e-05
6.71562e-05
6.50499e-05
6.17852e-05
5.53258e-05
6.72386e-05
6.06651e-05
6.93873e-05
6.38555e-05
7.10958e-05
6.89972e-05
6.41334e-05
5.42512e-05
5.51531e-05
6.26826e-05
6.49458e-05
6.05072e-05
7.03563e-05
5.59665e-05
6.84208e-05
6.65048e-05
6.15621e-05
6.58241e-05
6.77033e-05
6.83865e-05
6.86064e-05
6.93154e-05
6.47271e-05
6.5722e-05
5.38946e-05
6.06726e-05
6.84596e-05
5.65452e-05
6.58677e-05
6.23748e-05
5.61374e-05
6.33678e-05
6.56368e-05
6.29052e-05
6.63851e-05
6.7386e-05
5.56431e-05
6.25416e-05
6.40921e-05
5.49909e-05
6.08395e-05
6.23562e-05
6.19372e-05
6.632e-05
5.60979e-05
5.58151e-05
6.29805e-05
6.14486e-05
6.82152e-05
6.97399e-05
6.83158e-05
6.18393e-05
6.20669e-05
6.41726e-05
6.09655e-05
6.85647e-05
5.59421e-05
6.35532e-05
6.28058e-05
6.90422e-05
6.65606e-05
6.29639e-05
6.37919e-05
6.78054e-05
5.56463e-05
6.41073e-05
6.87232e-05
6.13178e-05
4.8386e-05
6.35858e-05
5.47715e-05
6.52097e-05
5.28241e-05
6.92988e-05
6.90342e-05
6.8456e-05
6.48065e-05
5.63817e-05
5.45298e-05
6.73603e-05
6.93544e-05
6.86361e-05
6.39485e-05
6.41272e-05
6.63155e-05
6.95723e-05
6.82002e-05
5.38527e-05
6.31891e-05
6.45561e-05
6.58218e-05
6.18761e-05
6.64856e-05
5.33103e-05
6.9016e-05
6.76239e-05
6.48721e-05
6.44672e-05
6.63091e-05
6.36126e-05
6.90695e-05
6.58573e-05
5.64609e-05
6.31887e-05
6.63954e-05
6.25512e-05
6.45879e-05
6.55691e-05
5.31525e-05
5.72433e-05
6.80047e-05
6.92981e-05
6.7514e-05
6.90383e-05
6.68871e-05
6.77485e-05
6.55069e-05
6.414e-05
6.56973e-05
6.79189e-05
6.13267e-05
6.31902e-05
6.08694e-05
6.37363e-05
6.77649e-05
5.25879e-05
6.47181e-05
5.33698e-05
6.74995e-05
5.35993e-05
5.45571e-05
6.27329e-05
5.18323e-05
6.31701e-05
6.52829e-05
6.7644e-05
6.76335e-05
6.00916e-05
6.01737e-05
7.03656e-05
5.86892e-05
5.60108e-05
6.26997e-05
5.96484e-05
6.84579e-05
6.56374e-05
6.48097e-05
5.55849e-05
6.75684e-05
6.85927e-05
6.86602e-05
5.46895e-05
5.80549e-05
6.35424e-05
6.793e-05
6.98631e-05
5.59689e-05
5.41155e-05
6.69491e-05
6.41136e-05
6.92615e-05
6.33205e-05
5.25073e-05
6.5922e-05
6.7598e-05
5.49489e-05
5.29091e-05
6.80849e-05
5.70115e-05
5.67056e-05
6.85314e-05
6.93011e-05
6.62808e-05
7.07145e-05
6.27423e-05
6.17044e-05
6.80872e-05
6.00469e-05
6.83365e-05
6.08794e-05
6.58967e-05
6.80529e-05
6.2401e-05
5.50515e-05
6.70074e-05
6.77838e-05
6.17965e-05
6.30624e-05
6.39646e-05
5.84328e-05
5.96281e-05
6.46071e-05
6.58548e-05
6.86625e-05
6.1116e-05
6.68074e-05
5.4038e-05
6.65463e-05
6.9599e-05
5.35073e-05
6.80995e-05
6.42818e-05
5.00496e-05
5.49289e-05
6.41586e-05
6.32476e-05
6.69619e-05
6.13721e-05
5.62493e-05
6.78516e-05
6.9483e-05
6.87699e-05
6.5404e-05
6.85552e-05
5.43025e-05
6.82263e-05
6.34878e-05
5.46145e-05
5.54587e-05
4.94839e-05
5.56421e-05
6.64321e-05
6.18724e-05
6.50795e-05
6.3797e-05
5.81807e-05
5.9349e-05
5.22504e-05
5.22431e-05
7.07218e-05
6.97104e-05
5.61823e-05
6.84125e-05
6.74433e-05
5.59557e-05
6.27145e-05
6.42973e-05
5.79495e-05
6.08374e-05
6.85756e-05
5.70518e-05
5.2298e-05
6.87161e-05
6.99719e-05
5.98529e-05
6.83367e-05
6.2361e-05
5.78411e-05
5.59568e-05
6.33948e-05
5.4703e-05
5.49897e-05
6.43541e-05
6.60071e-05
6.27608e-05
6.84184e-05
6.82373e-05
6.28613e-05
6.90219e-05
4.50604e-05
6.31837e-05
5.43129e-05
6.39262e-05
6.89555e-05
6.26837e-05
6.02234e-05
6.28567e-05
5.58169e-05
6.54266e-05
6.3064e-05
6.04059e-05
5.50192e-05
5.19904e-05
5.13155e-05
6.12985e-05
5.46733e-05
6.32005e-05
5.51603e-05
6.21146e-05
6.8268e-05
6.5504e-05
6.23721e-05
6.45349e-05
6.61156e-05
6.32037e-05
6.70434e-05
5.35991e-05
6.41365e-05
6.91603e-05
6.88343e-05
6.22402e-05
7.04274e-05
5.77405e-05
6.75192e-05
6.2546e-05
5.39975e-05
6.67636e-05
6.9072e-05
6.59791e-05
6.67648e-05
6.87466e-05
6.52914e-05
5.1569e-05
5.24779e-05
6.22543e-05
6.93965e-05
6.49807e-05
6.73231e-05
6.0649e-05
6.1844e-05
5.78141e-05
5.36092e-05
5.34753e-05
5.36191e-05
6.64953e-05
6.46789e-05
6.88269e-05
6.13471e-05
6.1465e-05
6.97165e-05
5.32375e-05
6.38115e-05
6.8945e-05
6.87601e-05
6.03319e-05
6.13266e-05
6.70583e-05
6.93991e-05
6.87253e-05
5.49851e-05
6.40448e-05
6.69077e-05
6.55024e-05
6.40317e-05
7.08315e-05
6.76909e-05
6.86731e-05
6.44015e-05
5.96318e-05
6.37371e-05
6.86889e-05
6.68014e-05
6.35442e-05
5.44414e-05
6.80463e-05
6.75508e-05
6.8634e-05
6.70071e-05
5.37698e-05
5.07586e-05
6.25096e-05
6.66135e-05
6.3056e-05
6.45488e-05
6.68181e-05
6.69703e-05
6.75534e-05
6.10865e-05
6.66101e-05
6.36497e-05
6.73923e-05
5.46707e-05
5.43841e-05
6.11239e-05
6.8496e-05
5.5784e-05
6.77074e-05
5.51157e-05
6.24539e-05
6.35802e-05
6.90401e-05
6.25479e-05
6.74929e-05
6.80516e-05
6.77873e-05
6.48735e-05
6.6946e-05
6.41289e-05
6.10898e-05
5.21673e-05
6.92057e-05
5.00733e-05
5.33563e-05
5.46805e-05
5.26316e-05
5.30177e-05
6.18636e-05
6.41493e-05
5.54257e-05
6.09383e-05
5.01824e-05
5.63836e-05
6.19709e-05
6.82084e-05
5.30439e-05
5.46699e-05
6.7044e-05
5.31239e-05
6.25519e-05
6.70649e-05
6.52652e-05
6.34446e-05
5.55222e-05
5.36543e-05
6.13738e-05
6.90295e-05
5.8017e-05
5.5107e-05
6.49514e-05
6.10005e-05
6.47451e-05
6.29225e-05
5.55483e-05
6.89731e-05
5.24581e-05
5.41171e-05
6.26076e-05
6.85104e-05
6.07964e-05
6.26338e-05
6.30213e-05
6.393e-05
5.17478e-05
5.66641e-05
6.18413e-05
6.91758e-05
6.60913e-05
5.36438e-05
5.10948e-05
6.29721e-05
6.92435e-05
6.27187e-05
6.31461e-05
6.06958e-05
6.14749e-05
6.30007e-05
5.44386e-05
6.85418e-05
6.02301e-05
5.47802e-05
5.07902e-05
6.691e-05
6.34874e-05
6.92903e-05
6.4801e-05
6.72548e-05
5.43178e-05
6.25718e-05
5.2113e-05
5.04898e-05
6.77297e-05
5.58526e-05
6.23668e-05
6.36173e-05
6.59526e-05
5.49053e-05
6.88753e-05
6.73633e-05
6.88483e-05
6.54467e-05
4.78297e-05
6.36744e-05
5.245e-05
6.93944e-05
5.539e-05
6.88159e-05
5.04847e-05
6.49113e-05
6.68467e-05
6.07718e-05
6.17319e-05
5.11412e-05
5.94157e-05
6.34073e-05
6.78794e-05
6.59426e-05
6.82858e-05
6.89691e-05
5.41509e-05
6.88064e-05
5.95328e-05
6.46694e-05
6.49353e-05
6.75938e-05
6.73142e-05
6.35291e-05
6.93435e-05
6.21932e-05
5.97406e-05
5.98988e-05
6.45868e-05
6.87484e-05
5.90842e-05
5.71513e-05
6.83557e-05
6.62444e-05
6.30952e-05
7.0797e-05
6.51822e-05
6.50971e-05
6.72235e-05
6.79353e-05
6.87141e-05
6.2705e-05
6.10767e-05
6.77519e-05
6.69659e-05
5.65864e-05
6.2622e-05
5.93592e-05
6.92182e-05
6.4553e-05
6.74421e-05
5.52256e-05
5.55245e-05
6.38363e-05
6.69712e-05
6.79454e-05
6.91728e-05
6.79345e-05
6.44698e-05
6.59412e-05
5.57198e-05
6.38802e-05
6.37471e-05
6.80966e-05
6.88997e-05
6.85244e-05
6.27688e-05
6.88031e-05
5.66533e-05
6.85482e-05
5.93019e-05
6.23404e-05
6.16563e-05
6.37722e-05
6.15615e-05
6.69442e-05
5.448e-05
6.77811e-05
6.80123e-05
6.27456e-05
5.5369e-05
6.98459e-05
6.63449e-05
6.83575e-05
6.31242e-05
6.39e-05
6.69007e-05
5.39697e-05
6.85907e-05
6.27327e-05
6.43168e-05
5.89565e-05
5.93254e-05
5.85387e-05
5.39051e-05
6.06254e-05
6.94777e-05
6.42071e-05
5.27394e-05
6.59595e-05
5.36154e-05
6.48436e-05
6.46194e-05
5.20033e-05
5.35335e-05
5.98713e-05
6.43918e-05
6.69833e-05
6.10588e-05
6.69034e-05
6.27899e-05
5.79165e-05
6.02576e-05
6.86213e-05
6.86625e-05
6.81054e-05
6.64614e-05
6.52979e-05
5.45071e-05
5.50833e-05
6.89459e-05
6.18636e-05
6.42186e-05
6.76728e-05
7.0193e-05
6.38393e-05
6.53427e-05
5.18309e-05
6.70942e-05
6.79513e-05
6.08775e-05
6.88763e-05
6.82241e-05
6.50479e-05
6.09264e-05
6.65129e-05
6.13863e-05
5.25306e-05
6.39251e-05
5.55174e-05
5.38465e-05
6.45107e-05
6.36666e-05
6.77446e-05
6.77698e-05
6.44751e-05
6.82681e-05
5.08826e-05
6.10818e-05
6.94438e-05
6.93922e-05
5.32721e-05
6.39861e-05
5.66263e-05
6.08722e-05
6.83832e-05
6.09516e-05
6.56382e-05
6.98264e-05
6.60376e-05
5.19982e-05
6.76758e-05
5.42276e-05
6.79597e-05
6.63956e-05
6.49256e-05
6.78283e-05
6.4512e-05
6.80454e-05
5.48754e-05
6.86658e-05
6.86431e-05
5.62965e-05
6.53772e-05
6.31961e-05
6.22319e-05
6.7306e-05
6.29619e-05
6.72128e-05
6.90259e-05
6.88604e-05
6.34915e-05
6.88191e-05
6.3432e-05
6.62869e-05
5.7163e-05
6.04679e-05
5.3971e-05
5.29223e-05
6.49056e-05
6.55749e-05
6.31362e-05
6.87535e-05
6.20253e-05
6.88212e-05
5.26033e-05
6.93741e-05
6.92497e-05
6.58404e-05
6.85154e-05
5.70347e-05
5.23272e-05
6.30459e-05
5.36118e-05
6.72857e-05
6.38517e-05
5.2009e-05
6.21778e-05
6.91517e-05
6.67369e-05
5.33261e-05
5.86673e-05
5.1569e-05
6.95126e-05
5.42331e-05
6.72098e-05
5.94677e-05
5.45411e-05
6.82888e-05
6.89934e-05
6.84863e-05
6.6626e-05
5.49252e-05
6.56499e-05
6.94202e-05
5.64458e-05
6.81314e-05
6.65065e-05
6.88808e-05
5.26879e-05
6.66079e-05
6.12291e-05
6.61246e-05
6.13598e-05
6.22619e-05
6.12037e-05
6.11485e-05
6.1884e-05
6.20628e-05
6.64427e-05
6.28738e-05
6.91322e-05
5.70368e-05
6.27399e-05
6.42377e-05
6.69616e-05
6.91949e-05
5.39887e-05
6.6862e-05
5.5515e-05
6.20578e-05
6.86958e-05
6.9072e-05
6.2754e-05
6.50159e-05
6.67228e-05
6.11682e-05
6.30678e-05
6.27268e-05
5.42766e-05
5.36287e-05
6.49484e-05
6.75175e-05
6.35515e-05
6.14275e-05
6.76543e-05
5.53331e-05
6.47283e-05
5.51342e-05
6.57725e-05
6.88643e-05
6.3602e-05
5.36785e-05
6.76161e-05
5.40626e-05
6.52951e-05
6.83839e-05
5.28712e-05
6.94948e-05
5.64235e-05
6.09185e-05
6.23832e-05
5.36244e-05
5.97138e-05
6.09968e-05
5.10206e-05
6.83725e-05
6.94743e-05
5.02003e-05
6.0369e-05
6.64708e-05
6.50577e-05
6.4884e-05
6.96346e-05
6.81842e-05
6.25337e-05
5.91871e-05
5.29834e-05
5.13927e-05
5.67025e-05
6.93583e-05
6.73954e-05
6.60443e-05
6.57838e-05
5.42931e-05
5.46854e-05
6.25471e-05
6.82271e-05
5.16368e-05
6.53232e-05
6.32124e-05
6.24544e-05
6.61777e-05
6.06234e-05
6.72752e-05
5.87095e-05
6.34505e-05
7.00362e-05
4.90305e-05
6.41865e-05
6.83193e-05
6.76464e-05
6.60567e-05
6.72849e-05
6.4762e-05
5.38654e-05
6.98152e-05
7.07244e-05
6.31992e-05
6.40988e-05
6.05232e-05
6.31924e-05
6.6092e-05
6.67645e-05
6.39922e-05
6.27902e-05
6.19277e-05
5.3184e-05
6.15625e-05
6.91122e-05
6.64718e-05
7.01056e-05
6.44556e-05
6.33404e-05
6.94787e-05
5.50386e-05
6.72571e-05
5.41027e-05
6.9276e-05
6.62842e-05
6.12259e-05
7.02006e-05
6.06163e-05
6.29644e-05
6.95827e-05
6.17525e-05
6.94852e-05
6.74269e-05
6.71017e-05
5.43931e-05
6.35954e-05
6.2794e-05
5.82164e-05
6.73151e-05
6.14327e-05
6.20108e-05
6.96632e-05
5.45844e-05
6.84298e-05
6.3629e-05
6.85141e-05
6.16757e-05
6.47537e-05
5.4701e-05
5.65188e-05
7.02662e-05
5.48198e-05
6.3408e-05
6.73294e-05
5.44889e-05
6.27509e-05
6.76734e-05
6.02674e-05
5.58842e-05
5.9268e-05
6.18038e-05
6.1444e-05
6.77801e-05
6.26078e-05
6.89118e-05
6.55902e-05
6.78831e-05
5.22759e-05
5.88381e-05
6.91179e-05
6.27518e-05
5.39928e-05
5.62704e-05
6.38725e-05
5.53515e-05
5.37951e-05
6.33208e-05
6.24012e-05
6.89796e-05
6.13566e-05
6.73784e-05
6.83366e-05
6.78126e-05
6.73162e-05
6.74137e-05
6.10615e-05
5.98614e-05
6.69311e-05
6.25493e-05
6.09549e-05
6.88272e-05
6.29603e-05
5.34071e-05
5.30567e-05
6.25033e-05
5.46295e-05
6.6278e-05
6.72297e-05
6.03935e-05
6.7437e-05
6.71611e-05
6.69998e-05
7.03403e-05
6.33634e-05
5.47728e-05
6.09344e-05
6.16802e-05
6.75186e-05
6.06685e-05
6.60775e-05
6.90317e-05
6.22849e-05
6.09724e-05
6.42246e-05
6.84394e-05
6.62955e-05
7.16602e-05
6.79697e-05
6.28916e-05
6.38662e-05
5.65787e-05
6.1472e-05
6.85449e-05
5.73212e-05
6.88446e-05
6.07561e-05
6.72372e-05
5.40485e-05
6.6458e-05
6.35111e-05
6.75453e-05
6.28653e-05
6.55719e-05
6.31283e-05
6.73374e-05
5.29007e-05
5.63915e-05
6.33931e-05
6.06185e-05
6.45518e-05
6.37733e-05
6.38018e-05
6.8736e-05
6.52536e-05
5.33001e-05
5.96728e-05
5.41992e-05
6.45305e-05
6.35096e-05
5.53879e-05
7.05556e-05
6.34191e-05
6.24989e-05
6.69594e-05
5.86693e-05
5.59095e-05
6.88037e-05
5.55295e-05
5.33194e-05
5.98872e-05
5.97307e-05
5.65416e-05
5.94568e-05
6.84987e-05
6.73819e-05
6.11296e-05
6.45346e-05
6.70653e-05
6.34065e-05
6.69843e-05
5.30773e-05
6.79809e-05
4.63239e-05
6.73575e-05
5.46491e-05
5.40349e-05
6.80665e-05
5.31654e-05
6.27132e-05
6.54294e-05
6.75514e-05
6.07286e-05
6.48159e-05
6.09727e-05
6.27858e-05
6.05473e-05
6.61702e-05
6.45726e-05
6.75698e-05
6.32833e-05
5.51616e-05
6.63844e-05
6.23357e-05
6.24862e-05
6.10689e-05
5.67442e-05
5.88242e-05
5.24031e-05
5.35725e-05
6.33914e-05
6.22451e-05
5.65316e-05
6.09562e-05
6.81115e-05
6.84565e-05
6.86249e-05
4.54551e-05
5.35452e-05
6.86383e-05
5.42302e-05
6.71792e-05
5.33543e-05
6.79373e-05
6.79546e-05
6.77392e-05
5.48903e-05
6.2498e-05
6.91666e-05
6.89573e-05
6.51754e-05
6.87647e-05
6.30155e-05
6.49155e-05
6.2678e-05
5.41942e-05
6.51933e-05
6.01716e-05
6.36833e-05
6.35313e-05
5.8005e-05
6.21538e-05
6.83475e-05
5.9577e-05
5.94266e-05
5.4079e-05
6.63436e-05
6.64435e-05
5.16437e-05
6.32042e-05
6.31659e-05
6.59363e-05
5.51403e-05
6.40296e-05
6.31809e-05
6.9586e-05
5.2397e-05
6.31677e-05
6.2654e-05
5.20977e-05
6.74825e-05
5.51784e-05
5.64228e-05
6.54651e-05
6.85532e-05
5.21741e-05
6.77135e-05
6.50573e-05
6.20102e-05
5.27362e-05
6.8739e-05
6.86409e-05
5.21323e-05
6.33536e-05
5.1531e-05
5.54252e-05
6.86125e-05
6.14298e-05
6.50259e-05
6.81487e-05
6.85572e-05
6.14843e-05
6.04646e-05
6.26002e-05
6.23897e-05
6.46181e-05
6.05374e-05
6.78225e-05
5.45535e-05
6.06878e-05
6.32841e-05
6.20323e-05
6.59019e-05
6.21836e-05
6.553e-05
6.65283e-05
6.32294e-05
6.89604e-05
6.61912e-05
6.18386e-05
5.96969e-05
6.65053e-05
6.15646e-05
6.02722e-05
6.57917e-05
6.90147e-05
6.63438e-05
6.71473e-05
5.99406e-05
6.63049e-05
5.99703e-05
5.46805e-05
6.29422e-05
6.52798e-05
5.49701e-05
6.57087e-05
6.21638e-05
5.03503e-05
5.36181e-05
6.69064e-05
5.21593e-05
6.23361e-05
6.74288e-05
6.52698e-05
5.46866e-05
6.5704e-05
7.00823e-05
5.52137e-05
5.45975e-05
5.51353e-05
6.79534e-05
6.3111e-05
6.27084e-05
6.86393e-05
5.36048e-05
6.58622e-05
6.32981e-05
6.88851e-05
6.96446e-05
4.8062e-05
6.34753e-05
6.6556e-05
6.77915e-05
6.44591e-05
6.18846e-05
5.48882e-05
6.52229e-05
6.88824e-05
5.95922e-05
5.25893e-05
6.17856e-05
6.76027e-05
6.5457e-05
5.40228e-05
6.25695e-05
6.66621e-05
6.78472e-05
6.24475e-05
6.22211e-05
5.16631e-05
5.4818e-05
5.45437e-05
6.37808e-05
6.17417e-05
6.47468e-05
6.902e-05
6.81211e-05
5.60631e-05
6.74288e-05
6.81037e-05
6.50765e-05
6.08982e-05
6.74085e-05
6.17533e-05
5.5564e-05
6.0671e-05
6.44265e-05
6.37789e-05
5.82889e-05
6.56573e-05
6.17999e-05
6.77194e-05
5.5825e-05
5.26962e-05
6.15299e-05
6.88828e-05
6.73438e-05
6.11015e-05
6.21393e-05
6.7625e-05
6.80109e-05
6.08247e-05
6.13557e-05
6.76353e-05
6.89749e-05
6.63295e-05
6.88027e-05
6.683e-05
6.56172e-05
5.29373e-05
6.18107e-05
5.4557e-05
6.62647e-05
6.77087e-05
6.06063e-05
5.42647e-05
6.93269e-05
5.41071e-05
6.01525e-05
5.66933e-05
6.33917e-05
5.30156e-05
6.55322e-05
6.29508e-05
6.27859e-05
6.41326e-05
5.70232e-05
6.84638e-05
5.54053e-05
6.59899e-05
6.36781e-05
6.23876e-05
5.40875e-05
6.74979e-05
6.55702e-05
5.54232e-05
5.80161e-05
6.23075e-05
6.15206e-05
6.50573e-05
5.14038e-05
6.49081e-05
6.15797e-05
6.37391e-05
5.99737e-05
5.95362e-05
5.93952e-05
5.19288e-05
6.81765e-05
6.33529e-05
3.19125e-05
5.5197e-05
6.36501e-05
6.82578e-05
6.68176e-05
5.61939e-05
5.51533e-05
6.77928e-05
5.44246e-05
6.68108e-05
6.84522e-05
6.51576e-05
5.59093e-05
6.7709e-05
5.34989e-05
5.20905e-05
5.21669e-05
6.59562e-05
6.25161e-05
6.10276e-05
6.89867e-05
6.61225e-05
6.43919e-05
5.61048e-05
5.0476e-05
6.93192e-05
6.35891e-05
6.97502e-05
6.72993e-05
5.48257e-05
6.24643e-05
6.34811e-05
6.02946e-05
6.30515e-05
6.00693e-05
6.18636e-05
7.19644e-05
6.43271e-05
6.0955e-05
5.43114e-05
6.52699e-05
6.25475e-05
6.64851e-05
6.14022e-05
5.3922e-05
5.56304e-05
6.55453e-05
6.58956e-05