/*--------------------------------*- C++ -*----------------------------------*\
| =========                 |                                                 |
| \\      /  F ield         | OpenFOAM: The Open Source CFD Toolbox           |
|  \\    /   O peration     | Version:  2212                                  |
|   \\  /    A nd           | Website:  www.openfoam.com                      |
|    \\/     M anipulation  |                                                 |
\*---------------------------------------------------------------------------*/
FoamFile
{
    version     2.0;
    format      ascii;
    arch        "LSB;label=32;scalar=64";
    class       volScalarField;
    location    "0.024";
    object      p;
}
// * * * * * * * * * * * * * * * * * * * * * * * * * * * * * * * * * * * * * //

dimensions      [0 2 -2 0 0 0 0];

internalField   nonuniform List<scalar> 
31639
(
0.0150489
0.0105029
0.0172311
0.00771103
0.0105901
0.0147957
0.0165217
0.0157576
0.0112166
0.00956685
0.0164364
0.0106792
0.0110907
0.0144233
0.0125719
0.0176014
0.0203933
0.0208733
0.00343676
0.016021
0.0116523
0.00901319
0.0122863
0.0076043
0.0131735
0.0155913
0.0151736
0.0478065
0.0158452
0.0158046
0.00849898
0.0225325
0.0112461
0.00611626
0.0273896
0.0157534
0.00906708
0.0163958
0.0163915
0.013432
0.010759
0.0153643
0.0120322
0.0167034
0.0171916
0.00720369
0.0107614
0.00852459
0.0183908
0.00773966
0.00714773
0.00575617
0.0278126
0.0170373
0.0055925
0.0208477
0.00918297
0.0152489
0.0105196
0.00733371
0.00807185
0.0154189
0.0127669
0.0156955
0.0276361
0.00453277
0.00278584
0.00878949
0.0108743
0.00681085
0.00973047
0.020547
0.00946909
0.00406328
0.0279882
0.022277
0.00971035
0.00900287
0.0104306
0.00984231
0.0149981
0.0143794
0.0141669
0.00791859
0.014022
0.0130156
0.0120815
0.00850963
0.00272563
0.0113218
0.0064418
0.0204354
0.00755818
0.0100591
0.00481622
0.0151548
0.00820989
0.00580165
0.0109854
0.01455
0.0258657
0.0258696
0.0131973
0.0100486
0.00558821
0.00698838
0.0147333
0.00743199
0.00857757
0.0133413
0.0164681
0.0143963
0.0153687
0.0090609
0.00404226
0.016051
0.0274592
0.0169905
0.0259956
0.00810408
0.0227473
0.00702594
0.00364394
0.00773043
0.0146897
0.0143955
0.010416
0.00783962
0.00956055
0.0115818
0.0272251
0.0012052
0.0174072
0.00410356
0.00491182
0.00876797
0.00917107
0.0100482
0.00720553
0.00804499
0.0079866
0.0118358
0.0128924
0.00739133
0.010787
0.0140361
0.0261851
0.00914702
0.0135567
0.0279551
0.00821941
0.0187839
0.00589202
0.00529261
0.00687246
0.00527832
0.00386967
0.00966598
0.018358
0.00870819
0.00480342
0.0205912
0.00923177
0.0153238
0.0218949
0.0219668
0.0170626
0.0191703
0.00603456
0.00420285
0.0195038
0.014449
0.0195301
0.0112031
0.0139186
0.00941137
0.0126003
0.0226509
0.00879979
0.0132737
0.0110386
0.0181193
0.0154206
0.0160531
0.0161309
0.0157044
0.018906
0.0132663
0.0144543
0.0178734
0.0181895
0.00954632
0.0184751
0.00566135
0.00642013
0.00669736
0.00645202
0.0102362
0.00659385
0.0162674
0.0136895
0.0206929
0.0181408
0.0191803
0.00937212
0.00784519
0.0032832
0.0055643
0.0230961
0.00633382
0.00629955
0.0134397
0.0260192
0.0139322
0.0167595
0.0140499
0.014111
0.0140285
0.0196268
0.0105504
0.0109181
0.0133975
0.0141814
0.0196509
0.0170989
0.00977245
0.0176729
0.0172582
0.0122446
0.0224163
0.00592637
0.0162286
0.0205928
0.0178529
0.018362
0.00315317
0.00291147
0.0186968
0.015397
0.00557909
0.00794423
0.0168599
0.0195803
0.0184088
0.0081469
0.021104
0.00625242
0.02185
0.0178213
0.00319132
0.000923572
0.00720893
0.0182696
0.0209731
0.0101893
0.0109142
0.0152518
0.00472724
0.0150668
0.0174272
0.00729755
0.00587417
0.0102165
0.0144311
0.01036
0.0139876
0.00233011
0.0265003
0.016609
0.0148799
0.0339154
0.00692875
0.015164
0.0187694
0.00904355
0.0177179
0.00645629
0.0197103
0.00877617
0.00721803
0.022074
0.0226922
0.0225706
0.0299368
0.0161837
0.016219
0.019745
0.0188514
0.00360463
0.0181576
0.0202281
0.00163423
0.00586199
0.00589668
0.0171342
0.00506926
0.0204969
0.00274952
0.00808178
0.00931205
0.00864963
0.0196459
0.00625295
0.00563926
0.0125354
0.0050435
0.014316
0.00334389
0.0121079
0.0197711
0.00837055
0.0330638
0.0264903
0.0117524
0.0108256
0.0152098
0.00292227
0.0228662
0.0177282
0.017428
0.0167529
0.00701435
0.0255579
0.00522447
0.0137765
0.0187099
0.0168086
0.0188801
0.00608517
0.00704417
0.00730729
0.00770075
0.0199623
0.00576579
0.0206734
0.0275151
0.0281625
0.00873565
0.0191763
0.0215675
0.00491497
0.00241564
0.0210047
0.0044236
0.00630499
0.019488
0.0053605
0.0172073
0.0170192
0.0256087
0.00960935
0.0196692
0.00960616
0.0181913
0.00558643
0.00735322
0.00624612
0.0125842
0.0127958
0.0188132
0.0206692
0.0127193
0.0329598
0.00361344
0.0088199
0.00797753
0.00428087
0.0127152
0.0136154
0.0188924
0.0123616
0.0231083
0.0144845
0.00681118
0.00459764
0.0076687
0.0265389
0.0221783
0.0185675
0.0231676
0.0175648
0.00575424
0.0085942
0.00574491
0.00528583
0.00501872
0.00617062
0.0106313
0.000599775
0.0211539
0.00316244
0.0234622
0.00625165
0.0196149
0.00545593
0.0200752
0.0212666
0.01607
0.00771428
0.0310894
0.0208644
0.0163935
0.0157158
0.00527171
0.0184943
0.00288589
0.00817613
0.00826682
0.00856239
0.0161441
0.00709101
0.00829963
0.0183547
0.0340793
0.0168864
0.0185498
0.0135917
0.0145179
0.0130191
0.0108235
0.0104409
0.0255867
0.0124007
0.00111756
0.0184591
0.0336389
0.0119882
0.025064
0.0144699
0.0172202
0.00756601
0.00624799
0.0196461
0.00714798
0.0156864
0.0157099
0.0191308
0.00470641
0.00580003
0.0204352
0.0086719
0.0030767
0.00368674
0.0141467
0.00491475
0.00879534
0.00926305
0.0213961
0.020947
0.0226439
0.0213504
0.0186171
0.00907208
0.0190566
0.00859585
0.0203205
0.0228039
0.00707294
0.0186832
0.00787538
0.0153641
0.0219607
0.0145433
0.00393457
0.0179713
0.0499651
0.00390372
0.011752
0.0079778
0.0174472
0.00225102
0.00607998
0.0072431
0.00603588
0.0190636
0.00155187
0.0121316
0.0246389
0.0108742
0.0126188
0.00732847
0.0267636
0.00472556
0.00996982
0.0256064
0.0329269
0.0119626
0.0171177
0.0139462
0.00930059
0.00722022
0.00554646
0.0224556
0.00262378
0.014848
0.0142733
0.0135015
0.00407527
0.00617966
0.0215955
0.0243933
0.00317138
0.00358009
0.00401111
0.00236119
0.0287908
0.00829336
0.00344691
0.0229984
0.0255756
0.0228623
0.00485355
0.0206003
0.0191674
0.0217726
0.00248018
0.0255805
0.0256498
-0.000349329
0.0222055
0.0214453
0.0223317
0.0142245
0.0238373
0.00107836
0.0039141
0.0216706
0.00325261
0.00394548
0.00666415
0.0161808
0.0109343
0.0200107
0.0013529
0.00715403
0.0114801
0.0240719
0.00155383
0.0190615
0.00295346
0.0332903
0.0336777
0.00796498
0.0481051
0.00818392
0.00815552
0.0132614
0.0136106
0.00942119
0.0129454
0.0346221
0.00952116
0.0187225
0.000796876
0.00849415
0.0131528
0.00746627
0.0213732
0.0016421
0.00513331
0.0128915
0.00463513
0.0116908
0.0119224
0.00643576
0.0269859
0.00468354
0.00333705
0.000555044
0.0150187
0.0245633
0.00371238
0.000790011
0.00453989
0.00503889
0.0039154
0.0228598
2.63424e-06
0.00157036
0.00109094
0.0205194
0.00259182
0.0215153
0.0220091
0.0229397
0.00675875
0.000115978
0.000394423
0.00349511
0.00104248
0.0141107
0.00122985
0.0140902
0.022346
0.00191037
0.00821027
0.0110156
0.0268286
0.0247956
0.0194613
0.00934391
0.00449028
0.0257768
0.0221795
0.00209749
0.00229319
0.00959396
0.0161958
0.00667888
0.00148168
0.000148911
0.00113428
0.0214304
0.0179268
0.00823596
0.0492177
0.0176531
0.0137127
0.00951141
0.0148032
0.0190277
0.0188905
0.0132111
0.00844455
0.0106059
0.010977
0.0179554
0.00412607
0.0128746
0.00153667
0.0140381
0.0326447
0.0226868
0.0209724
0.0155753
0.0123328
0.0297097
0.0138554
0.0166001
0.00734422
0.0263536
0.0248642
0.00366631
0.0136267
0.0154653
0.000307737
0.0301836
0.00832696
0.00142541
0.00406118
0.00232254
0.0268159
0.0244862
0.0249836
0.00377529
0.000164663
0.0211962
0.0142834
0.0223721
0.0230847
0.0230793
0.00150329
0.000117357
0.0219505
0.0190897
0.0197039
0.0231237
0.00131316
0.00828939
0.0338791
0.0048084
0.00270322
0.0237556
0.0134589
0.00570946
0.021649
0.0213207
0.017331
0.0100601
0.00666997
0.0157707
0.00907792
0.000503135
0.000884072
0.00178807
0.00669961
0.0025613
0.0268588
0.00959273
0.000741722
0.000815086
0.0205663
0.00729095
0.000919022
0.0498014
0.00675537
0.00808045
0.0108438
0.0122515
0.0103955
0.0132719
0.0125606
0.00842157
0.0096727
0.013963
0.00888092
0.00830309
0.00942523
0.0124484
0.0236822
0.0134398
0.0127015
0.0207996
0.0268885
0.0226552
0.00636367
0.0124956
0.0036114
0.0141423
0.0277502
0.00107301
0.00259272
0.00232455
0.00721253
0.00835289
0.0206455
0.0197183
0.00590113
0.00243386
0.016117
0.0267388
0.000700564
0.0219977
0.00874164
0.0202396
0.0186423
0.0195698
0.0252845
0.0235618
0.030339
0.0215204
0.0180448
0.022486
0.0202562
0.0209393
0.00755082
0.0263592
0.0074272
0.00196741
0.00495827
0.0204541
0.000140888
0.0169853
0.00402169
0.00561526
0.0170168
0.0102402
0.0254075
0.00476123
0.017823
0.00577958
0.029267
0.00845327
0.000869278
0.00124638
0.0239117
0.0159833
0.00108274
0.00265191
0.00155904
0.00512988
0.000707622
0.000362137
0.0201444
0.0194844
0.000285072
0.0195663
0.0173264
0.0209191
0.0114843
0.0113889
0.00919842
0.0147313
0.0154017
0.00720192
0.00116351
0.0135007
0.0184668
0.013655
0.0253299
0.0226288
0.0135278
0.0219346
0.00839094
0.0339594
0.00398475
0.0222019
0.0132837
0.000149358
0.0151047
0.00386743
0.0080335
0.00336903
0.0034027
0.0170137
0.0240666
0.00593381
0.0213239
0.000985279
0.0010793
0.00100903
0.0280373
0.0281875
0.0268101
0.0288542
0.0238131
0.0219947
0.00740928
0.00482996
0.0081798
0.0021633
0.0157094
0.00704869
0.0185182
0.0102485
0.00820437
0.00257513
-0.000110982
0.00600024
0.00320433
0.0250128
0.0109045
0.00589909
0.0056535
0.010484
0.00106818
0.017579
0.00572563
0.0220057
0.00425274
0.00289945
0.0144923
0.0144324
0.0223544
0.0266136
0.0233517
0.0178098
0.0100474
0.0108957
0.0211559
0.000196817
0.00114186
0.0208175
0.0212657
-0.000103292
0.000502125
0.00303897
0.020978
0.00556643
0.0127682
0.0270677
0.0263459
0.0134584
0.0315748
0.0101771
0.00882034
0.00907861
0.00588719
0.00365952
0.0220903
0.00375107
0.013521
0.0163637
0.0249364
0.00788118
0.0090678
0.00866433
0.0200639
0.020319
0.020396
0.0289231
0.00271346
0.0234536
0.0231432
0.0236195
0.0128305
0.000487265
0.0277045
0.0285848
0.0263458
0.0155531
0.0164369
0.0179717
0.0167551
0.0199292
0.0153508
0.000600626
0.0210049
0.00978393
0.00672583
0.021354
0.00162854
0.000970693
0.00373574
0.0034931
0.0255904
0.0103102
0.00380806
0.0052862
0.00928941
0.0189418
0.00890383
0.00818329
0.0171124
0.0119871
0.000370726
0.0220348
0.0139701
0.0231284
0.0116947
0.00243471
0.0179597
0.0178335
0.000884402
0.0103053
0.00961131
0.000750626
0.000900272
0.0218349
0.0250812
0.0101345
0.0130574
0.00152887
0.0232293
0.0289176
0.0242218
0.0167298
0.00784098
0.0225742
0.0171142
0.00908719
0.0125989
0.00702517
0.00712615
0.011342
0.021484
0.00390946
0.0140583
0.00890465
0.00803904
0.000274432
0.0239945
0.00944678
0.0247772
0.00686235
0.0202951
0.0234656
0.0116663
0.0117427
0.0244572
0.0198098
0.0222513
0.0086466
0.0100284
0.0196911
0.018812
0.0149139
0.0157813
0.022931
0.023475
0.0308467
0.0181747
0.0205049
0.00133168
0.000909247
0.0210069
0.0191797
0.00985961
0.0227608
0.00329263
0.0160804
0.0178953
0.0224285
0.00278489
0.023016
0.0209332
0.0249544
0.0236904
0.0247894
0.011728
0.0213093
0.00947508
0.0163535
0.015907
0.0151127
0.0257553
0.02387
0.0231106
0.0195487
0.0106266
0.0138518
0.0152525
0.0234704
0.015069
8.78422e-05
0.0244623
0.0269086
0.0127175
0.0107742
0.00451095
0.00328225
0.00896501
0.0237062
0.00744953
0.00798442
0.029162
0.0119343
0.00445566
0.00613185
0.000555471
0.0113776
0.0128976
0.0117242
0.0218303
0.000821715
0.0252913
0.00224884
0.0245978
0.0237715
0.0290151
0.0112242
0.0115152
0.00984493
0.0184227
0.0163678
0.0192249
0.0295403
0.0215203
0.0228124
0.0150728
0.0183583
0.0109027
0.0192764
0.0167398
0.00366316
0.00329182
0.01353
0.00111968
0.009643
0.0254637
0.0268173
0.00492586
0.0246635
0.0160734
0.0259188
0.0141993
0.0146204
0.00198909
0.00108588
0.0188765
0.0170451
0.00825233
0.0108528
0.0102377
0.0158223
0.0109582
0.0213948
0.0229507
0.0293597
0.022594
0.0244054
0.0148048
0.0104329
0.0121955
0.00109608
0.00208515
0.00401746
0.0107461
0.00968382
0.0169903
0.0100075
0.0178929
0.0202557
0.0224337
0.0103752
0.00648052
0.0300846
0.0157667
0.0268633
0.0265196
0.0118528
0.0271004
0.00278366
0.0227712
0.00685735
0.0129456
0.00517383
0.0100295
0.0111932
0.0257012
0.0261087
0.000809626
0.0235232
0.0280102
0.032073
0.0104711
0.0197663
0.0226947
0.0230634
0.00931718
0.0100439
0.0213815
0.0323405
0.0212939
0.00395473
0.0188398
0.0316351
0.0183126
0.0181486
0.017551
0.00872235
0.0265249
0.0229085
0.0267529
0.00236705
0.0190544
0.00161252
0.015829
0.0224502
0.00480902
0.0225651
0.00693292
0.0214865
0.0292248
0.0126617
0.000659976
0.0142717
0.0153442
0.000878259
0.00948045
0.00964924
0.0151352
0.0110565
0.0307829
0.024637
0.00971197
0.00960001
0.0238593
0.0134326
0.0226856
0.0298786
0.0231155
0.000841686
0.000809459
0.0244542
0.0212304
0.0149135
0.0165588
0.0190037
0.0157262
0.0163433
0.0266798
0.0234347
0.0281345
0.0211237
0.0185122
0.00266281
0.0270988
0.003577
0.0102748
0.0253135
0.0270911
0.021892
0.0114751
0.0102445
0.000572161
0.0237071
0.0147232
0.0251003
0.0138262
0.0265564
0.0281526
0.0177901
0.0189935
0.0113776
0.0055641
0.0306992
0.0146725
0.0188362
0.0146219
0.0135176
0.019551
0.0310834
0.01799
0.0169278
0.0334171
0.00293247
0.0262548
0.016228
0.0323303
0.0167987
0.0135294
0.0260827
0.0266819
0.00482879
0.0100313
0.00559504
0.00686264
0.0230735
0.0122743
0.013322
0.000576015
0.0106743
0.0387054
0.0109361
0.0114607
0.0157823
0.0162864
0.0154078
0.0243093
0.0249052
0.0180607
0.00967862
0.0246739
0.0138755
0.0255655
0.0228958
0.0230828
0.0254637
0.0260152
0.0239089
0.00915843
0.00078372
0.0272896
0.00829185
0.0287391
0.0320219
0.0299991
0.0109632
0.0274133
0.0184109
0.00295227
0.00242515
0.00403689
0.0244991
0.0253977
0.0252199
0.0234109
0.0279303
0.011425
0.0095027
0.0256539
0.02847
0.0135889
0.0252781
0.0271427
0.018021
0.0104782
0.0308466
0.0275434
0.0237252
0.0192564
0.0245822
0.0200972
0.026497
0.00224874
0.0199624
0.0237223
0.0271452
0.0194165
0.0257629
0.0129485
0.0324827
0.0203002
0.00273906
0.0246082
0.00592483
0.000188306
0.00559757
0.0193952
0.0165111
0.0191692
0.0245842
0.026724
0.0101713
0.0211721
0.0121086
0.0164891
0.0155844
0.01538
0.00947094
0.0251386
0.0168947
0.0174986
0.0249206
0.017518
0.00874929
0.00840387
0.0175924
0.0184606
0.0168101
0.0234295
0.0239556
0.00140438
0.0165742
0.0249383
0.0238214
0.0172382
0.0176105
0.0144966
0.0179842
0.0314189
0.00156584
0.00865613
0.0261764
0.00406936
0.0115732
0.0125132
0.0119473
0.0291684
0.0309141
0.00388856
0.0316071
0.0281145
0.0201712
0.0201244
0.0285745
0.0208443
0.0264283
0.0248093
0.00500896
0.0110668
0.030068
0.000562919
0.00086245
0.0287142
0.0267839
0.00467281
0.0284107
0.0208927
0.0183563
0.0119199
0.0269686
0.0263432
0.00959532
0.024942
0.0231922
0.0204131
0.0182334
0.00114846
0.00197165
0.00137521
0.0209993
0.0240995
0.0155228
0.0274304
0.0303668
0.0150071
0.0133318
0.00937106
0.00561285
0.0332438
0.000162123
0.00383559
0.0120116
0.00148415
0.000349496
0.000648247
0.0128099
0.00939479
0.00118478
0.0413457
0.0261232
0.0197995
0.0305879
0.0170932
0.0328079
0.00537776
0.0105763
0.0110496
0.0315775
0.0316446
0.0171454
0.00898978
0.0180058
0.0162547
0.0212361
0.019702
0.0205246
0.0240077
0.00180832
0.0256034
0.0258696
0.0260775
0.0253563
0.0212884
0.020994
0.0161778
0.0148865
0.0272583
0.0236516
0.00766769
0.00599424
0.0160571
0.0229675
0.0306421
0.00746664
0.0086268
0.00896306
0.022874
0.0289152
0.0304264
0.0298452
0.00245298
0.0014849
0.0284163
0.0009236
0.0279377
0.0290704
0.00591302
0.00819378
0.00368358
0.0271841
0.010351
0.0238806
0.0187623
0.0188903
0.029347
0.0298987
0.0134832
0.0328328
0.0325041
0.02215
0.0203573
0.000138487
0.000820593
0.0226113
0.0204783
0.0247536
0.0321181
0.0488358
0.0327498
0.0258003
0.0327473
0.0259772
0.00325604
0.0239669
0.0276264
0.00375998
0.025906
0.00635454
0.000736291
0.0253933
0.000921064
0.0118731
0.0128935
0.0127568
0.0117572
0.000576736
0.00252562
0.00813524
0.0310987
0.0289673
0.0210397
0.0125321
0.0158319
0.0100207
0.0125958
0.0093022
0.0121736
0.0119317
0.0107756
0.022233
0.0190566
0.0255509
0.0189247
0.0255857
0.00181727
0.0250487
0.00134253
0.0330768
0.0258291
0.0169015
0.0212804
0.0103555
0.0135625
0.00472772
0.00349416
0.00831069
0.00561521
0.0153253
0.0250467
0.0117409
0.0196493
0.0179258
0.00708121
0.017652
0.0309993
0.00176117
0.00401281
0.00168913
0.0204727
0.029157
0.0235993
0.00765724
0.00606402
0.0287166
0.00372531
0.0288295
0.0273118
0.0497204
0.028949
0.0286201
0.0326894
0.0306309
0.0294667
0.0229876
0.00593375
0.0237685
0.0056552
0.0243573
0.0252221
2.36792e-05
0.0308033
0.0144114
0.00288874
0.0241929
0.0304487
0.023841
0.0273496
0.0238518
0.0120931
0.0147763
0.0229553
0.0259152
0.028338
0.0304091
0.00094608
0.00404797
0.0193955
0.0256708
0.0240963
0.0213534
0.022443
0.0016565
0.0213665
0.0115387
0.0121145
0.0117789
0.0102776
0.0136396
0.0164293
0.000700826
0.0261814
0.027278
0.0230632
0.00153798
0.0271117
0.0165039
0.0173773
0.0196263
0.0204794
0.0238905
0.0186914
0.0420819
0.0048261
0.0170309
0.0264712
0.0204362
0.0204485
0.00398688
0.018622
0.0290467
0.0326653
0.0239307
0.0109981
0.0282079
0.0100991
0.0188305
0.0300356
0.0317027
0.0188476
0.0320209
0.0317252
0.0315345
0.0293889
0.0199112
0.0305809
0.0289281
0.0253422
0.0113911
0.022843
0.00901808
0.00252862
0.0234235
0.00742251
0.0297964
0.0303589
0.0295835
0.0275326
0.0174781
0.0277138
0.031296
0.00981576
0.00690845
0.013591
0.0335679
0.022884
0.0220179
0.00568505
0.00496474
0.0264269
0.00169612
0.0160766
0.0328817
0.0282543
0.0240962
0.0248545
0.0149407
0.0132066
0.00351181
0.0255864
0.000395465
0.00935464
0.0286379
0.00129402
0.00357949
0.00553238
0.00731724
0.00430575
0.0202497
0.0226801
0.0264716
0.0173906
0.0107095
0.0383061
0.0106607
0.0123209
0.013122
0.0275828
0.0249128
0.0312685
0.028189
0.00887692
0.0157385
0.0153203
0.0152945
0.0178385
0.0216255
0.0217037
0.0252399
0.0240468
0.0224217
0.0165145
0.0122795
0.0124936
0.00308902
0.0237238
0.0282321
0.0101193
0.00418937
0.0423977
0.0160157
0.0289603
0.0194953
0.0293476
0.0352087
0.0227767
0.0102556
0.00872235
0.0187931
0.0312111
0.0298738
0.00774392
0.033165
0.000340785
-0.000193796
0.028617
0.0319029
0.0159793
0.0132243
0.0267632
0.00689101
0.0298857
0.0322204
0.0129943
0.0263268
0.0273729
0.0407045
0.00739177
0.0308515
0.0181234
0.0188854
0.025958
0.0309383
0.00354497
0.0242323
0.0331316
0.0322636
0.0345084
0.00742642
0.0270745
0.0263797
0.00382044
0.0213909
0.0308935
0.0221245
0.00315988
0.00963181
0.0204201
0.00670398
0.0223842
0.00956224
0.000838507
0.00108288
0.01364
0.00392704
0.029409
0.017218
0.00759018
0.0131811
0.0305249
0.0305845
0.0270708
0.0283224
0.0300648
0.0173642
0.00314893
0.00653825
0.0150419
0.0256459
0.0257266
0.0264212
0.0267395
0.0183334
0.017944
0.0162428
0.0222577
0.0197751
0.0198989
0.021462
0.0324877
0.0234309
0.025714
0.0219535
0.0243445
0.0240697
0.0122134
0.0236222
0.0185126
0.0114531
0.0166302
0.0375211
0.0187288
0.0417933
0.0246964
0.00721484
0.011171
0.0217287
0.0354977
0.0199788
0.0188628
0.00850914
0.0248201
0.000839653
0.00216903
0.000426569
0.0308514
0.030625
0.0310841
0.0160123
0.0336107
0.00601035
0.0318728
0.0322992
0.0310345
0.00327876
0.0354476
0.0313181
0.00242772
0.0331593
0.0188759
0.0197809
0.018612
0.025838
0.0280691
0.0230407
0.0242483
0.0256238
0.0159231
0.0153557
0.00398981
0.0322782
0.0254046
0.0290515
0.0221663
0.0282493
0.031604
0.0117729
0.0303794
0.00314234
0.0227005
0.0107749
0.00126212
0.000209713
0.0136977
0.0284118
0.0107741
0.0259501
0.0263838
0.00892879
0.0277094
0.0103935
0.0332822
0.0263764
0.0328127
0.0247412
0.0134704
0.0261186
0.0273324
0.0303436
0.00703125
0.0268945
0.0268812
0.0281873
0.0303263
0.021653
0.0285927
0.0230556
0.0031502
0.0273974
0.00698646
0.0204917
0.0216085
0.0148546
0.0236736
0.0358033
0.0181131
0.0167545
0.0176422
0.0122876
0.0229649
0.00857297
0.015291
0.0281375
0.0133894
0.0265431
0.0079946
0.0284039
0.0236978
0.00742905
0.0200874
0.0295706
0.00783954
0.0233068
0.0153444
0.00211333
0.000264974
0.00215338
0.0297046
0.0195196
0.0222519
0.0169813
0.0166432
0.0298078
0.0323357
0.0312796
0.0237502
0.0308196
0.025187
0.0326072
0.0171575
0.0332233
0.0330124
0.0329898
0.0319413
0.0310775
0.00375941
0.0260913
0.0311382
0.0237907
0.0214775
0.0346507
0.0311882
0.0157092
0.0323773
0.00329771
0.0294305
0.0307445
0.021527
0.0205261
0.0278525
0.0291242
0.0277481
0.00140046
0.0324359
0.0244774
0.0092746
0.000524134
0.0321118
0.0099064
0.00417059
0.00271337
0.000384516
0.0230096
0.00735887
0.038648
0.0117544
0.0276403
0.0148377
0.0112636
0.0161749
0.0270295
0.0115908
0.0320199
0.0266675
0.0157048
0.0300041
0.0268026
0.0230382
0.0359697
0.0243064
0.0308838
0.0198863
0.033323
0.0197759
0.0196423
0.0041782
0.0249753
0.0236675
0.0251174
0.0288913
0.0211777
0.0334291
0.0250182
0.0243128
0.00343074
0.00752652
0.0335823
0.0176947
0.00659608
0.0178413
0.0443355
0.0107874
0.0346958
0.00809879
0.00157825
0.0133603
0.0138801
0.0123481
0.0229712
0.00714349
0.0214158
0.0267939
0.0191683
0.00643896
0.0069865
0.0314174
0.00200544
0.0234041
0.021773
0.0144829
0.029328
0.0349951
0.0152562
0.0292904
0.0274092
0.0242817
0.000498332
0.0236701
0.0264455
0.0312541
0.0319437
0.0360958
0.0334935
0.00419861
0.00279487
0.033812
0.00408717
0.0303376
0.0324772
0.0301165
0.00656375
0.0370828
0.0142908
0.0268931
0.0322923
0.0291506
0.0300191
0.0288282
0.0274478
0.0251189
0.0147809
0.0275548
0.0208356
0.00244619
0.0136797
0.0301434
0.0274216
0.0355575
0.0375166
0.00193533
0.0195931
0.00321957
0.00613486
0.031567
0.00606833
0.00518454
0.0331611
0.00766901
0.0129294
0.0191278
0.0319717
0.000351719
0.0312868
0.0269364
0.0148919
0.0307792
0.032736
0.0169772
0.0308434
0.0249953
0.0331631
0.0307696
0.0302715
0.0223547
0.0343149
0.0238997
0.00699223
0.00736129
0.0333248
0.0248157
0.0304652
0.0370153
0.027403
0.0292282
0.0364906
0.00733775
0.0331559
0.0323742
0.0332752
0.0182728
0.0479346
0.00564333
0.00944093
0.0147885
0.0136512
0.0359641
0.0108881
0.0264129
0.0209675
0.0218914
0.020479
0.00749594
0.0135066
0.00878518
0.031273
0.001494
0.0333033
0.0339172
0.0343789
0.016257
0.0285067
0.0426024
0.0264757
0.00240604
0.030468
0.0103129
0.0128536
0.0350377
0.0164573
0.0346003
0.0351833
0.0235407
0.00381288
0.0312093
0.0299948
0.0310863
0.0231461
0.0307262
0.030688
0.0296409
0.0261631
0.0269412
0.0277266
0.0278665
0.0229272
0.0213585
0.00213721
0.0319744
0.0193704
0.0207378
0.022631
0.0115423
0.00970209
0.0385377
0.0299714
0.0274457
0.0349347
0.0361283
0.0135925
0.00558955
0.00939251
0.0378075
0.0195062
0.0099885
0.0323136
0.00847614
0.0281646
0.0162052
0.0071499
0.00683624
0.0264607
0.01541
0.0289929
0.00120318
0.0255488
0.00270424
0.0276637
0.0158675
0.0231284
0.0237182
0.0224986
0.0291018
0.028211
0.0317802
0.00985375
0.0435128
0.041981
0.0368606
0.0253454
0.0250881
0.0195651
0.0265417
0.0296635
0.0311742
0.035636
0.000128862
0.0138947
0.0153654
0.0470921
0.0319137
0.00397985
0.0328409
0.00407797
0.0187642
0.0215261
0.0131921
0.00963068
0.0370481
0.0299735
0.0102517
0.0202297
0.0382441
0.0130715
0.00809219
0.000688658
0.0186879
0.00280008
0.034416
0.00815856
0.0365294
0.0434265
0.0111569
0.0304402
0.00041528
0.000442273
0.0106179
0.035265
0.0352316
0.0335838
0.029801
0.00225546
0.0229934
0.0493
0.0220547
0.0296399
0.0282639
0.0293622
0.029776
0.0235888
0.0326444
0.0288989
0.010197
0.00253071
0.00285227
0.00286038
0.0277257
0.030995
0.0173933
0.030942
0.00735196
0.00761637
0.00865516
0.0267058
0.0361329
0.0356546
0.0374279
0.021134
0.0105694
0.0328201
0.0100033
0.0265496
0.0288063
0.0298608
0.0162965
0.0327761
0.014873
0.0271656
0.0282097
0.026985
0.0142986
0.0202582
0.0501538
0.0126523
0.0032494
0.025735
0.0220257
0.0274597
0.0177776
0.0207033
0.022327
0.0238268
0.0197185
0.0287342
0.0416816
0.0213872
0.0322684
0.0149028
0.026454
0.0201741
0.0255223
0.0277291
0.0262031
0.0353511
0.0050635
0.0346965
0.0229564
0.00111422
0.0150898
0.0364017
0.0325789
0.0193015
0.0045997
0.0294423
0.0106911
0.0374338
0.0107389
0.0304795
0.0288317
0.0339779
0.0257348
0.0313167
0.0213871
0.00361851
0.028044
0.00325132
0.0340808
0.000340747
0.00115893
0.0071776
0.00262829
0.0233252
0.00124261
0.0377599
0.0380243
0.0319114
0.0328451
0.0357771
0.0358256
0.0346298
0.0351049
0.00984841
0.038208
0.0344993
0.00765404
0.0326921
0.040232
0.0225721
0.000138157
0.0314856
0.0342468
0.0294378
0.0274419
0.0309497
0.0368378
0.00352523
0.0324276
0.00161379
0.000886989
0.000118186
0.0282404
0.0199978
0.00874498
0.0164258
0.0321175
0.0472943
0.0225211
0.0293475
0.0301231
0.0366342
0.00296797
0.0497541
0.0337728
0.00985586
0.0240056
0.0116887
0.0252161
0.0310651
0.0118994
0.0333252
0.0259425
0.0141205
0.022141
0.0135864
0.0273787
0.0220251
0.0350878
0.036049
0.0103459
0.0187859
0.0227411
0.0222086
0.030102
0.0424485
0.0154092
0.0300044
0.0229257
0.015179
0.0194759
0.0382951
0.021522
0.0197942
-0.000127534
0.0406741
0.0398828
0.00130807
0.032832
0.00254116
0.0247177
0.0376022
0.00563605
0.0349164
0.0348588
0.0370771
0.035575
0.028576
0.0293754
0.0320955
0.00878293
0.030918
0.0107982
0.0029066
0.016429
0.00445606
0.0293268
0.0317981
0.0136109
0.0136036
0.0165913
0.0372046
0.00422995
0.0317666
0.0189794
0.0367307
0.0260242
0.0359331
0.0346334
0.0387378
0.0344082
0.00162304
0.0228907
0.0342532
0.0239035
0.0311524
0.0300495
0.00637985
0.03613
0.0273876
0.037853
0.00010427
0.0344495
0.00875054
0.0185805
0.0025076
0.0293382
0.0284375
0.0445148
0.0271811
0.00913195
0.0337003
0.0321693
0.000998847
0.000692743
0.0438791
0.0300748
0.0105222
0.048741
0.0120646
0.0190007
0.0328394
0.000446808
0.00382342
0.0497258
0.00961333
0.0143871
0.0142189
0.023412
0.0320968
0.0185603
0.0135234
0.0328324
0.0369282
0.0341629
0.0318697
0.0187733
0.0321386
0.0225725
0.0138771
0.0283224
0.0279051
0.0226431
0.025624
0.0186207
0.0174946
0.0324354
0.0333389
0.0337951
0.028156
0.0399813
0.0271769
0.0281991
0.0265163
0.0278274
0.0336374
0.0242024
0.00543874
0.0366114
0.0354641
0.033067
0.00566905
0.031534
0.0274359
0.0307385
0.0279839
0.0375533
0.0328619
0.00434714
0.0133195
0.0371488
0.0374651
0.0404584
0.00365855
0.0181087
0.0127347
0.0346095
0.0334795
0.0358873
0.0401293
0.0405064
0.0348017
0.0397569
0.0343119
0.0337656
0.0217113
0.0358556
0.0303691
0.0397681
0.0479678
0.0300903
0.028127
0.0496214
0.0248546
0.0177321
0.037042
0.0204288
0.0397313
0.00114907
0.0308859
0.019118
0.0457893
0.0297838
0.0283799
0.0378409
0.0182385
0.00122999
0.0167664
0.046099
0.000342584
-0.000151992
0.0304564
0.0119274
0.0128493
0.0126516
0.00909484
0.00772533
0.00862699
0.00699406
0.0136276
0.0353306
0.0395811
0.0040645
0.0356583
0.0316251
0.00320518
0.0299173
0.0365599
0.0370576
0.020924
0.025729
0.0197029
0.0362732
0.0204814
0.0316489
0.0281425
0.0208979
0.02908
0.0355319
0.0201493
0.0197569
0.0288442
0.0283345
0.0240081
0.0386708
0.0045733
0.0407035
0.0246895
0.0211985
0.0232932
0.036613
0.0160307
0.0123734
0.0367499
0.0325821
0.0334766
0.0357955
0.0456217
0.0413512
0.0369733
0.0333685
0.0364509
0.038373
0.0371492
0.0230594
0.03904
0.0373381
0.0108813
0.0333954
0.0247467
0.0389501
0.032328
0.0383624
0.0193134
0.0345165
0.0243867
0.0283767
0.0358905
0.0388202
0.01055
0.0316999
0.0252074
0.0243746
0.0257318
0.0397359
0.0324901
0.0343017
0.000717883
0.0291278
0.000111595
0.0341509
0.00291404
0.0467866
0.0118504
0.0242228
0.00956034
0.00921912
0.00830159
0.0314355
0.0342003
0.0235068
0.0240824
0.0313824
0.0214283
0.0359201
0.0368561
0.0267833
0.0404481
0.0350572
0.040684
0.0352386
0.0329174
0.0379051
0.0214159
0.0277257
0.028666
0.0227816
0.00517316
0.0382349
0.0375672
0.0444631
0.0116487
0.0351129
0.0312706
0.0124555
0.0284446
0.0347761
0.0303067
0.0396036
0.037614
0.0359047
0.039113
0.0290918
0.0373844
0.0389947
0.0377239
0.037025
0.030907
0.0346194
0.0273547
0.0400771
0.0335442
0.0497805
0.0490578
0.0323291
0.0396228
0.0317918
0.0312418
0.0304139
0.0259873
0.0366963
0.0325362
0.0351148
0.0367087
0.0401533
0.0353249
0.0300833
0.0335221
0.0335853
0.039173
0.0324583
0.0346583
0.0369028
0.0383066
0.00275882
0.0354063
0.00378431
0.00434892
0.00478807
0.00241364
0.0348759
0.00749102
0.000832341
0.0256238
0.0345934
0.0472702
0.0481082
0.0399748
0.0319652
0.0391517
0.0213229
0.0440259
0.0282943
0.0310715
0.033882
0.0366542
0.024011
0.0361848
0.037756
0.0274252
0.0293679
0.0376942
0.0296429
0.0434768
0.0379123
0.0420621
0.0130238
0.00237117
0.0350662
0.0347362
0.0341523
0.0422436
0.0358276
0.0430365
0.0359085
0.0386567
0.0226856
0.0401945
0.0290148
0.0387826
0.0307633
0.0392599
0.0403566
0.024591
0.0356591
0.026476
0.0369828
0.0263642
0.0373258
0.032443
0.0312133
0.0373163
0.0360473
0.0324726
0.0360102
0.0246976
0.0430925
0.0336478
0.0357352
0.0368963
0.0384452
0.0105184
0.0260167
0.0389395
0.00386148
0.00511436
0.0397386
0.0349085
0.000617788
0.0474237
0.0315566
0.0437214
0.034359
0.0299389
0.0299592
0.0413208
0.0345977
0.0296661
0.031231
0.0336648
0.034538
0.0342196
0.0444689
0.0379917
0.0381844
0.0256806
0.0257668
0.0402305
0.0324946
0.0380723
0.0380737
0.042965
0.0472566
0.045258
0.0301924
0.0402237
0.0317512
0.0373614
0.0365108
0.0312793
0.0143208
0.0396144
0.0477506
0.0388244
0.0298276
0.0343775
0.0298348
0.0491533
0.0275368
0.0353447
0.0299272
0.031332
0.0374636
0.0396059
0.0315862
0.0378958
0.0371543
0.0337091
0.0385061
0.0373753
0.0373404
0.0334317
0.0402118
0.0404355
0.0397252
0.0340767
0.0391976
0.0392928
0.0388932
0.0124281
0.0398264
0.0282634
0.0292158
0.0358772
0.042906
0.0285336
0.0347121
0.040275
0.0340432
0.0348294
0.0301123
0.0450923
0.0335657
0.0394655
0.028599
0.0286791
0.0345032
0.0399531
0.0284307
0.0339509
0.0336625
0.0392976
0.0399543
0.034009
0.03436
0.0428266
0.0427154
0.0351718
0.0422083
0.0413484
0.0372346
0.0424211
0.0173715
0.0422262
0.0399496
0.0392822
0.0396959
0.0379623
0.0396627
0.043833
0.035804
0.0394768
0.0315192
0.0361029
0.0324852
0.0372927
0.0372989
0.0451879
0.038002
0.0448985
0.0450287
0.0323222
0.0369044
0.0386879
0.0259646
0.0333432
0.0346
0.0346234
0.0440335
0.0383296
0.0299551
0.0341883
0.0279558
0.0408021
0.0284136
0.0297883
0.0340919
0.0348174
0.0353071
0.0394966
0.0389679
0.0395453
0.0328712
0.0289667
0.0310502
0.0387891