/*--------------------------------*- C++ -*----------------------------------*\
| =========                 |                                                 |
| \\      /  F ield         | OpenFOAM: The Open Source CFD Toolbox           |
|  \\    /   O peration     | Version:  2212                                  |
|   \\  /    A nd           | Website:  www.openfoam.com                      |
|    \\/     M anipulation  |                                                 |
\*---------------------------------------------------------------------------*/
FoamFile
{
    version     2.0;
    format      ascii;
    arch        "LSB;label=32;scalar=64";
    class       surfaceScalarField;
    location    "0.024";
    object      phi;
}
// * * * * * * * * * * * * * * * * * * * * * * * * * * * * * * * * * * * * * //

dimensions      [0 3 -1 0 0 0 0];

oriented        oriented;

internalField   nonuniform List<scalar> 
68568
(
-1.44557e-07
1.49502e-07
-2.82694e-08
2.33246e-08
1.3969e-07
-7.13111e-08
-7.43659e-08
5.98728e-09
1.6859e-07
-1.28974e-07
-5.75035e-08
1.78881e-08
-4.31594e-09
2.20214e-09
-1.61306e-07
1.63419e-07
-1.26778e-09
1.35172e-07
9.93096e-10
-1.34898e-07
1.33761e-07
-4.83462e-10
-1.22651e-07
-1.06265e-08
7.98397e-08
-8.51128e-08
1.24606e-07
-1.19332e-07
-3.7703e-08
-2.57322e-08
1.43275e-07
1.25304e-07
-1.49227e-08
-1.05655e-07
-4.72676e-09
1.43671e-07
5.11273e-08
-5.5109e-08
9.63724e-08
1.31752e-07
-5.95347e-08
-6.17517e-08
-1.93021e-07
1.83461e-07
-1.34847e-07
6.59828e-08
-5.50126e-09
1.75005e-07
-1.80532e-07
1.33223e-08
-7.79529e-09
-6.77343e-08
-4.96318e-08
1.16252e-07
1.11446e-09
1.22419e-07
8.44861e-08
-1.25462e-07
-8.14425e-08
-4.89349e-08
-7.5429e-08
1.10265e-07
1.40992e-08
1.08487e-07
-1.13367e-07
-4.40549e-08
1.07098e-07
-4.42677e-09
-6.01439e-10
-1.0207e-07
8.24911e-08
-1.48545e-07
7.45243e-08
-8.47013e-09
1.09192e-07
-4.95888e-10
-1.08641e-07
-5.58133e-11
-1.70794e-08
8.72506e-09
1.34555e-07
-1.262e-07
-4.40826e-08
1.82244e-07
-2.63565e-08
-1.11804e-07
-6.18638e-10
-3.52501e-10
-1.31125e-07
1.32096e-07
-7.24711e-08
-4.68835e-08
1.12726e-07
6.62881e-09
-9.38713e-08
-3.8335e-08
-1.23508e-08
-6.27218e-08
1.36936e-07
8.27699e-09
7.47748e-08
4.44836e-08
-2.85884e-08
-9.06699e-08
-6.55143e-08
-9.66474e-08
1.24459e-07
4.68555e-08
-1.15836e-07
3.46647e-09
1.4756e-07
-7.90137e-08
-1.38989e-07
7.04434e-08
-1.29459e-08
2.48215e-09
1.13607e-07
-1.03143e-07
1.51151e-07
-3.16453e-08
-1.07393e-08
-1.08767e-07
1.1598e-07
-8.91435e-08
-5.68412e-08
3.00046e-08
-2.73941e-10
1.06264e-07
-1.0599e-07
5.33722e-14
1.17496e-07
8.26468e-08
-8.28519e-08
6.43185e-10
-4.38048e-10
4.13935e-08
-1.5385e-07
8.96146e-08
2.28414e-08
-1.56937e-07
1.36363e-07
6.19673e-08
-7.20164e-08
-1.6698e-10
-2.87762e-10
-7.9439e-10
1.10984e-07
-9.96877e-10
1.0933e-07
-1.09098e-07
-4.40023e-10
2.08446e-10
-2.58249e-08
-1.53105e-07
1.15501e-07
1.87117e-07
-1.42537e-07
-1.60081e-07
-5.95189e-08
-1.00022e-07
2.8196e-07
-1.41182e-07
1.58522e-07
-1.33175e-07
1.15835e-07
-1.20527e-07
6.41131e-08
-5.3383e-09
1.11113e-07
-1.0846e-07
-3.42872e-09
7.76279e-10
9.50229e-08
2.44326e-08
1.13339e-08
-1.30789e-07
2.06138e-09
-1.47898e-07
1.43302e-07
3.31736e-08
-2.85769e-08
-8.05852e-09
-9.11709e-08
9.88816e-08
3.47821e-10
-1.71185e-07
1.33222e-07
1.773e-07
-1.3769e-07
-3.61613e-10
-2.65164e-10
1.89408e-09
-1.55596e-09
1.05195e-07
-1.05533e-07
3.82886e-08
-1.11558e-07
-2.15978e-09
8.94411e-08
-9.56342e-08
3.65011e-09
2.543e-09
-8.29763e-08
1.37927e-07
-6.08673e-08
5.91646e-09
1.42655e-07
-7.39622e-08
-7.2107e-08
3.41415e-09
8.85571e-08
-8.87382e-08
-4.37624e-10
-1.08327e-07
-1.7363e-09
1.12266e-07
7.32421e-08
6.91341e-08
-7.44343e-09
-1.34933e-07
-5.76335e-09
1.31671e-07
-1.26644e-07
7.36011e-10
8.62886e-08
-1.45961e-07
-3.04901e-09
1.04975e-07
-1.75709e-08
3.27152e-08
-1.20119e-07
1.44943e-07
-2.2557e-08
-1.64222e-07
4.18357e-08
3.95122e-08
7.91251e-08
-1.15392e-08
6.25993e-08
-1.2396e-07
6.80629e-08
-6.70185e-09
1.31001e-07
-1.3216e-07
-1.08806e-10
-9.73309e-08
1.38785e-07
-3.07285e-08
-1.0726e-08
-1.98914e-07
-1.46261e-07
2.79307e-07
6.58674e-08
-1.12172e-07
1.7738e-09
1.15454e-07
-6.43046e-09
1.31362e-07
-1.39342e-07
-5.21526e-08
6.01324e-08
-1.22009e-07
6.30214e-08
6.48917e-08
-5.90387e-09
-6.57583e-08
-4.93273e-08
-4.72282e-08
-9.82727e-08
9.86068e-08
-3.49014e-10
1.49234e-11
3.87851e-08
1.68802e-07
-6.49324e-08
1.01886e-07
-6.10731e-08
4.86286e-08
-7.10594e-08
-7.80846e-08
1.45213e-07
3.93063e-09
-5.34216e-10
-2.12309e-07
-6.57751e-10
2.13501e-07
7.22225e-08
-4.51947e-08
8.2302e-08
-1.15064e-10
6.31631e-08
-6.3068e-08
1.99631e-11
-1.84405e-08
1.35774e-07
6.48319e-08
-1.82166e-07
1.65326e-07
-8.35312e-08
-8.67372e-08
4.94207e-09
1.16305e-07
3.66827e-08
-3.51599e-08
-1.17828e-07
1.58038e-07
-7.45289e-08
7.38829e-08
-1.57392e-07
3.40202e-08
1.27447e-08
1.11273e-07
-8.60678e-08
8.19569e-08
-1.57195e-07
1.21224e-07
7.97466e-10
-1.18117e-07
-3.90461e-09
-3.83515e-08
-2.7121e-07
1.89035e-07
8.1629e-08
8.34395e-08
-6.54669e-09
-5.16872e-10
4.91855e-10
9.07803e-08
-9.07553e-08
-1.20168e-07
1.20094e-07
-2.78196e-10
-5.83409e-08
1.16525e-07
5.92908e-09
7.03228e-09
8.45415e-08
-4.73795e-09
-8.68358e-08
-1.24326e-07
5.48595e-08
8.68061e-08
-1.73399e-08
-4.27842e-08
-7.84537e-08
-9.88732e-09
-8.04604e-08
1.56659e-07
5.43013e-09
7.02637e-08
7.33221e-08
-1.38679e-07
-4.90712e-09
1.10814e-07
7.20516e-10
-1.11437e-07
-9.81281e-11
-6.12143e-09
-1.63805e-07
-1.32897e-08
1.71953e-07
-4.43742e-09
1.13947e-07
-1.16276e-07
5.59063e-08
-7.33548e-09
9.49451e-08
-4.5423e-10
-9.34072e-08
-1.08368e-09
1.18671e-07
-7.96726e-10
1.31763e-07
-4.46963e-08
7.82593e-08
9.1016e-11
-1.0089e-07
-3.32381e-09
1.08534e-07
-4.32012e-09
8.86137e-08
-4.87511e-08
-8.78086e-08
1.443e-10
8.7581e-08
8.33078e-11
-3.40239e-08
-1.322e-07
1.41171e-07
2.50525e-08
-1.90827e-09
1.26796e-07
-1.24523e-07
-3.64622e-10
-8.54493e-08
-3.55737e-08
1.21601e-07
-5.78138e-10
-4.17249e-09
2.07572e-09
-1.06231e-07
-1.58948e-07
8.52705e-08
7.90072e-08
-5.32996e-09
2.32204e-10
-9.81969e-08
9.81631e-08
-1.98501e-10
1.33598e-07
-6.49883e-10
-1.32078e-10
-1.0715e-07
2.69471e-10
1.07013e-07
-7.04466e-08
1.99751e-08
5.95854e-08
1.2763e-07
-6.98572e-08
4.82683e-09
1.36119e-07
-1.35246e-07
-1.38188e-08
-1.20741e-07
1.36119e-07
1.85788e-08
-3.39569e-08
7.00865e-08
-7.13073e-08
1.46164e-07
3.79834e-09
1.09376e-07
1.4695e-07
-1.28063e-09
-1.47577e-07
6.62526e-08
-1.38413e-07
-4.1612e-09
7.63216e-08
1.39074e-07
-7.67513e-08
7.94069e-09
9.7174e-08
-9.5112e-08
-1.09272e-07
5.61886e-08
-2.97686e-08
-1.45768e-07
1.3901e-07
-1.85286e-08
2.52867e-08
1.58672e-07
4.40735e-08
-4.62899e-08
-1.55854e-07
-7.18199e-08
-2.91298e-08
7.83659e-08
2.25838e-08
-1.26801e-07
6.66345e-08
-5.27674e-08
1.12934e-07
-1.47228e-07
-3.22916e-09
1.53367e-07
-2.90971e-09
-1.054e-07
2.00185e-08
-6.18468e-08
-1.5888e-07
-6.20184e-09
9.21744e-08
-1.40177e-09
-1.0933e-07
-4.76218e-10
-1.05672e-07
1.35971e-07
-7.1845e-08
5.90342e-09
1.51483e-07
-8.08335e-08
-7.7168e-08
6.51838e-09
-1.30142e-07
1.7484e-07
-4.49355e-08
2.38223e-10
8.01319e-08
-8.03922e-08
-1.29882e-07
9.23089e-08
7.19244e-09
-2.3273e-09
6.25317e-10
1.01895e-07
-1.01388e-07
-1.13253e-09
1.84099e-07
-4.6719e-08
-1.00698e-07
-1.0534e-07
1.02185e-07
1.11867e-07
-1.07202e-07
-2.58913e-09
-1.69418e-09
9.91981e-08
-9.77874e-08
2.83515e-10
-9.21863e-09
-1.31224e-07
1.28122e-07
1.23199e-08
-1.35327e-07
1.51875e-07
-9.67213e-09
-6.87564e-09
1.17916e-07
-3.64288e-08
-8.22096e-08
9.65334e-09
-7.63258e-09
-9.44936e-08
9.40677e-08
3.18062e-08
-6.39787e-09
-1.30808e-07
-1.96728e-08
1.07481e-07
-8.16185e-08
-6.18983e-09
1.54791e-07
-6.40044e-09
-1.32016e-08
-1.35189e-07
1.51523e-07
6.87618e-11
-2.42689e-09
-1.49164e-07
1.32437e-07
-1.38428e-09
-5.21152e-11
1.25769e-07
-1.25994e-07
1.92061e-10
3.3098e-11
-1.21323e-07
-7.95437e-08
1.22413e-07
2.04906e-08
-1.65057e-07
-1.07843e-07
1.07745e-07
-1.83863e-11
1.16333e-10
-1.30188e-07
-6.99482e-09
1.85576e-09
-9.92346e-08
-7.15995e-11
9.92971e-08
9.09039e-12
-1.18881e-07
-4.30014e-10
1.19348e-07
-3.72606e-11
-1.10319e-08
1.20911e-07
-1.00462e-07
-7.87632e-09
-9.97881e-08
9.95457e-08
1.10335e-10
2.48257e-08
2.76665e-08
8.12035e-08
-1.32934e-07
7.05594e-08
-7.07952e-08
1.39496e-07
-1.3926e-07
1.00351e-07
-7.90607e-08
-2.35396e-08
2.24906e-09
8.49355e-08
1.58674e-08
-1.04047e-07
5.48968e-09
5.57299e-09
-1.05423e-07
1.19488e-07
-1.96384e-08
-4.86885e-10
9.95035e-08
-9.86504e-08
-3.66161e-10
-1.3666e-07
-8.36109e-09
1.59586e-07
1.99519e-07
-8.51927e-08
1.80166e-07
1.49135e-07
-7.45753e-08
5.5718e-09
-3.77916e-08
2.49138e-08
-1.05228e-07
1.2027e-07
8.55255e-08
9.06412e-08
-7.36441e-09
9.02397e-08
7.0446e-08
-1.55118e-07
-5.56798e-09
7.94997e-08
7.69084e-08
-7.27276e-09
1.1805e-07
-7.28251e-08
8.05448e-08
7.17127e-08
-1.21504e-07
5.76542e-08
-7.8625e-09
5.75751e-10
-9.60017e-08
-1.22145e-09
2.40728e-10
-2.99072e-07
1.78213e-07
1.61459e-07
-1.10326e-07
2.62926e-08
9.04109e-09
4.1879e-08
4.37518e-08
-9.46718e-08
-1.23868e-07
1.82503e-09
1.23148e-07
-1.10513e-09
-9.54342e-08
9.50365e-08
-1.59941e-11
4.13705e-10
1.23722e-07
-1.60386e-07
1.89724e-07
-1.53061e-07
1.48305e-08
-1.4293e-09
1.21771e-07
-3.05965e-08
7.18344e-09
-7.0986e-08
9.43991e-08
-6.98437e-08
1.35176e-07
5.22744e-09
-1.41291e-07
7.3089e-08
7.3367e-08
-5.16527e-09
-1.06514e-07
-2.41831e-08
1.11025e-07
4.2095e-10
7.39888e-08
-3.75943e-11
-7.43722e-08
1.40918e-07
-6.44482e-08
7.46808e-08
1.25151e-09
-1.13511e-10
2.24524e-11
-9.36615e-08
1.71308e-07
-4.58032e-08
-2.81939e-08
-9.7311e-08
1.19966e-08
2.85515e-08
-1.22945e-07
8.55193e-08
-3.30488e-08
2.18758e-08
1.66344e-07
3.02829e-08
1.60512e-07
-1.79081e-07
-6.09986e-08
-6.52416e-08
5.49923e-09
1.26953e-07
6.15441e-09
-6.90734e-08
-6.9644e-08
1.31575e-07
7.14195e-09
-2.28921e-09
9.9963e-08
-1.35511e-07
-1.65439e-10
6.77909e-08
-6.82269e-09
-6.55709e-10
-1.29931e-07
9.06712e-11
1.30496e-07
-1.29473e-07
1.56566e-07
-3.85455e-08
1.06799e-08
-9.04895e-09
4.9028e-08
1.06971e-07
-1.23821e-07
7.21077e-08
-2.57783e-08
7.74913e-08
-1.35603e-07
9.13945e-08
-1.2458e-07
1.22977e-07
3.22797e-10
8.92583e-08
2.13208e-08
-1.60311e-07
-2.08867e-08
1.59877e-07
-1.76255e-07
9.66368e-08
-1.32691e-07
-1.63623e-09
1.59528e-07
2.35594e-08
6.45375e-08
-9.25564e-08
4.45953e-09
1.01277e-07
-6.86409e-08
-2.07025e-10
-9.66338e-08
2.70468e-10
-2.2714e-07
2.27046e-07
-5.63683e-10
-9.22647e-08
-9.62285e-08
-9.03145e-08
9.79707e-08
-1.07444e-07
8.14516e-08
-1.0327e-07
1.64466e-08
5.37161e-09
1.21483e-07
-8.76068e-08
-8.96256e-09
-1.49423e-07
-1.10652e-08
2.04439e-08
1.40045e-07
-2.98465e-07
-3.662e-10
-1.27147e-07
1.26431e-07
1.99372e-10
-9.03625e-08
-7.2694e-11
1.20683e-10
-1.36946e-08
-9.10601e-08
1.46102e-07
-4.13476e-08
1.04227e-07
5.20229e-09
4.20934e-08
-1.30768e-07
1.29805e-07
-3.46357e-09
-5.95345e-08
1.41737e-07
-9.56634e-08
3.01957e-10
-1.23823e-07
-3.46834e-10
8.92073e-08
-9.09265e-08
1.63267e-10
-6.43941e-08
-6.43094e-08
1.20979e-07
7.72436e-09
1.09549e-07
1.71806e-08
-9.4077e-08
-3.26528e-08
1.22724e-08
1.48174e-07
-1.59465e-07
-3.35705e-09
-1.07309e-07
-1.8722e-08
1.23333e-07
-1.83822e-11
-1.23474e-07
1.59567e-10
2.3249e-08
7.29347e-09
5.27396e-08
-8.32821e-08
-1.37809e-07
7.3762e-08
-5.02589e-09
-1.11018e-07
1.0645e-07
-7.08004e-09
-3.06077e-10
1.18013e-07
3.42936e-10
-7.81622e-08
-7.00638e-08
1.4127e-07
6.95608e-09
1.25905e-07
-6.74138e-08
-6.50171e-08
6.52557e-09
1.25424e-07
-2.05421e-09
-3.75436e-11
-9.8393e-08
-8.84482e-08
9.64787e-08
-1.22399e-07
-4.52503e-08
-6.87598e-09
1.74984e-07
-1.02599e-07
2.86078e-08
-1.24922e-07
8.61339e-11
-1.0206e-07
5.00808e-10
-6.2259e-10
1.30749e-07
2.48079e-08
-2.65642e-08
-1.28992e-07
4.47434e-08
-1.25487e-07
-9.73961e-11
-1.55912e-12
3.75721e-08
-1.87941e-07
-7.6116e-08
1.28069e-07
8.6832e-08
1.99169e-08
-1.4148e-07
-1.77245e-08
1.39288e-07
-7.93706e-08
6.43201e-09
1.29105e-07
-1.28245e-07
8.92432e-08
4.03937e-08
-1.39193e-09
-4.62957e-10
9.75752e-11
-9.40842e-08
6.46711e-08
-4.61076e-09
-1.37183e-09
-2.68882e-09
-2.35283e-09
9.22629e-08
-8.72212e-08
7.97795e-08
1.02177e-07
-1.00384e-07
-8.15719e-08
1.44078e-07
-1.60906e-07
2.84205e-10
2.36675e-10
1.52492e-07
-9.81649e-09
-1.33951e-07
-4.11034e-08
1.48146e-07
1.08735e-08
1.15255e-07
-1.08755e-07
-5.52934e-09
-9.71449e-10
-8.62492e-10
1.1064e-07
1.59755e-07
-5.54944e-08
-2.37541e-09
9.08587e-08
-8.06664e-08
-5.16904e-10
3.96796e-10
1.36239e-07
-1.46742e-07
4.53648e-09
1.33938e-07
6.67984e-09
-1.18415e-08
1.27999e-07
-1.60128e-07
3.41315e-08
1.02715e-09
8.75882e-08
-8.62947e-10
-8.77524e-08
-1.14657e-07
1.14778e-07
-9.89844e-11
1.07908e-09
-2.96632e-10
-1.09062e-07
1.08234e-07
-3.39314e-11
-1.07249e-07
-2.44981e-10
1.84958e-10
6.96328e-08
-9.9578e-08
-7.45136e-08
1.04459e-07
3.85234e-11
-1.12675e-07
1.12787e-07
-1.49805e-10
-4.65077e-08
1.13097e-07
-3.76663e-08
-1.88637e-08
-1.37045e-07
7.13994e-08
-6.17444e-09
2.73397e-08
-1.54614e-08
1.03377e-07
-1.32117e-07
6.34762e-08
6.14015e-08
7.2392e-09
-1.53742e-07
-1.07258e-07
1.08359e-07
-1.22593e-07
-4.18465e-08
5.60806e-08
1.26205e-07
-1.26922e-07
2.47063e-10
4.69651e-10
-1.62422e-09
-1.78212e-07
7.23907e-11
1.79764e-07
-1.02079e-07
2.52733e-11
1.02035e-07
-1.2392e-07
4.23353e-11
4.04422e-10
7.03792e-08
-1.2457e-07
-6.80748e-09
1.71995e-10
-1.2595e-07
-2.16196e-10
7.44622e-08
7.43896e-08
-5.55002e-09
-7.17902e-08
-7.21269e-08
1.37618e-07
6.29945e-09
-1.13928e-07
9.52349e-10
1.12847e-07
1.29053e-10
1.20695e-07
2.97818e-08
1.07827e-07
-1.54479e-08
1.05223e-07
-5.47277e-09
-9.65352e-08
4.54954e-08
4.38286e-08
7.21113e-09
6.6009e-08
1.24669e-07
-7.23398e-08
-1.14624e-07
7.13031e-08
-6.93089e-08
-1.27529e-07
-1.02533e-07
1.12536e-07
1.17525e-07
1.05915e-07
-1.13279e-10
1.12308e-07
-1.13588e-07
1.39275e-09
-1.12275e-10
-1.27384e-07
-1.25435e-07
8.23466e-10
8.82928e-11
1.64899e-08
3.94875e-08
-1.58531e-07
1.48914e-08
-4.16074e-08
1.90228e-07
1.29981e-07
-8.43633e-08
-5.0674e-08
4.76433e-09
1.8633e-08
-2.04628e-08
1.28883e-07
-3.21001e-08
-7.63206e-08
1.03423e-07
-6.33807e-10
-1.02537e-07
-2.52237e-10
-3.98236e-08
-1.40532e-07
2.78667e-07
-9.83121e-08
1.01597e-07
-7.71262e-08
-9.11709e-10
7.35376e-11
9.9702e-08
-2.72092e-10
7.11273e-08
-7.15267e-08
1.19645e-07
-1.55954e-07
-1.26263e-07
7.68761e-08
1.22476e-07
-2.23075e-09
-2.95261e-08
-7.92192e-08
6.90266e-08
8.23721e-08
8.35679e-09
1.27835e-07
-1.21743e-07
1.64952e-09
1.4416e-07
-7.76634e-08
6.8704e-09
1.14625e-07
-1.50363e-07
1.30258e-07
-8.34779e-08
-3.18026e-08
-1.37293e-08
1.92954e-09
1.00628e-07
-1.11776e-07
6.63439e-08
-1.25452e-07
-5.28597e-09
1.45344e-07
1.22146e-08
-4.22677e-08
1.25388e-07
-8.28118e-08
-2.45143e-09
-2.5043e-08
1.35787e-07
-1.52122e-07
4.13783e-08
1.12735e-07
2.01715e-08
-5.37809e-08
-1.01111e-09
-1.25895e-07
1.25427e-07
-8.72174e-10
-2.89557e-08
2.20533e-08
-9.42539e-08
1.01156e-07
7.35038e-08
-1.38063e-07
-5.08477e-09
-1.31787e-07
1.32145e-07
-1.86849e-10
-7.45031e-08
1.53645e-07
-1.18966e-07
-7.04768e-08
-7.78832e-08
1.61603e-08
-9.78693e-08
-5.80687e-11
2.07703e-07
3.25422e-10
-1.07442e-07
-1.03759e-07
-7.1745e-08
1.28885e-07
2.22168e-07
-2.29252e-10
-8.67834e-08
3.03673e-11
8.69822e-08
3.13803e-08
1.09953e-07
-6.88614e-10
1.45322e-07
6.01605e-09
9.38298e-08
5.53434e-08
2.70186e-09
7.1566e-08
-1.37888e-07
-5.46825e-09
-7.09702e-08
-8.01432e-08
1.4217e-07
8.94376e-09
-8.82262e-08
-4.22763e-09
-4.08138e-09
-2.93072e-08
-1.22894e-07
1.10242e-07
-8.35334e-11
-1.1982e-07
-3.20992e-09
1.17266e-07
-8.7012e-08
-1.32259e-07
9.42991e-08
1.24972e-07
-1.09083e-07
3.78763e-08
7.4374e-08
-3.1671e-09
6.85046e-08
6.83688e-08
-1.29907e-07
-6.96646e-09
-6.96986e-08
-6.70987e-08
1.30562e-07
6.23529e-09
5.03316e-08
4.67813e-08
-1.07051e-07
9.93854e-09
-6.53443e-08
1.0889e-07
-3.54578e-08
-8.08832e-09
1.03081e-07
-1.03484e-07
-2.52681e-10
-9.14044e-08
5.36356e-10
7.95317e-08
1.02841e-07
-2.74041e-08
-1.54969e-07
-3.02909e-08
8.61963e-08
3.73551e-08
-9.32605e-08
-9.55239e-08
3.95107e-11
9.7073e-08
-1.58858e-09
-7.16523e-08
-4.12151e-08
9.24046e-08
1.20809e-07
-3.34243e-09
6.83354e-08
-1.2718e-07
6.38727e-08
-5.0284e-09
-5.39681e-08
3.66965e-08
-1.13686e-07
1.13006e-08
1.30186e-07
-1.0303e-07
-3.80989e-08
1.06306e-07
7.92626e-08
-7.21415e-08
7.25979e-10
-1.19514e-07
-9.3237e-11
5.03335e-08
-3.76065e-08
1.00799e-07
-1.14637e-07
5.51223e-08
5.22688e-08
7.24623e-09
7.18883e-08
-4.83579e-09
3.81957e-08
6.1891e-08
7.39452e-09
8.89533e-09
1.23651e-07
-1.007e-08
-5.89233e-09
-8.029e-08
7.83485e-08
1.30825e-07
-7.26297e-08
-1.52665e-07
1.53188e-07
1.59574e-07
5.71033e-08
-5.43502e-08
-1.62327e-07
1.41314e-08
-1.26118e-07
1.35236e-07
-7.66479e-08
-7.03126e-08
1.40334e-07
6.62707e-09
-4.39233e-08
-1.0581e-07
1.75316e-09
6.64945e-08
-6.63952e-09
1.26783e-07
-5.21044e-10
-5.70893e-11
2.17126e-08
-8.36568e-08
8.92838e-08
1.77686e-10
1.82951e-10
-1.32147e-07
-1.85251e-09
8.67037e-08
-8.46587e-08
1.12043e-08
-8.19443e-08
1.40021e-07
-6.92811e-08
-2.7137e-08
-1.31432e-07
1.13627e-09
1.57433e-07
9.04412e-08
-1.74214e-07
6.8267e-08
1.55059e-08
-1.19942e-07
8.80457e-08
-9.5251e-08
9.81142e-08
-5.69434e-10
-9.71565e-08
-3.88261e-10
-4.47121e-08
-1.25712e-07
4.50503e-08
1.25374e-07
-7.12003e-08
-1.19608e-07
1.45607e-07
4.52012e-08
-2.82734e-09
-1.39574e-07
1.40118e-07
2.28286e-09
-1.22378e-07
1.22278e-07
-1.52429e-09
-1.40359e-07
1.24001e-07
-6.24493e-08
1.34108e-07
6.939e-08
-5.74698e-09
7.49247e-08
-1.34141e-07
-6.22885e-08
-1.23453e-07
8.538e-08
-9.97364e-08
-1.33319e-08
1.38215e-07
-8.54547e-08
-3.41625e-08
1.17945e-07
-1.15869e-07
-3.30786e-09
1.23234e-09
-9.52973e-08
-2.36195e-09
3.9977e-09
2.35712e-10
-1.4654e-07
1.43477e-07
-8.85674e-08
-4.60894e-10
8.02175e-10
-9.0364e-08
7.59706e-08
1.48737e-08
-4.8028e-10
-5.41229e-08
-1.29893e-07
1.74662e-07
9.35355e-09
1.12934e-07
-5.39858e-10
5.52825e-08
4.68716e-08
-1.11091e-07
8.93728e-09
-1.06808e-07
-5.62163e-10
1.07095e-07
2.76116e-10
-1.04096e-07
1.47958e-08
-2.4288e-08
6.15232e-08
-1.18664e-07
5.00509e-08
7.09015e-09
-4.54857e-09
-9.20427e-08
4.32658e-09
1.40192e-09
-1.3074e-07
1.80948e-09
5.23943e-08
7.26328e-08
-1.25507e-07
2.07648e-08
9.30415e-08
2.00859e-08
1.24711e-07
-1.25271e-07
5.80848e-10
-2.12198e-11
-2.01152e-07
1.89745e-07
8.38015e-08
-7.23944e-08
5.54141e-08
-1.43034e-07
1.09803e-07
-2.21828e-08
7.28831e-08
-6.60782e-09
-6.58122e-10
3.40046e-11
5.65436e-08
-5.98606e-08
-1.13273e-07
1.60579e-07
-1.32755e-07
1.10882e-07
-1.4704e-08
6.2829e-10
-1.47391e-07
1.46836e-07
1.26685e-07
-1.54379e-07
-1.26185e-09
-8.52101e-08
-8.10908e-08
1.59657e-07
6.64352e-09
9.24975e-08
-1.29216e-11
-9.25131e-08
2.8519e-11
-1.4424e-07
7.72356e-08
7.16572e-08
-4.65242e-09
-1.94818e-07
1.2063e-07
-1.34911e-07
2.09098e-07
-1.87709e-07
2.47697e-08
-4.46416e-08
-1.10059e-07
-1.59754e-07
9.77879e-08
3.69229e-08
-1.42609e-08
-1.2531e-07
1.36654e-07
2.91691e-09
-3.1958e-09
-1.0879e-07
-9.33747e-09
1.17536e-07
-1.05732e-07
1.09515e-07
-3.30952e-08
1.65527e-07
9.85381e-08
1.54249e-07
-1.26204e-07
-1.19726e-07
4.52597e-10
1.16645e-07
-1.17171e-07
7.34468e-11
1.00705e-07
-1.09044e-07
3.79031e-09
-7.8233e-08
-6.67488e-10
6.80259e-08
1.02439e-07
-4.36812e-08
6.27138e-08
-1.20534e-07
-4.62909e-09
-1.59736e-10
1.13458e-07
-1.1342e-07
1.22305e-10
-1.17467e-07
-1.46727e-10
1.18398e-07
-7.85009e-10
-1.19284e-07
4.36256e-08
-3.30961e-08
-1.16657e-08
9.77698e-08
7.85794e-08
-1.01584e-09
-1.75333e-07
2.74999e-09
-1.59766e-10
-1.70387e-08
8.11046e-08
-1.45336e-07
8.12703e-08
-1.25397e-07
1.27261e-07
6.55916e-08
-6.15027e-09
2.70332e-08
-1.30523e-07
-3.69035e-08
1.40393e-07
4.07965e-08
1.20965e-08
3.52316e-08
-8.81246e-08
6.92263e-08
7.51225e-08
-1.38183e-07
-6.16552e-09
-1.0356e-07
1.01801e-07
1.7579e-09
1.2831e-12
-6.81246e-08
7.38525e-09
5.56484e-08
-5.36144e-08
1.25301e-07
-1.27335e-07
-1.04661e-07
2.20941e-07
-4.57892e-08
-7.04911e-08
8.59125e-08
-7.24018e-08
-7.5084e-08
6.15734e-08
6.82286e-08
-5.60173e-08
-1.36678e-07
5.33682e-08
8.80688e-09
5.81548e-08
8.0152e-08
7.55442e-08
7.71455e-08
-1.46484e-07
-6.20534e-09
1.34986e-07
8.05864e-09
-6.16965e-09
-1.36875e-07
1.02916e-07
8.51151e-10
-3.44629e-10
9.71686e-08
-9.88636e-08
2.28714e-09
-5.92146e-10
-6.60669e-08
-7.79527e-08
1.36945e-07
7.07433e-09
-1.2124e-07
1.54159e-09
4.14452e-10
-1.07122e-07
-3.8813e-12
3.17458e-10
1.13443e-08
1.23633e-07
1.12014e-07
1.94504e-09
-1.02563e-09
1.14658e-10
-1.03576e-07
1.029e-07
9.78408e-08
1.74388e-08
2.66538e-09
-1.17456e-08
3.63082e-08
-1.20774e-07
9.62112e-08
1.2594e-07
-1.25754e-07
-6.52847e-11
-1.20667e-10
-2.98693e-08
-1.19056e-07
1.73695e-07
-1.19974e-07
-1.93562e-08
1.4433e-07
-4.99939e-09
1.55099e-07
-1.31785e-07
-2.27803e-08
-2.05264e-08
1.29219e-07
1.26824e-07
-1.27635e-07
4.32728e-10
3.79092e-10
1.51516e-07
-4.66032e-08
-1.48955e-07
4.4042e-08
1.25134e-07
-1.25362e-07
1.48442e-07
-1.48214e-07
9.02901e-09
-1.23913e-08
-9.90406e-08
1.02403e-07
2.70013e-08
-1.03463e-07
-4.39053e-08
1.20367e-07
8.72172e-08
7.93854e-08
-1.59555e-07
-7.04757e-09
2.05264e-07
-2.1697e-07
-7.70499e-08
-1.46107e-07
1.03389e-07
-1.31116e-08
1.26387e-08
-1.87079e-07
1.62234e-07
-8.6284e-08
1.34453e-07
-2.28858e-07
1.8069e-07
8.07514e-08
-1.60807e-07
-6.22857e-09
2.05644e-08
9.00871e-08
-1.55783e-08
-9.50732e-08
-1.45276e-09
1.29254e-07
-1.42337e-08
-1.10782e-07
-5.94438e-08
1.54952e-07
-1.08356e-07
1.28478e-08
-2.76472e-08
8.00927e-08
-4.49569e-08
-7.48858e-09
3.39612e-10
-1.00608e-07
1.00662e-07
-3.93672e-10
2.63584e-09
1.25809e-07
-1.27326e-07
-1.11879e-09
-7.73256e-08
-1.27202e-07
1.4021e-07
6.98378e-08
-2.05782e-08
1.21952e-07
2.81711e-09
-4.82032e-08
-4.46773e-08
1.27528e-07
-2.33288e-07
2.49462e-08
-1.53486e-07
1.21315e-07
-7.24898e-08
1.24117e-07
-1.21039e-07
-4.41735e-10
-9.84493e-08
1.55778e-09
-2.3263e-09
9.92178e-08
6.23117e-08
-1.91306e-07
-1.46849e-07
-1.43447e-10
1.27442e-07
-1.27124e-07
-1.74446e-10
-1.13502e-07
-4.01088e-08
1.45605e-07
5.67798e-09
-9.19731e-09
1.11354e-07
-9.96744e-08
-1.13017e-08
1.45464e-07
-1.1778e-07
3.7518e-10
-6.21449e-11
6.45587e-08
-1.53909e-07
8.34895e-08
5.86067e-09
-1.50051e-09
-1.1376e-07
-1.5116e-09
1.28743e-07
6.07478e-09
-1.06011e-07
5.39358e-08
5.02182e-08
1.85704e-09
-1.06989e-07
2.95216e-08
1.45696e-07
1.07698e-10
1.36687e-07
-6.7129e-10
-1.36123e-07
6.95769e-09
1.20682e-07
-2.57083e-08
-1.01931e-07
1.44401e-07
-1.646e-07
8.56931e-08
-6.5494e-08
4.61244e-08
1.15986e-07
-5.68375e-08
-6.75421e-09
8.31963e-08
9.04187e-08
-1.61472e-07
-1.42156e-08
-6.57492e-09
1.0991e-07
-1.32465e-07
1.16923e-07
2.68196e-10
-1.17285e-07
9.33478e-11
7.13443e-09
1.00912e-07
-3.81979e-09
7.94987e-08
-1.97877e-07
3.13661e-08
-1.33292e-07
2.43437e-09
-7.53223e-08
-6.42749e-08
1.32812e-07
6.78498e-09
-1.08242e-07
-5.00824e-08
3.35548e-08
1.2477e-07
-1.19911e-07
-6.44137e-10
-6.84649e-10
-7.02412e-08
1.48556e-07
-8.42435e-08
5.92857e-09
7.56435e-08
-1.49831e-07
7.76146e-08
-3.42699e-09
-1.13599e-07
-2.38174e-10
1.03342e-07
-1.06002e-07
4.60321e-09
-1.9428e-09
1.52284e-07
-8.53317e-08
8.69086e-09
-1.15916e-07
1.95116e-08
-1.94653e-08
5.94973e-08
-9.84e-08
-2.21704e-08
1.26042e-07
-1.25219e-07
-1.94552e-10
6.85904e-08
6.13457e-08
-6.12817e-08
-6.86544e-08
8.02706e-08
1.495e-07
-1.61266e-07
7.96756e-08
6.81076e-08
-1.42649e-07
-5.13376e-09
-1.17063e-07
6.177e-08
4.78411e-08
7.45166e-09
2.06891e-10
1.26461e-07
1.55911e-10
8.03528e-08
7.51294e-08
-1.49843e-07
-5.63917e-09
1.06534e-07
1.17486e-07
-9.58551e-09
-1.04226e-07
-3.67451e-09
9.61951e-08
4.44441e-11
1.48123e-07
-1.49826e-07
-8.17935e-08
8.3496e-08
5.0242e-08
5.9904e-08
7.34041e-09
-6.28157e-09
-2.02382e-07
1.87732e-08
1.20251e-07
-3.63385e-09
6.27297e-09
1.53164e-07
1.31651e-07
-2.23292e-07
-1.23727e-07
1.09748e-09
-1.46971e-09
1.24099e-07
6.46444e-10
1.00155e-07
-1.00652e-07
-1.48746e-10
-8.01425e-08
1.82148e-07
-1.78653e-07
5.24076e-08
1.23791e-07
-6.53296e-08
-1.10869e-07
4.62746e-08
5.90929e-08
-1.12815e-07
7.44748e-09
1.50046e-07
-1.13743e-08
2.09854e-08
-1.34656e-07
-5.71995e-09
4.2387e-08
-1.35828e-07
-1.90435e-08
-9.51766e-08
-1.12541e-07
1.06e-07
2.03241e-08
-5.09963e-09
-2.03591e-08
9.73038e-08
2.90549e-08
6.78127e-08
-7.82751e-08
-3.12556e-09
1.25958e-07
3.45437e-09
1.28619e-10
4.77307e-10
-2.16352e-07
-1.54461e-08
-3.40656e-10
1.4123e-07
1.48479e-08
-1.48327e-07
-1.37492e-08
2.74654e-07
-1.21111e-07
-1.39794e-07
-1.6888e-07
1.37148e-07
1.1512e-07
-1.45738e-07
-6.85418e-08
7.43538e-08
-7.6162e-08
7.035e-08
1.18918e-07
-1.23001e-07
-3.83956e-09
7.9233e-09
-3.88578e-09
-6.39796e-08
7.96207e-08
-1.84521e-07
-8.04066e-08
6.52191e-08
3.03413e-09
-1.19594e-07
2.61987e-07
-4.16327e-08
-9.87964e-08
-1.34798e-08
-7.731e-08
1.55461e-07
2.11991e-09
-3.31292e-08
-7.1288e-08
8.95451e-08
1.48721e-08
3.96925e-08
-1.78423e-07
8.09851e-08
5.77458e-08
-1.07348e-07
1.07093e-07
-5.62033e-11
3.10906e-10
9.24812e-08
-2.12989e-10
1.38256e-08
1.25664e-07
1.13401e-07
-7.27425e-09
-8.4073e-08
-1.54613e-07
1.83325e-08
7.89765e-10
1.36536e-07
-9.1621e-08
1.38106e-07
-4.34879e-08
-5.97597e-09
3.13006e-09
1.2591e-07
-3.08206e-09
1.0484e-07
3.92816e-08
-1.53657e-07
-2.98645e-08
-1.24887e-07
-1.08377e-07
-8.47681e-08
4.37221e-08
-1.1217e-08
1.0903e-07
-8.5699e-09
-9.4415e-08
-1.0863e-07
-3.02425e-09
9.49077e-08
-1.21842e-07
9.89724e-08
-6.4607e-10
-9.77752e-08
-5.51132e-10
-2.58035e-08
-1.48315e-07
-1.77311e-07
1.77003e-07
1.14516e-07
-4.78298e-08
1.12118e-08
-7.78982e-08
1.1307e-07
-6.10995e-10
-1.12409e-07
-4.93023e-11
9.4455e-10
1.02587e-07
-1.03773e-07
2.42277e-10
2.8982e-08
1.19575e-07
-3.6543e-08
-7.80791e-08
-8.21993e-08
1.04474e-08
7.69904e-09
1.09405e-07
-1.13053e-07
-4.05136e-09
-1.2457e-07
1.34616e-07
-2.34733e-09
-1.33606e-07
-3.43149e-09
-1.48176e-07
1.50089e-07
-5.56472e-08
-8.47734e-08
1.46639e-07
-6.21835e-09
1.07494e-07
-1.50183e-08
6.34623e-10
-5.46013e-11
4.64308e-08
1.17124e-08
-6.03358e-10
-4.11936e-10
7.51865e-08
8.21051e-08
-5.77561e-09
-3.35297e-08
9.92471e-08
7.80925e-08
-2.78615e-07
-1.20068e-07
2.5868e-07
1.39062e-07
1.29e-07
-5.45716e-08
-8.23685e-08
6.49395e-09
-6.13319e-10
-1.24326e-07
-3.31661e-10
5.41285e-08
6.27495e-08
-1.15794e-07
-1.0843e-09
-1.13912e-07
1.13743e-07
1.21212e-10
4.70429e-11
1.04643e-07
3.19732e-08
-1.36388e-08
1.63198e-09
1.92551e-07
-4.43818e-09
-5.26583e-08
-8.05953e-08
-3.42454e-09
-9.29287e-08
-2.28416e-08
7.23807e-10
1.06133e-07
-1.06006e-07
7.75078e-08
-1.89465e-07
1.06291e-07
-1.07986e-09
-5.68423e-10
6.95849e-08
6.46973e-08
-1.30318e-07
-3.9644e-09
-1.60332e-07
8.01919e-08
-2.25435e-08
-2.63986e-08
-3.61105e-08
1.25282e-07
-6.2773e-08
-2.91001e-08
7.04521e-08
3.03051e-08
-1.38427e-07
-8.85404e-08
9.30662e-08
1.33902e-07
7.58588e-08
-5.95509e-09
6.42769e-08
1.27425e-07
-5.26381e-08
-1.39064e-07
-3.73399e-09
1.14809e-07
1.47747e-08
-1.2585e-07
1.09371e-07
-9.30791e-08
-2.02718e-08
3.97953e-09
1.40035e-07
-1.87986e-07
1.7376e-07
1.39844e-07
-6.79261e-08
-6.5163e-08
-6.75491e-09
4.14268e-08
-1.66658e-07
-1.18668e-07
-1.19489e-07
4.60554e-14
-1.84847e-07
1.5581e-07
-1.61176e-07
1.90214e-07
8.22034e-08
-1.49458e-07
-2.61227e-08
1.17978e-07
-1.16969e-07
-4.80801e-10
-5.28356e-10
5.94931e-08
-1.18128e-07
-5.34489e-09
-6.25634e-09
8.30934e-08
-1.75704e-07
7.61921e-08
-1.33572e-07
-7.84245e-11
2.81308e-10
1.33369e-07
-1.5332e-07
1.3569e-07
-1.13146e-07
-8.36361e-08
-2.85107e-08
-7.15945e-09
5.87588e-08
6.86626e-08
-6.1065e-09
-5.20342e-08
-5.92962e-08
-5.73226e-09
-3.62676e-09
-1.01595e-07
-9.92906e-08
-1.00495e-09
-5.71548e-09
6.85906e-08
-6.81817e-08
6.47493e-10
-1.05634e-09
1.0545e-07
-1.03403e-07
-1.34973e-09
-6.97951e-10
-1.08277e-09
1.25298e-07
-1.24045e-07
-1.69927e-10
-1.30177e-07
1.38472e-08
1.10581e-07
5.74917e-09
1.25054e-07
-1.18864e-07
-4.30606e-09
-1.88402e-09
-1.0566e-07
-1.10467e-09
1.07424e-07
-6.58956e-10
-1.02196e-07
-6.23654e-08
9.48906e-08
3.33587e-08
-9.26845e-09
-1.18981e-07
7.45926e-08
-7.91198e-08
3.70503e-09
8.22237e-10
4.42336e-08
3.66448e-08
-1.25591e-07
1.07535e-07
-1.04683e-07
-7.19118e-09
4.33955e-09
-4.98471e-08
5.03397e-08
1.49963e-07
5.20169e-09
1.25837e-07
-9.4124e-08
1.19127e-08
-2.71279e-08
-1.14854e-08
-9.9814e-08
-3.18301e-08
1.92908e-07
6.09434e-09
-1.67552e-07
1.27676e-07
-3.28267e-08
-1.89736e-08
2.06782e-08
-7.84252e-08
5.70292e-09
-1.22723e-07
1.22551e-07
5.73615e-08
-6.89955e-08
-2.95812e-08
7.61184e-08
2.21183e-09
6.24055e-08
5.57027e-08
-7.73117e-08
-8.1436e-08
1.12447e-07
-1.24318e-08
-6.91982e-08
5.7818e-09
9.21868e-08
1.11501e-08
2.19672e-08
2.40501e-08
-1.04445e-08
5.04599e-08
5.86001e-08
6.926e-09
-4.8221e-08
1.57752e-07
-1.63654e-07
-1.71167e-07
8.51194e-08
2.16543e-07
-1.45888e-07
1.04309e-07
-3.1476e-08
5.98988e-08
-1.32731e-07
-1.21601e-07
-4.18739e-08
-1.41925e-07
-5.62577e-09
-9.96282e-08
7.89448e-08
-8.68413e-08
1.07525e-07
8.20304e-09
-1.17097e-07
-1.38571e-07
-7.35205e-09
-3.90281e-09
-1.25174e-07
1.13236e-07
1.21309e-07
1.91242e-08
1.01e-07
2.08095e-09
-1.30421e-07
1.20544e-07
-8.3687e-08
9.35646e-08
-9.99227e-08
1.28798e-08
-2.00791e-08
-3.40833e-08
-2.03334e-08
1.1294e-07
-4.8161e-08
-1.10314e-07
-4.23859e-08
1.21684e-08
-6.96803e-08
-8.36443e-08
7.55628e-09
-6.83991e-08
7.86281e-08
7.86637e-08
2.29189e-08
4.17566e-08
-1.43339e-07
7.28304e-08
7.1192e-09
-6.91792e-08
-3.84424e-09
-7.88216e-08
-8.81241e-08
6.61385e-09
6.13625e-08
-7.11304e-08
-4.71979e-08
5.69659e-08
-4.84861e-08
-8.81562e-09
1.43779e-07
-1.8153e-07
3.8252e-08
-5.00564e-10
-7.98219e-09
2.66149e-08
7.75398e-08
-9.61725e-08
4.85384e-10
-9.18407e-08
-7.588e-10
9.21141e-08
-9.88404e-08
9.85448e-08
1.15964e-10
1.79587e-10
1.2767e-07
-7.03417e-08
-1.29455e-07
-6.00258e-08
-3.73994e-08
9.91037e-08
-1.67843e-09
1.508e-07
1.14178e-08
-1.13601e-07
5.7108e-09
-1.36711e-07
1.64623e-08
-5.82825e-10
-1.61676e-07
-1.12265e-07
1.12493e-07
-3.06181e-10
7.59502e-08
7.89016e-08
-1.39701e-07
-1.29586e-08
-1.48344e-08
2.24335e-07
-7.713e-10
-1.06246e-07
-2.02989e-09
9.57485e-08
-9.47405e-08
1.90577e-11
-4.35033e-09
1.36767e-08
2.58365e-08
1.19577e-07
-2.20327e-08
1.13452e-07
-9.01845e-09
-3.22539e-09
1.2513e-07
-1.20457e-07
-1.4482e-09
-1.02645e-07
1.11254e-07
-5.86171e-09
1.19005e-07
5.34424e-09
-3.0991e-08
-9.33581e-08
1.15913e-07
1.61218e-09
-1.1544e-07
-2.08522e-09
-6.9346e-08
-5.25648e-08
6.92525e-08
8.76017e-08
1.55318e-09
1.53858e-07
1.89898e-08
-3.52297e-08
-1.42259e-08
3.73511e-09
-7.62926e-08
1.2002e-07
-1.68934e-07