/*--------------------------------*- C++ -*----------------------------------*\
| =========                 |                                                 |
| \\      /  F ield         | OpenFOAM: The Open Source CFD Toolbox           |
|  \\    /   O peration     | Version:  2212                                  |
|   \\  /    A nd           | Website:  www.openfoam.com                      |
|    \\/     M anipulation  |                                                 |
\*---------------------------------------------------------------------------*/
FoamFile
{
    version     2.0;
    format      ascii;
    arch        "LSB;label=32;scalar=64";
    class       volVectorField;
    location    "0.024";
    object      U;
}
// * * * * * * * * * * * * * * * * * * * * * * * * * * * * * * * * * * * * * //

dimensions      [0 1 -1 0 0 0 0];

internalField   nonuniform List<vector> 
31639
(
(0.118049 0.000706229 -0.000514052)
(0.116001 -0.000313257 3.17889e-05)
(0.117375 -0.000201403 0.000704823)
(0.119823 6.91936e-05 -9.89543e-05)
(0.116657 -0.00064467 -0.000249954)
(0.116456 7.07098e-05 -7.77537e-05)
(0.114862 5.67581e-05 -0.00035172)
(0.117423 -7.88652e-05 -0.00010962)
(0.117366 0.000135102 -0.000197704)
(0.118655 -0.000289462 -0.000466375)
(0.119 0.000475419 -0.00016924)
(0.11839 -0.000484569 -0.000673939)
(0.116558 -0.000287925 1.99608e-06)
(0.118362 5.11342e-05 8.47995e-05)
(0.115271 -0.000384203 1.18624e-05)
(0.115121 -0.000322172 0.000645616)
(0.116866 0.000262224 0.000102321)
(0.114681 4.28617e-05 0.000334652)
(0.115409 0.000159422 -0.000405015)
(0.116924 -8.13137e-05 -7.51489e-05)
(0.111173 -0.000257226 -0.000369585)
(0.118699 -0.00018347 -0.000467421)
(0.118656 0.00064908 -0.000146982)
(0.115633 0.000152293 -0.000162586)
(0.114336 -0.000103478 -0.00010837)
(0.1173 -2.69006e-05 5.09993e-05)
(0.116944 3.40568e-05 -4.06092e-05)
(0.119888 0.000322852 -0.000167093)
(0.115021 0.000395694 0.000610044)
(0.118338 6.68658e-05 0.000460528)
(0.118969 -0.000115301 -0.000105894)
(0.114553 -0.000109352 -0.000132987)
(0.118853 0.000287414 -0.000475728)
(0.115497 -0.000114143 -0.000103724)
(0.112481 -2.71745e-05 6.29317e-05)
(0.118875 0.000475705 -3.946e-05)
(0.110139 -0.000248872 -4.31585e-05)
(0.119546 -0.000377516 0.000329297)
(0.118796 -0.000246503 0.000263016)
(0.110116 5.67132e-05 -7.73156e-05)
(0.113322 -8.2464e-05 -0.000320145)
(0.111951 -0.000320278 0.000158983)
(0.118276 0.000179192 -7.1954e-05)
(0.119182 -0.000750114 -0.000758026)
(0.117969 -0.000479458 0.000641308)
(0.119503 -0.00069167 -0.000355697)
(0.114448 0.000254072 -0.000227587)
(0.116254 0.000429813 -0.000383579)
(0.116612 -3.3255e-05 0.000193644)
(0.119391 -0.000364179 -0.000247459)
(0.119236 -8.57863e-05 -0.000363158)
(0.111322 0.000232225 -0.00015948)
(0.118877 0.000465285 0.000135564)
(0.110545 -0.000155257 0.000239476)
(0.116668 -0.000243961 -0.000181729)
(0.116408 0.00010244 0.000102295)
(0.111909 -9.58301e-06 -0.00058235)
(0.116875 0.000109123 0.000348787)
(0.116592 2.73874e-05 0.000332702)
(0.112471 0.000161505 -0.000155841)
(0.117558 -9.69532e-05 -0.000343921)
(0.118029 0.000353215 -0.000172277)
(0.114547 -0.000176031 -0.00034112)
(0.11659 2.02223e-05 -0.000107845)
(0.117304 0.000325187 1.27897e-05)
(0.119523 -0.000149094 -0.000529191)
(0.117043 0.000164013 -0.000909453)
(0.116697 -0.000248222 8.72866e-05)
(0.113309 -4.14957e-05 -0.000291428)
(0.119467 0.000331901 -0.000189715)
(0.118145 5.59368e-05 -0.000224634)
(0.114034 8.87359e-05 -0.00101911)
(0.118446 -0.00035476 -0.000703055)
(0.117056 -9.10071e-05 -0.000184327)
(0.1178 0.000346654 -4.70054e-05)
(0.111006 0.000181424 -0.000662648)
(0.119191 -0.000645106 0.000215225)
(0.115921 0.00029505 -0.000543325)
(0.116111 -0.000146423 0.000334913)
(0.117943 0.000266918 -7.50215e-05)
(0.11454 6.34006e-05 0.000149944)
(0.108934 -4.87907e-05 7.10188e-05)
(0.119035 -0.000182386 0.000102324)
(0.117459 -0.000232961 -0.000192765)
(0.117258 -4.27475e-05 -0.000137852)
(0.119036 -0.000292354 -0.000243781)
(0.119533 3.84854e-05 0.000111379)
(0.119355 -0.000153639 -0.000309255)
(0.11174 0.000892042 -0.00129098)
(0.118618 -0.000229586 -0.000395258)
(0.117414 -0.0002143 0.000262553)
(0.115761 -0.000370407 -0.000108203)
(0.112643 -0.000444099 -0.000287665)
(0.115507 0.000418505 -0.000668651)
(0.114527 -0.000673045 -0.000321423)
(0.115656 0.000901228 0.000250829)
(0.116844 0.000233435 -0.000368909)
(0.117021 -8.6415e-05 0.000202608)
(0.116596 0.000133195 0.000138066)
(0.112057 -0.000763524 -8.02333e-05)
(0.117676 3.62735e-05 -6.47805e-05)
(0.11771 0.000285143 0.000555645)
(0.115474 -0.000233224 -0.0001762)
(0.111132 6.75023e-05 -0.000171968)
(0.112343 6.93543e-07 -0.000328918)
(0.119595 -0.000495611 -0.000246879)
(0.110722 0.000380682 -0.000369928)
(0.111663 -0.000642006 -0.000737583)
(0.113792 0.00042336 3.38364e-05)
(0.110473 -5.22789e-05 0.000488483)
(0.118009 -0.000873615 0.000187825)
(0.112714 -4.85999e-05 -0.000250579)
(0.116434 -8.32771e-05 -0.000283752)
(0.115506 -0.000528263 -0.000573294)
(0.116983 0.000140417 -0.00058449)
(0.111175 -0.000398754 0.000253205)
(0.11569 0.00043206 -8.4064e-05)
(0.11515 -0.00052596 -8.28654e-05)
(0.117609 6.79265e-06 -1.58385e-05)
(0.116364 -0.000239256 0.00011679)
(0.117094 -0.000464188 -4.7154e-05)
(0.118449 -0.000498923 0.000362704)
(0.11893 0.000101567 -0.000561653)
(0.117533 0.000313278 -0.000662645)
(0.117358 -6.29884e-05 -0.000749582)
(0.118381 -0.000266757 0.000106313)
(0.116345 -4.61336e-06 0.000273444)
(0.114531 0.000191448 -0.00021723)
(0.114359 -0.000549202 -0.000233487)
(0.118542 -0.000245561 0.000103177)
(0.118257 2.32705e-05 -0.000290199)
(0.118757 0.000210694 -0.000356865)
(0.118206 -0.000338137 3.84855e-05)
(0.116574 -8.98818e-05 5.09977e-05)
(0.118507 -8.98396e-05 -0.000173656)
(0.117105 -8.55219e-05 6.1985e-06)
(0.112438 -0.00012339 -0.000309524)
(0.111738 -0.000691291 -0.000371219)
(0.118986 0.000423041 0.000515284)
(0.116793 -0.000351169 -0.000339917)
(0.11655 -5.06403e-05 -0.000292285)
(0.119313 0.000226465 0.000928713)
(0.118729 0.000484287 0.000197139)
(0.111151 -0.000265339 -0.000403891)
(0.111564 -0.00013468 -0.000615958)
(0.118284 -0.000175107 -1.16832e-05)
(0.118161 -0.000261045 -0.000291983)
(0.112102 -0.000167497 -0.000376849)
(0.112674 -7.18894e-05 9.9415e-05)
(0.118523 -0.00029283 -5.67275e-05)
(0.114431 -3.10897e-05 -0.000967649)
(0.116118 9.43095e-05 0.000168651)
(0.116063 -0.000187846 -0.000711502)
(0.118223 -0.000148434 -1.31193e-05)
(0.112773 0.000639304 -0.000968472)
(0.11974 9.83842e-06 8.34869e-05)
(0.117467 -0.000174833 -0.000259449)
(0.113443 -0.00111048 -0.000101586)
(0.112262 -0.0006719 0.00084504)
(0.115291 -0.0003464 -0.000254423)
(0.11937 -9.86216e-05 -0.000416437)
(0.111209 0.000255661 0.000150322)
(0.112789 9.31908e-05 -0.000979827)
(0.111799 -0.000335058 0.000143981)
(0.111442 -0.00105777 0.000179018)
(0.115245 5.48651e-05 -4.91132e-05)
(0.11183 0.000440989 0.000108482)
(0.118887 -0.000627633 0.000169597)
(0.119113 -0.000398039 0.000208331)
(0.111771 0.0001865 -0.000616048)
(0.113075 -0.000567057 0.000349578)
(0.116101 0.000503963 -0.000598201)
(0.112374 -0.000104039 -9.35085e-05)
(0.11711 -9.60846e-05 0.000429613)
(0.119486 -0.000207227 -0.000293542)
(0.117957 -0.000565408 -0.000353024)
(0.116894 0.00057981 0.000157706)
(0.118493 0.000221106 0.000388717)
(0.117367 -0.00041674 -5.77119e-05)
(0.116051 -0.000246892 -0.000251582)
(0.116385 0.000107376 -0.000117753)
(0.115686 -0.000523846 0.000674462)
(0.115579 0.000118061 0.000191582)
(0.110305 0.00102274 -0.000429087)
(0.116931 -2.31356e-05 0.000222023)
(0.118922 0.000447198 -0.000312786)
(0.115301 -0.000107885 0.000417551)
(0.118494 0.000246804 -2.33221e-05)
(0.112511 -0.000247062 7.637e-05)
(0.110867 -0.0001624 0.000320716)
(0.119258 -0.000170207 -0.000149428)
(0.11829 -0.000199299 -0.000183004)
(0.116629 -0.000293541 0.000548056)
(0.116459 -7.71867e-05 0.000212862)
(0.116901 -2.23829e-05 -0.000245057)
(0.116281 -3.65773e-05 -0.00049415)
(0.116066 0.000502483 0.000419466)
(0.118462 0.000267865 -0.000363639)
(0.112272 -4.50607e-05 -0.000234347)
(0.115483 0.000228962 -0.00017341)
(0.119163 0.000146722 5.28471e-05)
(0.118483 -0.000275326 -0.000162465)
(0.117601 -0.000465203 2.5431e-05)
(0.116959 -0.00122288 -0.000287425)
(0.116547 -0.000479686 -0.000380839)
(0.116029 -7.36353e-05 -0.00033027)
(0.116693 -0.000122694 -0.00038091)
(0.115786 0.000461705 -0.000417965)
(0.118293 1.55875e-05 -0.000344195)
(0.111186 -0.000163686 -6.10956e-05)
(0.116731 -1.96821e-05 -0.000106311)
(0.115843 0.00046814 -6.0623e-05)
(0.117012 -3.83528e-05 -0.000415298)
(0.11839 -3.58183e-05 -0.000480126)
(0.117792 -0.000399517 -0.000399002)
(0.118848 -0.000104474 -0.000266497)
(0.112556 -0.000995943 -0.000363584)
(0.114505 -0.000388728 0.000362605)
(0.118279 -0.000317111 -0.000269609)
(0.119068 -0.000152559 0.000218166)
(0.118295 4.37574e-05 0.000213452)
(0.116313 -0.000322439 -0.000508676)
(0.109823 -0.000123819 0.000655894)
(0.116625 -0.000610289 0.000427385)
(0.111622 -0.000366439 -0.00027936)
(0.114778 0.000351746 1.12863e-05)
(0.118321 -0.000379235 0.000475004)
(0.114533 0.000295607 0.00041021)
(0.111379 0.00035955 -0.000224883)
(0.116788 9.49733e-05 0.000241702)
(0.117631 0.000283508 -0.000192051)
(0.119102 -0.000177013 -6.72511e-05)
(0.11178 -0.000197712 -5.18356e-05)
(0.110886 -0.000534179 0.000141008)
(0.117159 -0.000359769 0.00023738)
(0.118349 0.000117501 -0.000601906)
(0.112053 7.59706e-05 0.000414322)
(0.118669 -0.000767585 0.000213755)
(0.11405 7.24094e-05 -0.000418381)
(0.112486 -0.00031233 0.0001257)
(0.116392 0.000197602 -0.000248241)
(0.117525 -0.000218898 -8.4006e-06)
(0.115517 -0.000845201 2.54194e-05)
(0.114064 0.000246598 0.000817476)
(0.114786 0.000175928 0.000259143)
(0.116544 -0.000152802 -0.000102744)
(0.115988 0.000496497 -0.000311356)
(0.114739 0.00023973 -0.000789502)
(0.111437 -0.000455052 0.000440985)
(0.116189 0.000320091 -0.000412683)
(0.116387 0.000114966 -0.000532365)
(0.113324 -0.000219074 -3.95527e-05)
(0.11462 -0.00093872 0.000143254)
(0.118644 -2.18327e-05 -0.000126438)
(0.118988 0.000576899 8.03974e-05)
(0.116433 0.000539888 -0.00011236)
(0.11243 7.55079e-05 -5.46864e-05)
(0.118731 0.000249258 -0.000223462)
(0.118014 0.000354152 -0.000515652)
(0.116072 -0.00031852 -0.000394547)
(0.119645 0.000190799 0.000743594)
(0.119325 0.00013415 -0.000349746)
(0.117679 0.000202014 -0.000450841)
(0.119085 7.52397e-05 0.000112544)
(0.115605 0.000394126 5.17561e-05)
(0.116175 -0.000267911 -0.00062637)
(0.111066 0.000320031 -0.00144638)
(0.114652 -0.000161352 -0.000211312)
(0.11858 -0.000715707 0.000164728)
(0.115378 6.66059e-05 0.000329838)
(0.118063 0.000275366 -2.14338e-05)
(0.115863 0.000453095 -0.000617891)
(0.116705 -0.000192694 4.37243e-05)
(0.117503 0.00022028 0.000316375)
(0.119387 6.89591e-05 -0.000576016)
(0.117064 0.000549847 0.000166283)
(0.11185 0.000184305 -1.2585e-05)
(0.115622 8.58409e-05 9.43375e-05)
(0.11319 0.00139841 -0.000340346)
(0.119162 -0.000121551 -0.000780128)
(0.115714 -0.000560031 -0.000227038)
(0.118225 -3.25504e-05 -0.000405352)
(0.117037 2.83011e-05 -0.000354079)
(0.114608 -9.0548e-05 -0.000462257)
(0.111462 1.94851e-05 9.56435e-06)
(0.11277 0.000165764 -0.000550476)
(0.112434 0.000224161 0.000150471)
(0.111112 -0.000276162 9.95299e-05)
(0.119431 -0.000369242 -0.000294266)
(0.111888 -0.000379902 -0.000496167)
(0.117469 -0.000296698 0.000239041)
(0.117184 0.000520696 -0.000217638)
(0.115543 -1.47366e-05 -0.000211918)
(0.112846 -0.000122901 -0.000128605)
(0.118803 -0.000693486 4.20804e-05)
(0.11583 0.000100199 -0.000699819)
(0.113972 0.000109427 0.00057547)
(0.118532 0.000249626 -0.000406599)
(0.117082 -0.000162719 -0.000112724)
(0.112791 0.000380401 0.000343975)
(0.115679 4.85942e-05 -9.71735e-05)
(0.112315 0.000208124 -2.75943e-05)
(0.116997 0.000328548 -0.000234705)
(0.116141 0.000213905 -0.000156395)
(0.112778 0.00033638 0.0007357)
(0.116174 -3.22517e-05 -0.000231974)
(0.115692 0.000858347 0.000297994)
(0.110063 0.000128067 -0.00106285)
(0.110188 0.000339623 0.000322363)
(0.11809 -0.000551833 0.000232145)
(0.119072 0.000145696 -1.97217e-05)
(0.119398 0.000149878 -9.88845e-05)
(0.111465 0.000176848 0.000107862)
(0.112826 1.72509e-05 0.000310379)
(0.118491 0.000261642 0.000275939)
(0.114032 -0.000217665 -0.000238537)
(0.113639 0.000608497 -0.000740843)
(0.118323 0.000243989 0.000454607)
(0.118704 -0.00036958 -8.43263e-05)
(0.115601 -0.000679493 6.67815e-05)
(0.118508 -0.000782145 -0.000298118)
(0.119469 -6.42812e-06 -0.000224821)
(0.112069 -0.000113342 -0.000199176)
(0.119519 -0.000771554 -0.000450176)
(0.110235 0.00032852 -0.0001253)
(0.111207 -4.87485e-05 -6.86516e-05)
(0.118942 -0.000401945 -0.000232002)
(0.118301 -0.00052228 -0.000128715)
(0.11939 0.000201873 -0.000565089)
(0.119393 0.000538787 -0.000821901)
(0.118019 -3.10334e-05 -0.0005856)
(0.113241 0.000997116 -0.000497176)
(0.114978 -0.000831311 0.000604571)
(0.116238 -2.88105e-06 -8.01293e-05)
(0.11783 -0.000818398 0.000108871)
(0.118931 0.000806821 0.000535292)
(0.119067 -0.000614265 0.000223302)
(0.116503 0.000149848 -0.000189826)
(0.114712 -0.000786063 0.00046218)
(0.116254 -0.000195511 -1.24342e-06)
(0.11876 5.16341e-05 -0.000193439)
(0.117792 -2.945e-05 -0.000870133)
(0.11517 0.000132857 -0.000272489)
(0.11696 -0.000282664 -5.17586e-05)
(0.116195 0.000565761 -0.000453605)
(0.115621 -0.000314891 -0.000287155)
(0.117787 -0.000202927 -1.69521e-06)
(0.115128 -0.000750258 0.000683094)
(0.112283 -0.000128469 4.86722e-05)
(0.116519 0.000552057 -0.000621078)
(0.118159 -6.39693e-05 -8.09732e-05)
(0.115142 3.95708e-05 -0.000174525)
(0.117685 0.000314717 0.000229362)
(0.118622 -0.000600506 0.000161194)
(0.117057 9.83062e-05 -0.000212254)
(0.113014 0.000377963 -0.000321786)
(0.116392 0.000303923 -0.000364789)
(0.115633 0.000287408 0.000213629)
(0.111256 0.000266793 -0.000408053)
(0.118172 -0.000779512 0.000177061)
(0.111354 0.000454656 0.000381657)
(0.1173 -0.000101196 -0.000421246)
(0.119037 -0.000772139 -9.033e-05)
(0.111971 -0.000220477 0.000117976)
(0.116824 0.0002588 1.67553e-05)
(0.115942 0.000298811 0.000470993)
(0.11171 -0.000205776 0.000146309)
(0.117083 -0.000120384 -8.8884e-05)
(0.113029 7.20861e-06 -0.000240701)
(0.115881 -8.23203e-05 0.000531464)
(0.118562 0.000497866 0.000120916)
(0.117227 3.80065e-05 0.000207313)
(0.110954 0.000320683 -0.00014302)
(0.117649 0.000157753 1.26207e-05)
(0.112778 0.000175611 -0.000404799)
(0.117618 -0.000145788 -3.47642e-05)
(0.117844 0.000268624 8.38615e-06)
(0.118172 -0.00034961 -0.000380809)
(0.118798 -0.000276382 -0.000425966)
(0.111994 -9.29341e-05 -0.000423821)
(0.118139 -0.000890378 0.000208501)
(0.111444 -3.48752e-05 -0.000468701)
(0.115985 4.66336e-05 -0.000327641)
(0.111985 0.000154719 -0.000177557)
(0.119535 -5.85598e-06 -0.000245286)
(0.119019 0.000108439 -0.000285256)
(0.119546 -0.000110255 2.87982e-05)
(0.119096 -0.000385177 -0.000480183)
(0.116477 -0.000120668 -0.000276913)
(0.118109 -4.7426e-05 0.000153359)
(0.116441 0.000211334 -9.97908e-06)
(0.116859 8.85603e-05 -0.000203983)
(0.116609 0.000142116 -0.000342789)
(0.112734 6.55571e-05 7.49219e-05)
(0.11773 -0.000148983 -0.000306057)
(0.116513 -0.000294732 -0.000147781)
(0.116928 -0.000267778 -0.000243143)
(0.11848 9.58284e-05 5.62141e-05)
(0.117903 -7.4677e-06 -0.0004753)
(0.117997 3.02489e-05 0.000106791)
(0.115732 -0.000590311 9.98002e-05)
(0.111236 -4.6781e-05 0.000614002)
(0.115676 0.000190575 0.000334314)
(0.117909 0.000120203 0.000152785)
(0.117566 -0.000275444 0.000182042)
(0.111905 -0.00047213 -0.000407944)
(0.119085 2.25438e-05 -0.000331865)
(0.11882 -3.68314e-05 -0.000636429)
(0.11552 0.000128959 -0.000532561)
(0.118145 -0.000321849 -0.000474575)
(0.118493 -0.000122223 -0.00090462)
(0.117489 -0.000175373 -0.000499156)
(0.118056 -0.000251012 -5.27281e-05)
(0.111553 -0.000247467 -0.000118942)
(0.117294 -0.000228308 9.69879e-05)
(0.118025 -0.00034498 0.000260732)
(0.110152 0.00013946 -0.000100563)
(0.116691 -0.00054769 6.71647e-05)
(0.117543 -0.000315226 -0.000227633)
(0.113918 0.000151837 0.000127626)
(0.111163 -0.000200923 9.72125e-06)
(0.111243 -0.000156658 0.000585635)
(0.115362 -0.000776062 0.000109422)
(0.110923 0.000198837 -0.000178413)
(0.116193 7.36813e-07 0.000181132)
(0.116961 -0.000173708 6.71615e-05)
(0.11416 0.000504755 0.00032381)
(0.117737 0.000557493 -0.000183357)
(0.112183 -0.000109428 0.000152038)
(0.11784 0.000390948 0.000169879)
(0.119625 0.000152391 1.76333e-05)
(0.116404 -0.00016071 5.10254e-05)
(0.117529 -6.20668e-05 0.000451808)
(0.115576 -1.72724e-05 6.69284e-07)
(0.118986 0.0006436 -0.000243865)
(0.117187 0.000444908 -8.10495e-05)
(0.116553 -3.97462e-05 -0.000523802)
(0.119659 -2.03603e-05 -0.000407723)
(0.116834 -1.05945e-05 -0.000297037)
(0.111902 -8.72746e-05 0.000181944)
(0.116547 -1.14959e-05 -0.000155823)
(0.119444 0.000185235 -0.000799469)
(0.118877 0.000255223 -0.00047459)
(0.117923 -7.26591e-05 0.000451051)
(0.118808 0.000205772 -8.17283e-05)
(0.116619 -0.000571571 0.000322864)
(0.117737 -0.000224333 0.000114209)
(0.117286 0.000140908 0.000287561)
(0.118363 0.00014898 -0.000273754)
(0.11857 -0.000564625 -0.000189146)
(0.111003 -0.000348567 -0.000189008)
(0.115912 -0.000375065 0.000159685)
(0.109894 -0.000215411 0.000120212)
(0.115285 0.000367109 0.000578751)
(0.115547 3.03397e-05 -0.000485046)
(0.111799 -0.000471691 0.00055606)
(0.110988 -0.000359515 -0.000463477)
(0.116082 0.00029828 -0.000239938)
(0.117329 -0.000326965 -5.8198e-05)
(0.11849 7.50812e-05 -0.000487013)
(0.112015 -1.58457e-05 0.00036978)
(0.117363 -0.000224784 0.000169818)
(0.115622 -0.000111889 0.000123188)
(0.116577 -0.000126282 -0.00050582)
(0.117204 8.73759e-05 -0.000455415)
(0.113432 0.00145913 0.00213247)
(0.116592 3.31736e-05 -0.000532068)
(0.111716 8.05824e-05 0.000341719)
(0.115424 -0.000248197 -0.000253553)
(0.11822 -0.00014807 1.92205e-05)
(0.119713 0.0010617 0.000432953)
(0.118704 0.000159866 -0.000769953)
(0.116604 0.000646171 -0.000501996)
(0.110924 0.000208683 0.00074532)
(0.117536 -0.000256175 4.23282e-05)
(0.117422 7.48534e-06 -0.00028927)
(0.118415 -0.000239091 -0.000348845)
(0.111044 6.65745e-05 3.36447e-05)
(0.113048 -0.000108789 0.000251213)
(0.115806 0.000331469 0.000356148)
(0.112896 0.000379907 -0.00027895)
(0.110773 -0.000406339 -8.40824e-05)
(0.117868 2.97412e-05 -0.000353218)
(0.112531 -3.01867e-05 -4.44561e-05)
(0.114959 0.000726369 0.000188523)
(0.111911 -0.00049149 -0.000742767)
(0.117673 0.000193296 1.15661e-05)
(0.112515 7.25738e-05 -0.000201803)
(0.119066 -8.49072e-05 0.000381158)
(0.118255 0.000153101 -0.000295492)
(0.119282 -0.000141309 0.000486433)
(0.11931 -9.6362e-05 -0.000251303)
(0.112227 -5.48216e-05 0.00014515)
(0.118707 0.000184902 0.000222005)
(0.11936 -8.20853e-05 -0.000203988)
(0.116642 -0.000340853 0.000217945)
(0.117751 0.000427187 -0.000182731)
(0.117436 -0.000358869 -0.000224748)
(0.11906 0.000314738 -2.21888e-05)
(0.118284 0.000184919 0.000571627)
(0.114232 6.31307e-05 -0.0003844)
(0.119855 -5.62939e-05 -9.77076e-05)
(0.119403 -0.000192391 0.000143852)
(0.116952 -0.000124273 7.48939e-05)
(0.115311 -0.000345266 -0.000704173)
(0.118746 -0.000410957 -0.000202262)
(0.117043 0.000212887 -0.000114081)
(0.11037 0.000561097 -0.000286428)
(0.110392 0.000388656 -7.92508e-05)
(0.116424 2.08574e-05 0.000153632)
(0.118479 6.72041e-05 8.65679e-05)
(0.119416 -0.000140238 -0.000199853)
(0.114758 -0.00025585 -8.7238e-05)
(0.11838 0.000373995 0.000218982)
(0.117509 -0.000136365 0.000396912)
(0.119239 0.00100573 0.000856334)
(0.116656 -3.41757e-05 -2.30753e-05)
(0.115677 0.000428651 -0.000297443)
(0.116755 -0.00155965 0.000945628)
(0.111707 -8.09551e-05 -0.000158399)
(0.115971 3.62446e-05 0.000110604)
(0.116851 4.69063e-06 -0.000118643)
(0.118798 4.65091e-05 -9.29277e-05)
(0.112978 -0.000266256 3.69438e-05)
(0.113228 0.000347134 -0.000428307)
(0.114139 -4.65188e-05 -0.000361013)
(0.114477 -0.000416255 -0.000102181)
(0.116662 -8.64931e-05 -0.000469607)
(0.111279 -7.4602e-05 -0.000466709)
(0.118205 0.000378113 -0.000653649)
(0.115222 0.000131414 -0.000148312)
(0.117424 2.51558e-05 0.00075552)
(0.115587 -0.00018675 -0.00011192)
(0.119507 -0.000270626 -0.000294386)
(0.11642 -3.74759e-05 -0.000645855)
(0.111312 0.000128916 0.000496357)
(0.117066 0.000784797 0.000178149)
(0.119492 -0.000122324 -0.000794934)
(0.112093 0.000273453 0.000924217)
(0.118262 -5.08715e-06 -0.000630129)
(0.119571 -0.00100139 -0.000336652)
(0.116894 -0.000349024 0.000118562)
(0.115956 0.00024971 0.000122599)
(0.120414 -0.00023091 -0.000433365)
(0.114194 9.86566e-06 -0.000104331)
(0.116737 -0.000334063 -8.34868e-05)
(0.116504 0.000181874 7.32081e-05)
(0.112407 -2.5926e-05 2.28485e-05)
(0.112635 -6.57285e-05 -0.00108926)
(0.11584 0.000232677 0.000236672)
(0.114329 0.000509867 0.000160023)
(0.117955 -5.20474e-05 -0.000266057)
(0.113881 -0.00030879 0.000294793)
(0.115457 0.000323274 0.000432489)
(0.119266 8.93959e-05 0.000264963)
(0.116078 0.000137212 -6.12654e-05)
(0.111058 0.000234611 0.00016684)
(0.114169 0.000201725 -3.71817e-05)
(0.117012 0.000313158 -0.000130506)
(0.119363 -0.000150781 0.000116104)
(0.111188 0.000602335 0.000447862)
(0.111128 -2.85142e-05 0.000213382)
(0.119441 0.000134097 0.000740376)
(0.111392 0.000173669 8.52936e-05)
(0.117541 -0.000128436 -9.70611e-05)
(0.11802 0.000203457 -0.000203092)
(0.112572 -0.000129805 -0.000728382)
(0.117017 0.000299766 -7.50743e-05)
(0.118831 0.000216879 -0.000258797)
(0.116219 6.36533e-05 0.000647908)
(0.110048 -7.095e-06 0.000166597)
(0.119115 6.17964e-05 -3.81366e-06)
(0.11622 -6.8306e-05 -0.000335666)
(0.110914 0.000476766 -4.84107e-05)
(0.119183 0.000106185 -0.000113488)
(0.115852 -0.000129576 -0.000108754)
(0.115532 0.000364204 -0.000323866)
(0.117823 -0.000386721 7.36882e-05)
(0.111024 0.000760162 -0.000385805)
(0.115039 6.74091e-06 -0.000846728)
(0.115195 -0.000441602 2.05602e-05)
(0.115981 0.000158947 -0.000372224)
(0.112447 -6.56751e-05 0.000413224)
(0.114126 -9.22922e-06 1.289e-05)
(0.117977 0.000602366 0.00017122)
(0.119944 -0.000572279 -0.000751396)
(0.120054 -0.000405587 0.000352767)
(0.118998 8.24632e-05 -9.02541e-05)
(0.119093 -0.000498679 -0.000156998)
(0.117677 0.000114184 -0.00105198)
(0.11371 -0.000194071 0.000285733)
(0.119888 0.000138601 -0.000789173)
(0.117914 -9.65912e-05 -0.000125931)
(0.118141 0.000670822 0.000335422)
(0.112723 0.000742109 -0.000213295)
(0.117098 -0.000174514 -0.000229636)
(0.117082 0.000197554 0.000443936)
(0.12 0.000822745 7.75502e-05)
(0.111538 -6.18273e-05 0.000225235)
(0.110559 -0.000570776 0.000280568)
(0.118929 6.69389e-05 -0.000446762)
(0.114262 -0.000185125 -0.000288715)
(0.118654 0.00012847 -2.6155e-05)
(0.115275 -4.54525e-05 -0.000290254)
(0.112568 -9.5038e-05 -0.00065078)
(0.116926 9.49063e-05 -0.000722989)
(0.119023 0.000379621 -0.000169587)
(0.116167 0.000231358 3.75242e-05)
(0.118132 0.00078109 -0.000205431)
(0.111962 9.69793e-05 -0.00141335)
(0.118305 0.00104797 0.000538084)
(0.117754 -7.85084e-05 -0.000399853)
(0.11066 0.00028404 -3.95366e-05)
(0.118176 -9.46609e-05 -0.000368682)
(0.118299 -0.000291885 0.000113758)
(0.119168 0.000612275 0.00135744)
(0.112208 -0.000595717 -0.000806657)
(0.11153 0.000229132 -0.000661067)
(0.11541 0.000318891 -0.000310496)
(0.116359 2.68802e-05 0.000772453)
(0.116687 -0.000186286 0.000129454)
(0.116202 0.000363201 0.000141949)
(0.11591 0.000340578 0.0004606)
(0.118772 0.000134188 -3.1869e-05)
(0.116953 -0.000240525 9.86508e-05)
(0.11725 0.000129335 0.000104921)
(0.112684 -0.000232597 0.000550817)
(0.119322 -0.00013019 -0.000876361)
(0.111749 -0.000161131 -9.69866e-05)
(0.116922 0.00073761 5.21652e-06)
(0.115834 0.000354111 -9.89469e-05)
(0.115398 -0.000754561 -0.000428687)
(0.117717 0.000324981 -7.20086e-05)
(0.115068 -0.000441321 -0.000430117)
(0.112573 -0.000642 -0.000408701)
(0.111011 -8.02815e-05 -0.000422581)
(0.112107 -0.000247708 -0.000184093)
(0.115446 -0.000444918 -0.000340279)
(0.118121 0.000612767 0.00034741)
(0.111739 0.000419254 0.00131537)
(0.118206 -0.000203726 -8.87133e-05)
(0.115582 9.16328e-05 -0.000592986)
(0.119242 -0.000264698 -0.000390896)
(0.111494 -5.82738e-05 -0.000670086)
(0.115097 0.000381589 0.000543711)
(0.118452 -3.30428e-05 -0.000470643)
(0.118911 -0.000607661 -2.65071e-05)
(0.118279 0.000238921 -0.000310174)
(0.119087 -0.000209204 -0.000126563)
(0.117202 3.47892e-05 0.000204579)
(0.116051 0.000554382 0.000126341)
(0.119046 -5.87815e-05 0.000370852)
(0.118794 0.000274447 -1.61104e-05)
(0.119311 0.000202116 8.51528e-05)
(0.113127 0.0008002 -0.000268782)
(0.119082 -0.000472424 -0.00058868)
(0.11115 -0.000266813 0.000363138)
(0.119332 0.000643961 -7.4125e-05)
(0.116902 0.000247142 -0.000214652)
(0.115944 -2.4633e-05 -0.000338985)
(0.112057 0.000668734 4.51509e-05)
(0.116287 0.00104785 -0.000625643)
(0.109864 -0.000986117 -0.000287341)
(0.118129 -2.27577e-05 -0.000297389)
(0.116067 9.94417e-05 -0.000235502)
(0.118681 -9.09889e-05 -0.000224299)
(0.115581 0.000409622 -0.000267205)
(0.115965 0.000932272 -0.000227773)
(0.111689 -0.00025994 0.000516996)
(0.119372 0.00015045 4.42512e-05)
(0.11255 -0.000517997 0.000135856)
(0.110306 -0.000234541 -0.00030643)
(0.112373 -0.000208018 9.06514e-05)
(0.112886 0.000153519 0.000112268)
(0.112467 0.000661223 -3.5966e-05)
(0.116444 -0.000276572 8.43854e-05)
(0.111405 0.000138988 -8.05426e-05)
(0.117758 -0.000922832 0.000201531)
(0.117773 2.67556e-05 -0.000476178)
(0.110166 -8.18905e-05 1.47517e-05)
(0.117803 0.000369741 4.90482e-05)
(0.112134 0.00032042 -0.000628088)
(0.115272 0.000766913 3.4765e-05)
(0.116729 0.000270244 6.05839e-05)
(0.115717 -0.000146661 -0.000862579)
(0.117882 5.87424e-05 -0.000123931)
(0.11977 0.000163667 -0.000712588)
(0.11811 8.0572e-05 0.000465724)
(0.117354 1.74056e-05 -0.000250142)
(0.116884 -0.000178013 -0.000856115)
(0.118058 0.000413266 0.000258518)
(0.115061 0.000153037 8.40426e-05)
(0.115576 0.000239261 0.000114952)
(0.110828 0.000658252 -0.000651073)
(0.110714 0.0021697 0.00328466)
(0.118876 4.03842e-06 9.66384e-05)
(0.116669 -1.72678e-06 -0.00016156)
(0.11775 -0.000246524 -0.000133524)
(0.118235 -1.88598e-05 4.22103e-05)
(0.111029 -0.00047285 -9.23205e-05)
(0.118697 -8.42493e-05 -0.000364024)
(0.118994 0.000466501 -6.66107e-05)
(0.118919 3.06619e-05 0.000158639)
(0.11887 8.55341e-05 0.000253325)
(0.117721 0.00031133 0.000340198)
(0.117269 -0.000449166 -0.0002794)
(0.118982 -6.87283e-05 1.81417e-06)
(0.119331 -0.000126703 0.000377958)
(0.117476 0.000304669 0.000329748)
(0.118914 9.64405e-05 -0.000178159)
(0.118089 -0.000348653 -0.000431728)
(0.113197 -0.000291627 -0.00040228)
(0.118687 -0.000100561 0.000212721)
(0.113706 4.62418e-05 0.000504182)
(0.116556 -3.36618e-05 -6.15294e-05)
(0.116909 -0.000619326 -0.000129992)
(0.116395 -0.000525543 9.92339e-05)
(0.115126 0.000590836 -2.17677e-05)
(0.117964 0.000251079 -0.000190563)
(0.11562 0.000449693 0.000347869)
(0.117332 0.000268257 -0.000331819)
(0.115406 0.000967407 -0.000428018)
(0.111208 0.0009095 -0.000591234)
(0.11976 0.000352101 -0.00025374)
(0.117555 0.000485125 -0.000164867)
(0.114817 -1.81312e-05 0.000558331)
(0.111441 -0.000542935 -3.27578e-05)
(0.118531 -0.000413569 -9.50743e-05)
(0.110984 -0.000598557 -0.000534601)
(0.119119 -0.000262303 1.21421e-06)
(0.117692 -4.0613e-05 0.000389799)
(0.115692 0.000950375 -0.000345004)
(0.11794 -0.00034528 0.000312433)
(0.11928 4.55832e-05 -0.000466224)
(0.117143 -0.000382634 -5.85815e-05)
(0.111161 -0.000143542 0.000166725)
(0.115779 -0.000222293 -0.000200372)
(0.113572 0.000377413 -0.000493924)
(0.116414 4.58454e-05 -9.50302e-05)
(0.111139 -0.00050667 -0.000834159)
(0.117548 -0.000121773 -0.000301122)
(0.11803 -0.000451478 0.000469044)
(0.114389 0.000394449 -0.000532431)
(0.116373 4.86616e-05 2.49851e-05)
(0.114161 -7.55451e-06 -8.55329e-05)
(0.118079 -3.42348e-05 -0.000328724)
(0.114922 -0.000603127 0.000195061)
(0.116185 0.000351649 0.000280511)
(0.111604 -0.000199909 6.20135e-05)
(0.118913 -6.08802e-05 1.59718e-06)
(0.116871 -0.000459242 -0.000229203)
(0.118856 0.000214935 0.000125874)
(0.113855 0.000474534 -0.000309886)
(0.116784 -7.94909e-05 -0.000256979)
(0.117377 8.51736e-05 -0.00028161)
(0.115612 1.71886e-05 0.000381899)
(0.116354 -6.64014e-05 0.000107165)
(0.116301 -3.6462e-05 0.000435154)
(0.118738 -0.000364942 7.64034e-05)
(0.116426 -0.000208073 -0.000108666)
(0.111987 -3.84126e-06 -0.000176812)
(0.110509 -0.000211726 -0.00053687)
(0.117884 -0.000466781 -3.41794e-05)
(0.111144 0.000461684 -0.000730371)
(0.114089 -0.000612139 -0.00101963)
(0.116493 0.000273807 -0.000189342)
(0.116668 0.000228793 -2.1207e-05)
(0.119287 0.000541822 -0.000191156)
(0.110996 -0.000121335 -8.1136e-05)
(0.11661 -0.000103935 -0.000621515)
(0.119539 2.70039e-05 -0.000318505)
(0.112033 0.000799381 -0.00226775)
(0.112311 0.00134759 0.000161284)
(0.115864 -8.47191e-05 -0.000618718)
(0.112478 -0.000124077 -2.84842e-05)
(0.117255 0.000220848 -0.000457563)
(0.112367 -0.000278766 7.07421e-05)
(0.118837 -0.000712968 -0.000304229)
(0.113754 0.000129511 0.000453897)
(0.114702 0.000270742 0.000425135)
(0.119744 0.000258322 0.000667895)
(0.110493 -0.000185073 0.000352257)
(0.115133 0.000120935 0.000371604)
(0.115021 -9.8268e-06 0.000528967)
(0.118971 -8.90802e-05 -0.000614412)
(0.119115 3.83269e-05 0.000191203)
(0.11856 1.19361e-05 -0.000199676)
(0.111965 0.00066321 0.000367502)
(0.117794 -4.14577e-05 -0.000431461)
(0.118401 0.000189975 0.000707501)
(0.114113 -0.000306192 -0.000111163)
(0.11882 0.000264139 -0.000154348)
(0.118222 0.000200205 0.000174209)
(0.117801 0.000328439 6.00603e-06)
(0.118638 -0.000140056 -0.000484269)
(0.116881 6.32946e-05 -0.000209724)
(0.119753 8.91315e-05 0.000238562)
(0.119107 0.00064328 0.000741641)
(0.119037 -0.000123214 -0.000144951)
(0.117285 0.000453539 0.000324707)
(0.115554 -0.000209079 -0.000450075)
(0.117063 0.000281081 6.21932e-05)
(0.116719 0.000153618 -0.000340832)
(0.111181 -0.000763125 -0.000184146)
(0.115906 -0.000559017 9.25667e-05)
(0.117315 -7.40302e-05 0.000446517)
(0.118882 -0.00023818 -0.00023052)
(0.118861 -0.000323419 -0.00055075)
(0.116218 -0.000402939 0.000108361)
(0.120012 0.000886867 -5.02886e-05)
(0.118389 -2.05157e-05 -2.07799e-05)
(0.115019 -0.000640171 0.000626977)
(0.117548 1.08088e-05 -0.000395353)
(0.11872 8.7502e-05 -0.00027777)