/*--------------------------------*- C++ -*----------------------------------*\
| =========                 |                                                 |
| \\      /  F ield         | OpenFOAM: The Open Source CFD Toolbox           |
|  \\    /   O peration     | Version:  2212                                  |
|   \\  /    A nd           | Website:  www.openfoam.com                      |
|    \\/     M anipulation  |                                                 |
\*---------------------------------------------------------------------------*/
FoamFile
{
    version     2.0;
    format      ascii;
    arch        "LSB;label=32;scalar=64";
    class       surfaceVectorField;
    location    "0.024";
    object      Uf;
}
// * * * * * * * * * * * * * * * * * * * * * * * * * * * * * * * * * * * * * //

dimensions      [0 1 -1 0 0 0 0];

internalField   nonuniform List<vector> 
68568
(
(0.117424 0.000367653 -0.000136462)
(0.116798 0.000638004 -0.000166073)
(0.11652 0.000446045 -4.47381e-05)
(0.118744 0.00084211 -0.000300583)
(0.11723 -0.000295308 -0.000205315)
(0.117157 -0.000386248 -0.000378916)
(0.116282 -0.000302334 1.01644e-05)
(0.111824 -0.000125261 -0.000151351)
(0.118073 0.000241311 0.000191392)
(0.117799 -0.000395869 0.000645554)
(0.116887 -0.000242752 0.000166302)
(0.114237 -0.000504232 0.000659478)
(0.119595 -0.000167434 -0.000188448)
(0.11849 1.69474e-05 -0.000294207)
(0.119629 -6.94345e-05 -0.000184127)
(0.119807 -9.40849e-05 -0.000204971)
(0.114986 -0.000205939 -0.000186328)
(0.117453 -0.000423185 -0.000217396)
(0.114461 -0.000177274 -0.00026615)
(0.117094 -0.000446583 -0.000291578)
(0.117577 1.85282e-05 -6.92504e-05)
(0.116529 6.17734e-05 8.35801e-05)
(0.117666 5.26265e-05 9.77498e-05)
(0.112868 5.72557e-05 -0.000279895)
(0.116069 -4.3213e-06 -0.000257463)
(0.112162 -8.32459e-05 1.19511e-05)
(0.113686 0.000162811 -0.000478557)
(0.116093 2.57636e-05 -0.000319304)
(0.116155 0.000240729 0.000379597)
(0.118141 0.00016046 -7.35623e-05)
(0.116928 -4.93687e-05 -6.99431e-05)
(0.117371 -0.000159338 -0.000319685)
(0.11635 5.65567e-05 -0.000237286)
(0.116362 0.000192471 -0.000535395)
(0.118209 -0.000269277 -8.20034e-05)
(0.117653 -0.00036049 -0.00033132)
(0.118817 -4.45578e-05 -0.000554626)
(0.11904 -0.00035863 -0.000369768)
(0.118919 0.000491162 -8.50645e-05)
(0.118046 0.000354546 -0.000154908)
(0.1187 0.000318744 -0.000156577)
(0.116185 -8.4103e-05 -0.000427572)
(0.119244 -0.000397395 -0.000642022)
(0.118897 -0.000443818 -0.000563482)
(0.117259 -0.000115794 1.51378e-05)
(0.116457 -0.000302315 -1.68164e-05)
(0.112246 5.55617e-05 -0.000282251)
(0.118759 -0.000102781 -0.000199152)
(0.118721 -9.74194e-05 0.000184476)
(0.118117 -5.91806e-05 7.64234e-05)
(0.116189 -5.61004e-05 0.000108523)
(0.115375 -0.000306865 -7.58786e-05)
(0.116664 -0.000321349 -0.000181178)
(0.116167 -0.000267245 -6.77043e-05)
(0.111697 -0.000332905 -0.000115596)
(0.116136 -0.000332808 0.000672311)
(0.112256 -0.000245095 0.000371246)
(0.113771 -0.000302299 0.000606943)
(0.116298 -0.000235488 0.000259367)
(0.115837 0.000132895 0.000193682)
(0.11659 0.000231099 0.000214924)
(0.116254 0.000152843 0.000100065)
(0.117541 1.07386e-06 8.37417e-05)
(0.11278 0.000372003 0.000370519)
(0.11285 -0.00030397 0.000618525)
(0.116006 -5.70151e-05 0.000241656)
(0.115971 0.000127833 -0.000572358)
(0.113939 -0.000234095 -7.23056e-05)
(0.112767 0.000161824 -0.000645736)
(0.116373 -7.66365e-05 -0.00035057)
(0.116951 7.38425e-06 -5.00372e-05)
(0.117957 -0.000275401 -3.18256e-05)
(0.117655 -0.00041378 9.9876e-05)
(0.113624 -0.000146888 5.7478e-05)
(0.112279 -0.000192589 -0.000345279)
(0.113762 8.19153e-06 -0.000253014)
(0.112531 0.000241068 -0.000278912)
(0.104389 -0.000140576 -0.000415074)
(0.117645 -0.000327163 -0.000451313)
(0.119035 -6.91884e-05 -0.000513979)
(0.118039 -0.000161704 -0.000496668)
(0.118444 -0.000203461 -0.000615333)
(0.118444 0.000397295 -0.000210387)
(0.118326 0.000384098 -4.59958e-05)
(0.116258 0.000468067 1.40896e-05)
(0.119005 0.000553106 -0.000187627)
(0.113774 0.000216388 -0.000195862)
(0.114089 -0.000111796 -0.000149198)
(0.116327 0.000199358 -0.000279072)
(0.11671 4.93638e-05 1.47682e-05)
(0.111943 -5.60062e-06 7.78101e-05)
(0.115434 -7.78905e-05 -6.94351e-05)
(0.113512 0.000261937 -0.000386592)
(0.11556 -2.87137e-05 0.000192902)
(0.116225 0.000114733 -5.98713e-05)
(0.11624 -0.000212023 0.000142232)
(0.118119 -8.37052e-05 0.000652857)
(0.116799 -2.10007e-05 -0.000143612)
(0.117814 -0.000125146 -5.33381e-05)
(0.113426 -6.71022e-05 0.000313908)
(0.120004 0.000247112 0.000180262)
(0.118007 0.000291906 -0.000129801)
(0.120148 0.000191192 -0.000107075)
(0.118874 -3.67355e-05 -0.000591672)
(0.116984 0.000264148 0.000374765)
(0.111906 0.000458159 -0.000138077)
(0.113439 0.000372249 0.00014006)
(0.118504 0.000194709 0.000213509)
(0.117679 2.83864e-05 0.000311796)
(0.118506 0.000181239 0.00021915)
(0.119179 -0.000240359 -0.000191286)
(0.117979 -3.36649e-05 -2.11508e-05)
(0.119278 -0.000196676 -0.000131811)
(0.117537 -0.000102694 -0.000160765)
(0.115736 -0.000269642 -0.000105404)
(0.115738 -0.000115298 -0.000191565)
(0.112811 0.000228967 4.97539e-05)
(0.112415 -0.000307828 0.000316001)
(0.11853 0.000171232 -0.000401247)
(0.117998 2.13925e-05 -0.000285022)
(0.118427 -1.90858e-06 -0.000395496)
(0.118871 -2.17327e-05 -0.000334774)
(0.113862 -6.28677e-05 -0.000224715)
(0.112915 -0.000222674 5.75003e-05)
(0.116665 -0.000143604 2.95617e-05)
(0.116784 -1.41192e-06 7.59786e-05)
(0.11394 0.000188176 7.39935e-05)
(0.111967 7.2299e-05 8.42931e-05)
(0.111945 -4.73584e-05 -0.000192869)
(0.105081 -4.25778e-05 6.73273e-05)
(0.118732 0.000438289 -0.000224232)
(0.11182 5.31034e-05 -1.94772e-05)
(0.111938 -0.000392215 -0.000152846)
(0.110013 -0.000210962 4.19511e-05)
(0.104468 -0.000240565 -2.60193e-05)
(0.11921 -0.000308885 0.000307122)
(0.11908 -0.000499484 0.000194505)
(0.119273 -0.000134458 0.00044161)
(0.118551 -0.000380244 0.000307386)
(0.117696 -0.000240287 0.000310634)
(0.117697 -0.00019195 0.000484939)
(0.118908 -0.000208324 0.000550134)
(0.110785 0.000470717 -0.000359142)
(0.111906 -0.000253387 3.96518e-06)
(0.105208 7.71708e-05 -0.000107308)
(0.114855 -6.688e-05 -0.000140686)
(0.112755 -9.85135e-05 -0.000363625)
(0.105505 8.83673e-05 -0.000421554)
(0.113278 -0.000119407 0.000167499)
(0.113289 -0.000372507 -3.94897e-05)
(0.114159 -0.000311061 -2.86227e-05)
(0.104665 -0.000232935 0.000157567)
(0.118677 -0.00010012 9.31333e-05)
(0.1172 -8.56641e-05 -1.11758e-05)
(0.117724 -0.000248233 -0.000370835)
(0.118729 -0.000744493 -0.000410427)
(0.117534 -0.000743348 -0.00068215)
(0.118853 -0.000535398 -0.000799901)
(0.118193 -0.000448998 0.000559342)
(0.118427 -0.000604754 0.000189865)
(0.117815 -0.000160125 0.000232721)
(0.119347 -0.000524018 -0.000197206)
(0.118388 -0.000557447 -1.3853e-05)
(0.117909 -0.000337789 -0.000328687)
(0.119289 -0.000182489 -0.000424055)
(0.116274 3.47768e-07 -0.000279519)
(0.115017 0.000387258 -0.000426441)
(0.110935 -1.55342e-05 -0.000253513)
(0.116699 0.000323069 -0.000466282)
(0.11699 4.2984e-05 -0.000343524)
(0.114817 0.000193685 -0.000707075)
(0.113641 0.00011993 -0.00027818)
(0.115799 -0.000146278 0.000195484)
(0.115518 3.99353e-06 5.90689e-05)
(0.117491 2.24194e-05 -0.000229615)
(0.116496 -0.000162284 0.000132442)
(0.118352 -0.00010302 -0.000346365)
(0.11798 -0.000178606 -0.000384027)
(0.118149 0.000129556 -0.000310424)
(0.119319 0.00025246 -0.00063908)
(0.119661 -2.10844e-05 -0.000280268)
(0.113801 -6.20394e-05 -0.000454714)
(0.111862 0.00013021 -0.000188841)
(0.112445 8.07725e-05 -9.41617e-05)
(0.103953 0.000123748 -0.000228233)
(0.118085 0.000551854 9.33123e-05)
(0.117262 0.000424178 7.36842e-05)
(0.118859 0.000452704 9.16534e-05)
(0.118401 0.000261931 0.000117261)
(0.111048 -0.000240468 2.66958e-05)
(0.104722 -7.52655e-05 0.000220474)
(0.114657 -8.0026e-05 -0.000248527)
(0.114468 -0.00028671 -3.78331e-05)
(0.117213 -0.000120411 -0.000266961)
(0.117244 -0.000224305 -8.04121e-05)
(0.114997 0.00013883 0.000222438)
(0.115466 7.78423e-05 0.000185763)
(0.117257 -0.00019815 5.50418e-05)
(0.113574 1.68404e-05 -0.000625443)
(0.112439 -1.30167e-05 -0.000307339)
(0.113766 0.000111502 -0.000143775)
(0.104871 0.000362804 -0.000275146)
(0.118002 0.000152138 0.000467285)
(0.1177 -0.000115221 0.000156574)
(0.116829 7.26723e-05 0.000403202)
(0.113555 7.50502e-05 0.000375121)
(0.117909 -0.000321261 0.000142314)
(0.116871 -4.08661e-06 0.000394296)
(0.117853 -0.000127501 2.64885e-06)
(0.112911 6.02002e-06 0.000216002)
(0.111872 -1.34166e-05 -0.000129221)
(0.111998 0.000387245 -0.000113741)
(0.105671 8.84419e-05 -0.000108847)
(0.116256 -0.000347224 -0.00044077)
(0.115965 7.47642e-06 -0.000279176)
(0.116211 -5.33016e-05 -0.000126592)
(0.117806 0.000372415 6.83289e-05)
(0.116656 0.000396535 0.000157007)
(0.118588 0.000144666 -0.000131451)
(0.117232 0.000279279 -0.000198166)
(0.116005 -0.000125726 -0.000371677)
(0.113699 -0.000186265 -0.000498416)
(0.11378 -0.000167977 -0.000275515)
(0.10556 -0.000273367 -0.000237945)
(0.117765 -5.6731e-05 -4.93014e-05)
(0.117836 0.000121473 7.78868e-05)
(0.112429 9.02134e-05 -0.000138428)
(0.115909 2.3489e-05 -0.0001219)
(0.116187 0.000296953 -3.61635e-05)
(0.117742 0.000335482 1.30978e-05)
(0.116355 0.000299016 0.000148523)
(0.119269 -2.54522e-05 -0.000571023)
(0.119443 -0.00012916 -0.000469308)
(0.119336 -0.000230688 -0.000402217)
(0.118681 -0.000130642 -0.000378765)
(0.115399 0.00031485 -0.000934598)
(0.117383 0.000204351 -0.000799207)
(0.118008 -0.000172464 -0.000668449)
(0.116575 -0.000329691 6.70882e-05)
(0.117617 -0.000268451 1.65523e-05)
(0.116566 -0.00011333 0.000150718)
(0.113048 -5.02888e-05 -0.000193798)
(0.113867 -0.000833704 -0.000357566)
(0.114302 0.000190293 -0.000268601)
(0.104897 -6.21817e-05 -0.000377999)
(0.119144 0.000320452 4.13532e-05)
(0.119404 0.000238354 -0.000271231)
(0.118875 8.35494e-05 -9.79867e-05)
(0.119454 0.000125493 -0.000386069)
(0.118451 0.000300923 -9.75153e-05)
(0.116975 0.000223826 -6.29334e-05)
(0.117925 -1.00727e-05 -0.000203898)
(0.117627 0.000160057 -0.00032772)
(0.114458 -0.0001803 -0.000852729)
(0.114131 0.000139279 -0.000324827)
(0.115402 -8.74798e-05 -0.000681429)
(0.108401 -0.000618183 -0.000654513)
(0.117279 -0.000231177 -0.000526061)
(0.117321 -0.000306951 -0.000745095)
(0.11874 -0.00025217 -0.000420908)
(0.118572 -0.000214582 -0.000494599)
(0.118117 -0.000139984 -0.000209522)
(0.11692 -0.000195848 -0.000301607)
(0.11684 7.89971e-05 -0.000126176)
(0.113312 0.000120377 -0.000489445)
(0.118206 0.000383237 0.000228029)
(0.117788 0.000393786 -5.00262e-05)
(0.116358 0.000166746 -0.000181681)
(0.112071 -5.18204e-05 -0.000666695)
(0.111681 1.73105e-05 -0.000483297)
(0.113092 0.000202288 -0.00069749)
(0.104324 0.0003076 -0.000331878)
(0.118553 -0.000508159 -9.2636e-05)
(0.118417 -0.000555736 0.000115538)
(0.119408 -0.000509454 5.2743e-05)
(0.114299 0.000953172 -0.00056066)
(0.117133 8.83809e-05 -0.000377872)
(0.116752 0.000227711 -0.000379502)
(0.116667 -0.000220915 0.000424899)
(0.117047 1.22701e-05 0.000194648)
(0.117472 8.83374e-05 0.000304612)
(0.112461 -8.83123e-05 0.00031246)
(0.113909 -0.000213277 -0.000122082)
(0.118367 2.13997e-05 2.32882e-05)
(0.116428 0.000252005 -1.28773e-05)
(0.11842 0.000387947 -6.37029e-05)
(0.112189 0.000358339 -0.000250644)
(0.115444 -0.000103406 -3.14092e-05)
(0.115672 4.03185e-06 7.55205e-05)
(0.109773 3.70254e-05 -0.000233077)
(0.110765 0.000154481 0.000265278)
(0.110377 -0.000131153 0.000107791)
(0.104758 -1.42029e-05 0.000115943)
(0.119175 5.25332e-05 0.000172666)
(0.117784 1.629e-05 -0.000111834)
(0.119166 -0.000120901 0.000119859)
(0.118572 -0.000374152 0.000180845)
(0.11871 -0.000395795 -0.000240421)
(0.118372 -1.72058e-05 -9.37259e-05)
(0.118297 -0.00012677 -0.000253433)
(0.112935 -0.000158574 4.46647e-05)
(0.116251 -0.000214244 -0.000127008)
(0.117761 -0.000233236 -0.000130239)
(0.118045 -7.91947e-05 -0.000182126)
(0.116252 3.6826e-05 9.87363e-05)
(0.119128 -7.32063e-05 -0.000127635)
(0.117666 -1.44186e-05 -0.000267678)
(0.117886 0.000108846 5.54485e-05)
(0.11913 -0.000105372 -5.38159e-05)
(0.119229 1.6944e-05 0.000163164)
(0.11861 -9.93148e-05 7.66761e-06)
(0.119356 -7.40923e-05 -0.00019059)
(0.118115 -0.000130362 -0.000205495)
(0.117949 -0.000219741 -0.00032373)
(0.119147 -5.60789e-05 -0.000528306)
(0.112009 0.00121998 -0.000826602)
(0.114577 0.0002766 -0.00116352)
(0.113649 0.00059898 -0.000817427)
(0.103015 0.000203294 -0.000436826)
(0.118186 -0.000155961 -0.000199046)
(0.118325 -0.00026872 -0.00020818)
(0.119248 -0.000176968 -0.000440366)
(0.117212 -0.000158389 0.00022497)
(0.118453 -9.9099e-05 0.000101168)
(0.112763 -9.56111e-06 -2.8697e-05)
(0.114121 -0.000147298 1.25649e-05)
(0.113795 -5.92003e-06 2.29992e-05)
(0.116605 -0.00022093 0.00019382)
(0.116374 -0.000280556 -3.74564e-05)
(0.113149 -0.000335245 -0.000810938)
(0.113659 -0.000451411 -6.08247e-05)
(0.104284 -0.000349734 -9.45662e-05)
(0.115368 0.000395576 -0.000664791)
(0.116766 0.000181087 -0.000790214)
(0.111854 -0.000243987 -0.000411447)
(0.112972 -0.000446835 -7.21564e-05)
(0.115691 -0.000531388 -0.000138679)
(0.112561 -0.000346408 -0.000328818)
(0.115509 -0.000381884 -0.000168796)
(0.117033 0.000579191 2.99836e-05)
(0.116892 0.000757865 -7.55247e-05)
(0.115696 0.000902124 0.000300723)
(0.112933 0.000630633 0.000250657)
(0.115342 0.000307285 -0.00016552)
(0.116034 -2.95502e-05 -0.000273113)
(0.117952 0.000269713 -3.53408e-05)
(0.118534 -0.000153197 1.7031e-07)
(0.118243 -0.00010873 7.35631e-05)
(0.112585 -7.79034e-05 0.000100561)
(0.116459 8.45656e-05 0.000190341)
(0.116139 0.000304116 0.000108266)
(0.117296 6.7616e-05 9.2467e-05)
(0.112307 3.2971e-05 -0.000212011)
(0.113044 -0.000616408 0.000114474)
(0.113559 -0.000201647 -1.38259e-05)
(0.112541 -0.000776196 -0.000255805)
(0.104688 -0.000513438 0.000140993)
(0.117684 0.000206284 0.000129037)
(0.117748 -9.14713e-05 0.000117338)
(0.115769 5.47552e-05 -0.000288139)
(0.11788 -0.000216318 -0.000159127)
(0.117647 0.000119941 0.000205256)
(0.116407 -9.64357e-05 0.000286463)
(0.116359 0.000447813 8.36397e-05)
(0.115281 -0.000291152 -0.00036482)
(0.111851 -3.12755e-06 -0.000185659)
(0.111805 -2.80961e-05 -0.000235346)
(0.113323 -0.000316955 -0.000271334)
(0.112537 8.17885e-05 -0.00033508)
(0.104694 -5.64943e-05 3.76988e-05)
(0.113937 -7.16236e-06 -0.000271318)
(0.104479 9.22376e-06 -0.000306411)
(0.118178 -0.000317772 -7.17801e-06)
(0.119574 -9.95129e-05 0.000265729)
(0.119669 -0.00022426 -5.45872e-05)
(0.105595 8.79645e-05 0.000224253)
(0.112564 -0.000452078 -0.000611327)
(0.113503 -0.000332577 -0.000250378)
(0.113096 -0.000602782 -0.000549011)
(0.103956 -0.000269133 -0.000817867)
(0.112499 0.000570749 -0.000109121)
(0.115526 0.000436978 -2.69114e-05)
(0.111964 -0.000134795 0.00052631)
(0.111023 0.000149168 0.0002379)
(0.112529 0.000420177 0.00050171)
(0.104656 -7.86701e-05 0.000251069)
(0.118353 -0.000774274 0.000192505)
(0.116616 -0.000789754 0.000401478)
(0.116924 -0.000625819 0.000296284)
(0.118412 -0.000706924 0.000119906)
(0.114905 -0.000215382 -0.000584133)
(0.113986 -0.000249264 -0.000265434)
(0.113375 -0.000132304 -0.000243989)
(0.10436 0.000111216 -0.000254368)
(0.117583 0.000185996 -0.000234145)
(0.116781 0.000179614 -0.000229775)
(0.117192 -0.000442508 -0.000206705)
(0.113595 2.9889e-05 -0.000379317)
(0.113877 -0.000378955 -0.000435033)
(0.113839 -0.000354715 -0.000529263)
(0.11621 -0.000416609 -0.00053946)
(0.117946 9.33946e-05 -0.000415137)
(0.117827 0.000147532 -0.000432337)
(0.117018 0.000202932 -0.000360475)
(0.112402 0.000378366 -0.000526425)
(0.113417 1.65802e-05 6.73445e-05)
(0.111847 -0.000326366 0.000127074)
(0.11272 -0.000403195 0.000417645)
(0.104544 -0.000313988 -9.30272e-06)
(0.117279 0.000378356 7.71527e-05)
(0.11372 0.00033159 -0.000383516)
(0.113461 -7.96322e-05 -1.8661e-05)
(0.116789 -0.00059934 -3.3438e-05)
(0.113684 -0.000398175 7.22642e-05)
(0.116556 -0.000449295 0.000282645)
(0.118098 1.15621e-05 -5.9193e-05)
(0.116477 -7.40217e-05 -0.000212152)
(0.117967 -5.44077e-05 -0.00019804)
(0.117547 0.000142667 0.000200355)
(0.117626 -0.000189616 1.95551e-05)
(0.112918 -0.000215194 0.000102222)
(0.116251 -0.000411111 -0.000134001)
(0.116622 -0.000150405 -0.000338112)
(0.117787 -6.46016e-05 -0.000186793)
(0.117156 -0.00030436 -7.07609e-05)
(0.117454 -0.000340187 0.00027004)
(0.118679 -0.000203104 0.000187516)
(0.119204 -0.000350549 0.000179955)
(0.117748 5.36874e-05 -0.000503185)
(0.117685 -5.52918e-06 -0.00051008)
(0.119293 9.69679e-05 -0.000579824)
(0.115948 0.000250214 -0.000423003)
(0.117459 0.000188763 -0.000296073)
(0.11777 -6.35974e-05 -0.000627654)
(0.114803 -0.000645549 -0.000227689)
(0.118538 0.000258947 -0.000601187)
(0.116803 -0.000279386 0.000206446)
(0.118302 0.000155778 0.000366138)
(0.118234 3.56587e-05 0.000158007)
(0.118414 -0.000202761 0.000172382)
(0.117117 8.81469e-05 6.97685e-05)
(0.117762 -0.000121314 0.000168027)
(0.112117 -3.41887e-05 2.17612e-05)
(0.112347 -4.83548e-05 -0.000485909)
(0.112403 -0.000233378 -0.000265929)
(0.113023 -0.000641413 -0.000274808)
(0.11585 -0.000547579 -0.000264123)
(0.116074 -0.000487172 -0.000311336)
(0.117365 -0.000399697 0.000101068)
(0.11714 -0.000298844 -7.09583e-05)
(0.118853 -0.000235966 -0.000298238)
(0.118869 -0.000228643 8.62601e-06)
(0.118292 -0.000153984 -0.000288557)
(0.116977 -0.000313946 -0.00038785)
(0.116741 9.27538e-05 -0.000241948)
(0.118223 0.000180206 -0.000113353)
(0.118112 0.000325568 -0.00031574)
(0.119092 6.55308e-05 -0.000545108)
(0.118429 0.000157845 -0.000129381)
(0.119054 -6.62675e-05 -0.000492033)
(0.118124 -0.000299564 -3.41121e-06)
(0.117488 -5.54047e-05 1.27448e-06)
(0.116528 -0.000655521 0.000188887)
(0.118541 -0.000432782 6.5892e-05)
(0.117488 -8.71127e-05 3.68734e-05)
(0.114509 -0.00010454 -0.000358797)
(0.118217 -6.81594e-05 -1.72711e-05)
(0.114298 0.000102516 -0.000619048)
(0.118298 -5.20802e-05 -8.02507e-05)
(0.119087 -0.000128676 -0.000408133)
(0.118023 5.45937e-06 -0.000301319)
(0.118152 -3.61723e-06 0.000225654)
(0.112495 -1.00851e-05 -8.23474e-05)
(0.111927 -0.000184205 -0.000408198)
(0.105459 -8.32917e-05 -0.000286262)
(0.112462 -0.00059824 -0.00072988)
(0.104345 -0.000377247 -0.000180091)
(0.119276 0.000248175 0.00064599)
(0.11777 0.000262542 0.000181197)
(0.116878 -0.000366547 -0.000346488)
(0.112485 -0.000254414 -0.000239682)
(0.11794 -2.97009e-06 -0.000627781)
(0.117716 -5.47562e-05 -0.00043096)
(0.116759 -0.000173977 -0.000258327)
(0.112105 -0.000137084 -0.000279)
(0.11899 0.000314052 0.000565649)
(0.119041 9.73367e-05 0.000594913)
(0.119101 0.0001518 0.000535676)
(0.118155 0.000257872 0.000578988)
(0.117753 0.00058205 0.000217775)
(0.11777 0.000410724 0.00015527)
(0.118736 0.000493717 0.0001259)
(0.111664 -0.000125385 -0.000319449)
(0.113183 -2.60037e-05 -0.000169388)
(0.103955 -0.000265256 -0.000374741)
(0.11403 0.000271619 -0.000333917)
(0.113099 -0.000106081 -0.000291651)
(0.112412 0.00019868 -0.000393537)
(0.1047 -9.34693e-05 -0.000657248)
(0.118648 -7.14311e-05 2.36903e-05)
(0.117161 -0.000220737 -0.000378964)
(0.118733 -0.00034484 -0.000118783)
(0.11601 -0.000175705 -0.000267319)
(0.117752 -0.000297635 -0.000343474)
(0.112823 -0.000211655 -0.000445553)
(0.113374 -0.000148047 -0.000551918)
(0.104669 -0.000278265 -0.000329231)
(0.114111 -0.000264594 -0.00015575)
(0.11225 -2.34512e-05 -2.85663e-05)
(0.11193 -1.08038e-05 0.000181638)
(0.105627 -0.00010653 8.09784e-05)
(0.118832 -0.000474554 9.0643e-05)
(0.117682 -0.000322279 0.000280291)
(0.117522 -0.000270474 -6.14889e-05)
(0.118802 -0.000219777 -0.000118117)
(0.113818 -5.03657e-05 -0.00105129)
(0.113624 0.000138148 -0.000654407)
(0.116039 -0.000112268 -0.000688849)
(0.105082 -0.000160555 -0.000933738)
(0.116476 0.000244179 0.000163249)
(0.116916 -0.000336647 0.000180504)
(0.116727 -8.76156e-05 0.000216551)
(0.112489 -0.000108579 0.000258601)
(0.11405 -0.000400712 -0.000341932)
(0.116724 -0.00014213 -0.000529036)
(0.116564 5.49406e-05 -0.000669776)
(0.117202 -9.37041e-05 -0.000126348)
(0.118788 -0.000147138 1.19287e-05)
(0.117891 4.52087e-05 0.000278716)
(0.114528 0.000274507 -0.000883211)
(0.112531 0.000442296 -0.000584564)
(0.114087 0.000835085 -0.000654381)
(0.103679 -0.000207706 -0.000673218)
(0.119774 -5.26487e-05 6.86714e-05)
(0.119679 -0.000147186 6.18895e-05)
(0.118041 2.26571e-05 -2.10794e-06)
(0.119688 5.08718e-05 5.04259e-05)
(0.117928 -1.08107e-05 -0.000435532)
(0.115659 -8.11334e-05 -0.000320799)
(0.115218 5.33699e-05 -0.000598495)
(0.117718 -0.000158072 -0.000199538)
(0.114796 -0.000884573 -0.000287313)
(0.115114 -0.000787577 -7.22015e-06)
(0.104891 -0.000288273 -0.0003928)
(0.113926 -0.000596909 0.000818768)
(0.112857 -0.000238478 0.000757648)
(0.114387 -0.000542678 0.00052179)
(0.103824 2.64273e-05 0.000156593)
(0.116368 -0.000296913 -8.93437e-05)
(0.112289 -0.000279526 -4.14161e-05)
(0.114179 -0.000275138 -0.000706187)
(0.119646 -0.000127725 -0.000190763)
(0.118521 -0.000105826 -0.000290223)
(0.112685 0.000280932 0.000277569)
(0.11197 0.000144615 0.000222628)
(0.113557 -9.67997e-05 -7.89873e-05)
(0.103952 -6.38275e-05 0.000216516)
(0.114642 -0.000156528 -0.000726687)
(0.114526 0.000336877 -0.000446517)
(0.104931 -0.000343306 -0.000798123)
(0.112025 -0.000154099 0.000265752)
(0.114186 -5.71002e-06 0.000261302)
(0.112308 -0.000366824 8.29798e-05)
(0.105104 -0.000200951 9.66687e-05)
(0.11219 -0.000824418 -0.000177685)
(0.114374 -0.000679824 0.000391257)
(0.113213 -0.000947996 -0.000123886)
(0.103567 -0.000484902 -0.000230296)
(0.114997 0.00020937 -0.000345335)
(0.116153 0.000112988 9.60153e-05)
(0.11644 -0.000144841 -0.000110284)
(0.111473 -7.51138e-06 -4.14239e-05)
(0.112891 0.000439454 0.000134551)
(0.112214 0.000250525 0.00025833)
(0.105026 0.000146106 0.000203467)
(0.118634 -0.00054313 -3.67541e-06)
(0.118209 -0.000395744 9.55279e-05)
(0.118874 -0.000461209 -4.67319e-05)
(0.118528 -0.000459737 0.000123155)
(0.11781 -0.000258209 0.000198248)
(0.117906 -0.000174248 2.30925e-05)
(0.119286 -0.000271956 0.00019426)
(0.119541 -0.000268136 0.000257836)
(0.110986 0.000161261 -0.000899699)
(0.111096 0.000113954 -0.000331348)
(0.112819 0.000163229 -0.000484394)
(0.105569 -0.000236339 -0.000423917)
(0.113902 -0.000375527 0.000389571)
(0.114633 -0.00102662 3.20988e-05)
(0.114614 -0.000482095 0.000140295)
(0.10788 -0.000390358 0.00012717)
(0.115889 0.000729005 -0.000258838)
(0.117281 0.000440613 -0.000437891)
(0.11732 0.000377646 -0.000596069)
(0.113166 0.000154272 -0.000698784)
(0.113943 -1.84413e-05 3.05936e-05)
(0.11179 -7.58515e-05 -8.0706e-05)
(0.111288 -0.000235028 -0.000220147)
(0.105151 0.000102332 -0.000101458)
(0.11795 -6.7134e-05 0.000406319)
(0.113236 1.95757e-05 1.74059e-05)
(0.117698 -0.000396265 -0.000376421)
(0.11899 -5.36136e-05 -0.00038976)
(0.118312 -0.000119346 -0.000165648)
(0.118112 -6.08418e-05 -0.000198029)
(0.116953 0.000364415 2.41522e-05)
(0.115957 0.000331615 9.11879e-05)
(0.112948 0.000449877 0.000261881)
(0.118392 0.00012571 2.27424e-05)
(0.117604 0.000167903 0.000347658)
(0.118336 0.000102654 0.00037639)
(0.118319 0.000206142 0.00029994)
(0.118348 -0.000104273 -3.36157e-05)
(0.118217 -0.00033466 -8.65392e-05)
(0.112768 -0.000246707 -0.000106105)
(0.116998 -0.000106353 -0.000269422)
(0.116034 -0.00021347 -5.50382e-05)
(0.116981 -0.000220492 1.54685e-05)
(0.111322 -2.14389e-05 -0.000337404)
(0.117118 -3.02732e-05 -7.24534e-05)
(0.117382 0.000247203 3.09751e-05)
(0.112532 0.000142569 0.000103278)
(0.113523 -0.000460691 0.00055554)
(0.116567 -0.000428782 0.000416794)
(0.116751 -0.000678923 0.000513184)
(0.115433 5.09854e-05 0.000193106)
(0.116769 -0.000271668 -0.000106189)
(0.116867 -0.000173329 6.59693e-05)
(0.112305 6.64787e-06 0.000223717)
(0.113399 0.000431308 -1.43843e-05)
(0.111032 0.000360865 -0.000390802)
(0.104113 0.000882484 -0.000372934)
(0.117541 -3.66059e-05 2.71615e-05)
(0.118767 9.00762e-05 -0.00017001)
(0.119199 0.000559431 -0.000223679)
(0.116448 -0.000276019 0.0001827)
(0.116702 -0.000232911 0.000387496)
(0.111027 -0.000529954 0.000506942)
(0.117761 0.000316483 0.000126512)
(0.118596 3.76099e-06 0.000100667)
(0.118478 0.000251518 -4.61807e-05)
(0.1186 0.000306883 -6.35118e-06)
(0.113385 -5.70114e-05 -0.000107686)
(0.114071 -0.000164923 0.000126765)
(0.113585 -0.000366447 -1.20908e-05)
(0.104025 9.87793e-05 5.39039e-05)
(0.112006 4.23738e-05 0.000334777)
(0.111836 -0.000171815 0.000299987)
(0.113099 -8.98221e-05 0.000513578)
(0.104463 -0.000248853 0.000297949)
(0.117265 -0.00020653 -0.000329254)
(0.118124 -0.00013396 0.000154045)
(0.118951 -0.000277787 -3.91792e-05)
(0.118644 1.77929e-05 0.000137798)
(0.117437 -0.000302684 -0.00025898)
(0.118605 9.24613e-07 -0.000325264)
(0.1171 0.000133014 -0.000255535)
(0.115342 -0.000169453 0.00066299)
(0.117274 -0.000203642 0.000166819)
(0.116883 -0.000140856 0.000341947)
(0.115816 -0.000205053 0.000653671)
(0.11643 -0.000122196 0.000132704)
(0.117697 -0.000310055 1.32718e-05)
(0.112731 -7.38393e-05 0.000236173)
(0.118033 -0.000140195 -0.000511068)
(0.118155 8.88683e-05 -0.000406938)
(0.116578 -1.23978e-05 -0.000162225)
(0.112533 0.000219144 -0.000374799)
(0.116906 -7.83048e-06 -0.000567075)
(0.11398 -9.18599e-05 -0.000551418)
(0.116796 0.000158994 -0.000419786)
(0.113899 0.000262575 0.00025897)
(0.116808 0.000385024 0.000397178)
(0.114614 0.000141757 0.000588688)
(0.117118 0.000269229 0.000305611)
(0.118773 0.000133269 -0.000402499)
(0.116761 0.000300857 -0.000444247)
(0.117231 -0.000130173 -0.00065617)
(0.113849 3.72212e-05 -6.38023e-06)
(0.104771 -7.23633e-05 -0.000246855)
(0.113701 9.70863e-05 -5.19518e-05)
(0.116317 -6.88797e-05 -6.06197e-05)
(0.119077 0.000321819 -1.83664e-05)
(0.118908 6.0409e-05 -1.97426e-05)
(0.118325 0.000153861 0.000130222)
(0.118998 0.00011353 0.000212059)
(0.118186 -0.000432927 -3.56049e-05)
(0.118151 -0.000540143 -0.000204794)
(0.118072 -0.000468303 -0.000161642)
(0.118229 -0.000481042 -0.000334211)
(0.118197 -0.000530805 7.26964e-05)
(0.118004 -0.000567139 6.29199e-05)
(0.116488 -0.000516992 0.000211527)
(0.115804 -0.000990538 0.000163306)
(0.117553 -0.00095675 -0.00013058)
(0.117016 -0.000930866 -0.000342631)
(0.115918 -0.000144141 -0.000257334)
(0.115824 0.000100927 -0.00048528)
(0.112682 -9.72591e-06 0.000169059)
(0.118134 0.000186493 -0.00036785)
(0.113201 -7.49882e-05 -0.000296608)
(0.115908 0.000501089 -0.000323704)
(0.116011 0.000524328 -0.000485529)
(0.116918 6.10164e-05 -0.000352572)
(0.112183 -6.1447e-05 -0.000307559)
(0.118544 0.00012966 -0.000234128)
(0.11723 0.000235349 -0.000262248)
(0.117797 4.3772e-05 -0.000382713)
(0.10494 7.71461e-06 -0.000187353)
(0.11679 0.000119771 -0.000196647)
(0.112945 -6.03646e-05 -9.61587e-05)
(0.114298 0.000157211 -0.000168757)
(0.116711 0.000219657 0.000148831)
(0.114035 0.000240692 -0.000165838)
(0.11697 0.000467814 -6.60044e-05)
(0.117262 -2.23979e-05 -0.000276694)
(0.116807 -9.23057e-06 -0.00034158)
(0.116541 6.30218e-05 -5.3665e-05)
(0.113378 0.000168016 -0.00034161)
(0.118634 -4.26357e-05 -0.000373582)
(0.117187 -0.000140384 -0.000539988)
(0.118141 -0.000242394 -0.000523889)
(0.11689 -0.000339698 -0.000441656)
(0.116654 -0.000483776 -0.000378958)
(0.118428 -0.000329538 -0.000251724)
(0.117619 -0.000371895 -0.000123326)
(0.118355 0.000176268 -0.000391176)
(0.118582 -0.000105724 -0.000305172)
(0.112901 -0.00062885 -0.000387564)
(0.113763 -0.000808154 -0.000436507)
(0.104166 -9.61735e-05 -0.000366066)
(0.115854 -0.000521219 0.000214346)
(0.117284 -0.000376261 -4.67114e-06)
(0.118708 -0.000306953 -0.000197326)
(0.117018 -0.000147241 -0.000232728)
(0.118863 -0.000350959 -0.000159436)
(0.118671 -4.38347e-05 0.00012915)
(0.118402 6.5563e-05 -0.000123168)
(0.11773 0.000214717 0.000211092)
(0.114532 -0.000203581 -0.00044701)
(0.11789 -0.000228313 -0.00052375)
(0.110071 0.000234399 0.000193804)
(0.111797 -0.000179295 0.000655906)
(0.111554 -0.000302214 0.000345289)
(0.102839 -0.000356183 0.00040705)
(0.117695 -0.000432429 4.3773e-06)
(0.117082 -0.000489763 0.000196707)
(0.113485 -0.00044258 0.00066905)
(0.111603 -0.000824413 -0.000312278)
(0.105104 -0.000386191 -0.000199349)
(0.116182 0.000303297 -0.000193284)
(0.116348 0.000400098 0.00013592)
(0.102316 8.38603e-05 -0.00021929)
(0.117185 -0.000188833 0.000301401)
(0.118818 -0.000315533 0.000297845)
(0.112376 -0.000202228 0.000238133)
(0.114659 0.000343157 0.00029357)
(0.115258 -0.000174276 4.1752e-05)
(0.11311 0.000405222 -0.000194275)
(0.113207 0.000178375 -0.000263319)
(0.113579 0.00032417 -0.000494188)
(0.104009 3.70833e-05 -0.000110872)
(0.116902 -0.00012095 0.000123415)
(0.116392 -5.03426e-05 0.000161413)
(0.115867 -4.2599e-05 0.000219822)
(0.117581 0.000558147 -0.0002239)
(0.118384 0.00056454 -0.000220073)
(0.115863 1.00061e-05 -0.00015543)
(0.116637 -5.59141e-05 -0.000293282)
(0.118506 -0.00045248 -0.000198127)
(0.118087 0.000115715 0.000237389)
(0.113921 -0.000422311 -4.7545e-05)
(0.113737 -0.000191534 -0.000113889)
(0.103532 -0.000187236 6.35153e-05)
(0.112484 -0.000721101 0.000101094)
(0.111338 -0.000459173 0.000423546)
(0.104804 -0.000432302 0.000108068)
(0.117948 -0.000628277 0.000251316)
(0.116403 -0.000161876 0.00042184)
(0.117378 -0.000446739 0.000489131)
(0.116258 -0.00031002 3.30178e-05)
(0.118136 0.000215768 -0.000574089)
(0.118955 9.21002e-05 -0.000563842)
(0.116916 0.000232422 -0.000436427)
(0.113166 0.000478223 0.000105621)
(0.113859 0.000193171 2.67653e-05)
(0.103299 0.00030993 -0.000414586)
(0.118504 -0.000653882 6.97983e-05)
(0.118493 -0.000685807 0.000256043)
(0.118278 -0.000548272 0.000236129)
(0.1153 -5.80799e-05 -0.000191173)
(0.113339 0.000140174 -0.000445139)
(0.105035 9.56714e-06 -0.000351557)
(0.11186 -0.000145075 0.00017636)
(0.111854 -0.000391569 7.69633e-05)
(0.105499 -0.000208936 -5.04138e-05)
(0.116491 0.000188209 -0.000308752)
(0.116223 0.000161533 -0.000234712)
(0.117412 0.000288566 -4.14219e-05)
(0.112754 -0.000169703 -0.000244144)
(0.116373 -0.000232786 -0.000281322)
(0.118063 -0.000351948 3.58454e-05)
(0.116215 -0.000222762 0.000373925)
(0.11752 -0.000220171 1.72434e-05)
(0.115203 -0.0009223 0.000296148)
(0.116612 -0.000698374 8.11123e-05)
(0.116705 -0.000711094 -1.81123e-05)
(0.111031 -0.000661527 -6.41044e-05)
(0.112218 -0.000238754 0.000502283)
(0.115496 9.17657e-05 0.00046032)