/*--------------------------------*- C++ -*----------------------------------*\
| =========                 |                                                 |
| \\      /  F ield         | OpenFOAM: The Open Source CFD Toolbox           |
|  \\    /   O peration     | Version:  2212                                  |
|   \\  /    A nd           | Website:  www.openfoam.com                      |
|    \\/     M anipulation  |                                                 |
\*---------------------------------------------------------------------------*/
FoamFile
{
    version     2.0;
    format      ascii;
    arch        "LSB;label=32;scalar=64";
    class       volScalarField;
    location    "0.034";
    object      epsilon;
}
// * * * * * * * * * * * * * * * * * * * * * * * * * * * * * * * * * * * * * //

dimensions      [0 2 -3 0 0 0 0];

internalField   nonuniform List<scalar> 
31639
(
0.725902
0.721264
0.726407
0.722216
0.737001
0.724605
0.746956
0.731561
0.729217
0.720928
0.725542
0.72088
0.719305
0.717727
0.717255
0.747619
0.729432
0.737389
0.734423
0.722734
0.765092
0.72881
0.720142
0.738179
0.743204
0.729323
0.720142
0.605257
0.74054
0.724754
0.720359
0.740226
0.719532
0.743083
0.762808
0.724162
0.764286
0.725133
0.721579
0.777534
0.753257
0.758525
0.716365
0.727093
0.729603
0.720613
0.72216
0.735544
0.727198
0.722166
0.720306
0.766083
0.727432
0.773326
0.735034
0.732795
0.764976
0.723277
0.720094
0.763841
0.730341
0.731651
0.752045
0.720229
0.728266
0.719724
0.723943
0.722472
0.759018
0.721222
0.722022
0.71596
0.718116
0.721251
0.72727
0.766394
0.719147
0.736639
0.718555
0.729759
0.741485
0.779288
0.719553
0.723086
0.713511
0.719891
0.721047
0.720692
0.750114
0.721845
0.721746
0.731194
0.757972
0.720433
0.739437
0.720791
0.73113
0.720686
0.722852
0.762407
0.724404
0.720751
0.7156
0.762991
0.75818
0.721617
0.763506
0.770401
0.746225
0.772126
0.710282
0.758317
0.725128
0.739481
0.718257
0.767714
0.745612
0.742587
0.72941
0.722188
0.728522
0.722018
0.717632
0.72868
0.734661
0.724114
0.723995
0.7433
0.744009
0.717046
0.717702
0.71424
0.714144
0.739855
0.726315
0.721029
0.759967
0.765515
0.719997
0.722405
0.721945
0.722348
0.721534
0.764415
0.774816
0.718379
0.723903
0.762239
0.756536
0.722089
0.757011
0.731014
0.736026
0.72664
0.761486
0.721309
0.730807
0.759372
0.750478
0.739507
0.71974
0.764942
0.7571
0.765526
0.767351
0.721242
0.764293
0.723139
0.72098
0.757327
0.714963
0.720535
0.760955
0.720032
0.718543
0.724789
0.721975
0.72358
0.720726
0.714418
0.719502
0.729017
0.712101
0.774352
0.733399
0.722139
0.713705
0.723306
0.767675
0.76262
0.731352
0.727752
0.724313
0.721161
0.720553
0.737385
0.742769
0.71797
0.759865
0.735376
0.722455
0.725106
0.70982
0.710722
0.737437
0.723782
0.719764
0.716459
0.724093
0.777015
0.722651
0.739725
0.725
0.725349
0.733665
0.717176
0.757515
0.744731
0.728347
0.722165
0.71796
0.738449
0.763311
0.731957
0.764864
0.742039
0.724702
0.746692
0.761789
0.729158
0.725481
0.723152
0.753433
0.769759
0.723609
0.723789
0.754731
0.716669
0.758963
0.762586
0.719456
0.721559
0.718952
0.745691
0.760194
0.729972
0.716419
0.719858
0.752435
0.721868
0.714052
0.767726
0.748809
0.722799
0.726277
0.742643
0.759179
0.718076
0.71731
0.744921
0.721421
0.719525
0.732829
0.721316
0.720798
0.735164
0.756276
0.741186
0.710786
0.713801
0.71004
0.73817
0.737151
0.735982
0.72259
0.728493
0.760332
0.737904
0.751267
0.720103
0.736343
0.72506
0.724129
0.742518
0.756146
0.764719
0.757871
0.770795
0.716306
0.754398
0.73127
0.716575
0.737658
0.754509
0.726924
0.739616
0.763428
0.725047
0.742694
0.764809
0.723901
0.750103
0.721253
0.717315
0.762153
0.735135
0.71803
0.767711
0.770188
0.71965
0.721193
0.70873
0.76431
0.766011
0.719794
0.748901
0.739776
0.724005
0.725626
0.720917
0.720982
0.72117
0.758702
0.716968
0.77199
0.77312
0.724413
0.719877
0.718854
0.721372
0.727747
0.753599
0.714676
0.717629
0.723388
0.730237
0.724862
0.721354
0.713931
0.727092
0.718991
0.721563
0.718317
0.727512
0.717361
0.730738
0.723313
0.712026
0.761217
0.736817
0.723321
0.73676
0.730336
0.714514
0.720074
0.761529
0.719026
0.721682
0.766201
0.726745
0.757345
0.734502
0.716234
0.767599
0.722925
0.722605
0.760709
0.73027
0.758753
0.729628
0.728141
0.733884
0.771184
0.726972
0.756331
0.727468
0.720399
0.724644
0.72837
0.761348
0.714822
0.758645
0.719348
0.767871
0.71912
0.716141
0.719772
0.719152
0.738087
0.731547
0.723105
0.727611
0.721148
0.771254
0.728177
0.721103
0.715107
0.717975
0.729812
0.728453
0.731245
0.766175
0.737979
0.724589
0.718467
0.768965
0.722811
0.720459
0.72389
0.710546
0.716086
0.738269
0.716742
0.749345
0.726682
0.72261
0.769128
0.730798
0.724746
0.760907
0.75914
0.760499
0.746335
0.771095
0.724998
0.709631
0.745674
0.731408
0.760331
0.717974
0.720457
0.722134
0.722281
0.734703
0.724486
0.726656
0.745417
0.718674
0.718894
0.761966
0.721274
0.725499
0.719521
0.727887
0.722542
0.717545
0.727362
0.724386
0.7227
0.729878
0.758281
0.724635
0.771619
0.7501
0.720486
0.765497
0.779205
0.73892
0.720792
0.724419
0.763529
0.727278
0.748845
0.719225
0.729308
0.619052
0.718723
0.773883
0.718649
0.718956
0.724914
0.717908
0.736684
0.752939
0.728793
0.717423
0.717615
0.767597
0.766665
0.721125
0.764516
0.756874
0.726453
0.768771
0.735757
0.749992
0.731563
0.75677
0.720338
0.720351
0.719486
0.718881
0.761352
0.721053
0.723002
0.731575
0.728995
0.721086
0.717361
0.731937
0.743499
0.722281
0.720483
0.718471
0.737253
0.721422
0.721337
0.768245
0.77734
0.725807
0.731005
0.719721
0.724539
0.731381
0.738026
0.718369
0.726767
0.742593
0.726626
0.756994
0.721273
0.734071
0.725285
0.764793
0.752208
0.752696
0.718543
0.718011
0.764468
0.727607
0.744773
0.725321
0.729648
0.716536
0.735837
0.763498
0.722046
0.716555
0.752827
0.722574
0.722724
0.711928
0.721546
0.610016
0.756743
0.719295
0.722063
0.759531
0.759375
0.722832
0.721524
0.727116
0.759215
0.738396
0.72129
0.721008
0.755316
0.758384
0.724261
0.720368
0.764828
0.767112
0.723779
0.763995
0.720741
0.726096
0.763748
0.718462
0.735334
0.74067
0.776512
0.721288
0.745843
0.754873
0.718096
0.722639
0.723112
0.719679
0.766044
0.736036
0.729729
0.736479
0.768125
0.748823
0.739701
0.713957
0.72007
0.727422
0.717042
0.720074
0.747847
0.717203
0.727922
0.730479
0.752458
0.721926
0.731361
0.731578
0.761893
0.768904
0.719462
0.742317
0.72256
0.721785
0.754478
0.729025
0.719897
0.745657
0.727193
0.755391
0.718133
0.723569
0.772279
0.721278
0.722179
0.607367
0.75991
0.76911
0.7421
0.720924
0.723382
0.724898
0.72032
0.720188
0.722644
0.724211
0.763416
0.718408
0.770965
0.722122
0.737526
0.736718
0.721358
0.720761
0.750583
0.762863
0.772794
0.73654
0.719114
0.742493
0.72096
0.746326
0.717316
0.763397
0.718896
0.724278
0.722342
0.720402
0.714105
0.720878
0.74187
0.72648
0.726392
0.72562
0.758019
0.717756
0.755284
0.722523
0.739768
0.723324
0.757616
0.72061
0.764184
0.719681
0.740661
0.72796
0.725484
0.719818
0.752496
0.706679
0.758143
0.780749
0.767841
0.767294
0.756539
0.727248
0.773438
0.709237
0.730986
0.773077
0.723775
0.763341
0.73364
0.716008
0.733657
0.727754
0.718699
0.716087
0.725472
0.730685
0.716241
0.741439
0.735611
0.762129
0.637088
0.72311
0.721561
0.726852
0.722287
0.761836
0.722423
0.726058
0.719925
0.716754
0.717767
0.721233
0.721421
0.722719
0.72692
0.724585
0.725343
0.759338
0.721777
0.737075
0.726889
0.714577
0.717557
0.739173
0.726693
0.72675
0.72485
0.743556
0.769845
0.720083
0.730365
0.743593
0.768529
0.716879
0.759181
0.711188
0.734465
0.718785
0.733207
0.722989
0.732155
0.765134
0.721669
0.747045
0.734125
0.756162
0.716769
0.71898
0.720587
0.724118
0.717198
0.72965
0.744675
0.726726
0.766204
0.715768
0.728613
0.713322
0.760143
0.717445
0.718437
0.72159
0.747773
0.723584
0.717712
0.723417
0.762026
0.766438
0.71791
0.75913
0.741563
0.728324
0.724084
0.714944
0.762938
0.715486
0.718801
0.752033
0.756519
0.713223
0.7558
0.741537
0.760951
0.727124
0.748771
0.74033
0.723073
0.761982
0.719621
0.720039
0.7204
0.726066
0.718187
0.763837
0.716109
0.730619
0.7405
0.72126
0.7215
0.729637
0.722756
0.718775
0.72929
0.725368
0.728869
0.717446
0.737295
0.722627
0.717821
0.756906
0.712415
0.730132
0.71788
0.733045
0.728317
0.721607
0.724751
0.714021
0.731512
0.722528
0.728231
0.732777
0.75896
0.728302
0.720638
0.7728
0.735505
0.722252
0.737866
0.722902
0.720224
0.71915
0.716132
0.724734
0.725367
0.724991
0.727909
0.722766
0.740508
0.761541
0.720965
0.772054
0.724151
0.736309
0.722624
0.727028
0.723464
0.766217
0.724237
0.759228
0.722165
0.748696
0.720633
0.721195
0.719148
0.760366
0.721011
0.723244
0.736744
0.729214
0.733734
0.770618
0.724273
0.724592
0.722749
0.716315
0.718734
0.718474
0.746887
0.720907
0.750828
0.73653
0.722325
0.754308
0.754245
0.730622
0.719902
0.741762
0.732451
0.734009
0.740252
0.718737
0.746023
0.721778
0.731592
0.774989
0.731433
0.714923
0.731644
0.739623
0.717019
0.719941
0.759304
0.760142
0.723182
0.72427
0.712904
0.747465
0.718069
0.72236
0.758546
0.725136
0.717188
0.718931
0.729889
0.715603
0.729264
0.715754
0.713485
0.733949
0.755927
0.72498
0.720916
0.748561
0.718051
0.767655
0.720848
0.729538
0.761132
0.725523
0.737661
0.71896
0.734106
0.727934
0.769107
0.769326
0.733589
0.756594
0.717824
0.719343
0.721704
0.721627
0.745866
0.72207
0.729426
0.739678
0.740656
0.716972
0.723174
0.730637
0.765668
0.726469
0.724336
0.716604
0.722379
0.7734
0.756107
0.723672
0.71882
0.744901
0.721732
0.74086
0.721548
0.728404
0.730323
0.718492
0.736492
0.760396
0.719723
0.739268
0.759853
0.745197
0.719081
0.741445
0.726769
0.727269
0.73972
0.764781
0.720184
0.758021
0.7291
0.736461
0.755742
0.732372
0.764032
0.723738
0.731385
0.725724
0.775979
0.758355
0.714245
0.724212
0.737353
0.718103
0.728901
0.717129
0.764732
0.76209
0.731498
0.728529
0.725394
0.72598
0.717418
0.733452
0.718773
0.730214
0.735272
0.717212
0.773502
0.729434
0.720014
0.721003
0.729955
0.730123
0.742359
0.71893
0.724712
0.767371
0.723853
0.751868
0.72327
0.736113
0.715905
0.765843
0.717808
0.726395
0.72933
0.721
0.76925
0.716546
0.724866
0.716601
0.759736
0.724604
0.727847
0.711078
0.728766
0.724274
0.720977
0.721984
0.745275
0.732223
0.766832
0.768304
0.765865
0.752723
0.724491
0.766804
0.723637
0.720908
0.73738
0.725321
0.724047
0.723347
0.720758
0.725616
0.744077
0.723415
0.739666
0.748625
0.716767
0.718889
0.722484
0.717873
0.741602
0.731063
0.727362
0.718002
0.728326
0.724485
0.741968
0.726294
0.736492
0.73
0.71855
0.722016
0.719364
0.721476
0.719326
0.734661
0.723925
0.726224
0.764685
0.775502
0.718799
0.750556
0.7383
0.74128
0.762298
0.730082
0.724091
0.760447
0.740371
0.720338
0.722608
0.721495
0.719172
0.764812
0.723142
0.740283
0.737399
0.725689
0.727288
0.772109
0.749615
0.750129
0.732528
0.727268
0.726831
0.729159
0.731961
0.721052
0.731659
0.746137
0.741899
0.780935
0.737422
0.726607
0.731972
0.73403
0.726213
0.761569
0.726796
0.74005
0.734314
0.729296
0.71819
0.766689
0.722517
0.76281
0.718726
0.727195
0.738947
0.730582
0.731559
0.728409
0.747728
0.726118
0.739815
0.740326
0.733057
0.771715
0.713752
0.72385
0.730704
0.716206
0.72491
0.758099
0.746739
0.730809
0.761283
0.718837
0.731481
0.722656
0.717873
0.721998
0.761456
0.768614
0.759826
0.725943
0.77368
0.716801
0.725056
0.756235
0.737398
0.721592
0.725332
0.747166
0.744864
0.722081
0.723679
0.728685
0.731717
0.751356
0.722786
0.732676
0.729189
0.737678
0.722635
0.731103
0.723887
0.733694
0.770536
0.769469
0.727074
0.739158
0.732604
0.779108
0.723601
0.730162
0.719299
0.76682
0.736404
0.72171
0.731042
0.747162
0.765992
0.727329
0.754895
0.735498
0.734317
0.719628
0.722436
0.722644
0.772032
0.767545
0.721479
0.741402
0.741724
0.733222
0.772767
0.712606
0.719974
0.748036
0.717886
0.720397
0.727844
0.72087
0.726859
0.727005
0.724421
0.767446
0.735145
0.722154
0.770177
0.72737
0.72485
0.749674
0.720091
0.674457
0.720951
0.718152
0.721736
0.771767
0.721824
0.725959
0.76848
0.735042
0.719666
0.747626
0.726414
0.761344
0.760304
0.72456
0.737877
0.719959
0.72436
0.718767
0.715164
0.72036
0.718479
0.718362
0.729505
0.757413
0.720973
0.735122
0.724092
0.736771
0.747977
0.746135
0.728147
0.767897
0.728522
0.72705
0.728196
0.779746
0.727585
0.77644
0.725561
0.775601
0.728201
0.729004
0.733302
0.722452
0.758022
0.759334
0.724196
0.729329
0.736988
0.725517
0.745621
0.714346
0.72888
0.720387
0.759388
0.752504
0.718652
0.718987
0.73628
0.734037
0.754031
0.728185
0.721119
0.719794
0.723
0.72607
0.721425
0.722291
0.722471
0.761798
0.720406
0.728215
0.720549
0.727588
0.730457
0.77507
0.743132
0.723062
0.730045
0.725351
0.729951
0.721355
0.716473
0.722928
0.725564
0.717457
0.721035
0.741525
0.74023
0.714698
0.721855
0.725104
0.767501
0.728756
0.759275
0.72184
0.760385
0.760235
0.716554
0.76237
0.751158
0.727235
0.71974
0.721143
0.739981
0.721541
0.729231
0.766108
0.770649
0.75053
0.744056
0.722478
0.729756
0.73145
0.771118
0.732292
0.722306
0.721461
0.761854
0.761325
0.729213
0.730577
0.735535
0.741437
0.764921
0.74266
0.749364
0.724019
0.719022
0.763733
0.729744
0.726827
0.75608
0.770955
0.720555
0.743365
0.745171
0.716372
0.731551
0.716154
0.728186
0.716102
0.744947
0.725517
0.743733
0.719508
0.741322
0.726396
0.725241
0.716992
0.754938
0.714126
0.712941
0.727846
0.720483
0.727241
0.75504
0.641051
0.725603
0.743369
0.722889
0.735216
0.713361
0.763749
0.720583
0.726109
0.770865
0.732549
0.724763
0.76943
0.755704
0.723045
0.720337
0.721896
0.742105
0.761614
0.71804
0.729415
0.725253
0.729048
0.717955
0.764045
0.723971
0.722952
0.763106
0.758835
0.777809
0.746557
0.71573
0.74264
0.726454
0.722374
0.734482
0.734199
0.766098
0.768975
0.729948
0.728698
0.765569
0.729221
0.737384
0.768854
0.726689
0.738779
0.763014
0.731427
0.714627
0.769126
0.775101
0.719988
0.727057
0.751351
0.727421
0.748984
0.756
0.762042
0.729754
0.758367
0.769361
0.725051
0.712661
0.726091
0.73647
0.724082
0.725695
0.722999
0.597594
0.734588
0.756635
0.715958
0.730912
0.717065
0.738777
0.719113
0.75144
0.719567
0.721335
0.73053
0.76708
0.756773
0.770289
0.73973
0.760286
0.733781
0.748589
0.736532
0.718799
0.729252
0.741302
0.724707
0.730796
0.723744
0.718182
0.765961
0.725454
0.721117
0.720965
0.718928
0.724531
0.750481
0.734018
0.72226
0.761853
0.73814
0.720087
0.718312
0.713319
0.729456
0.732218
0.769053
0.756114
0.720364
0.72477
0.731012
0.716262
0.743642
0.73813
0.753761
0.766013
0.765212
0.772655
0.718753
0.722165
0.719116
0.718158
0.738693
0.730653
0.783812
0.720922
0.730312
0.726883
0.713946
0.725846
0.721305
0.724122
0.726229
0.627571
0.74272
0.727867
0.725961
0.721173
0.730106
0.7294
0.723076
0.721456
0.745151
0.719288
0.7333
0.717465
0.71889
0.766607
0.719294
0.725013
0.73105
0.717641
0.753499
0.768264
0.720487
0.726418
0.748563
0.717035
0.717134
0.716849
0.713469
0.737667
0.727658
0.72917
0.726274
0.77854
0.781025
0.725691
0.741504
0.755571
0.720068
0.759669
0.734163
0.723194
0.735582
0.73954
0.7157
0.741787
0.729831
0.726297
0.73414
0.721387
0.740886
0.767905
0.72418
0.777992
0.784052
0.640137
0.749836
0.767697
0.731203
0.72497
0.75857
0.73999
0.774223
0.762703
0.717979
0.726663
0.763421
0.770183
0.717423
0.764318
0.723317
0.728545
0.739959
0.716225
0.762383
0.761683
0.728248
0.729058
0.763914
0.76131
0.739528
0.743675
0.726131
0.719472
0.772569
0.726095
0.764713
0.776215
0.745333
0.736485
0.747135
0.739353
0.744708
0.720019
0.767164
0.759117
0.722051
0.7174
0.722049
0.776696
0.774217
0.736571
0.717853
0.717414
0.724655
0.734289
0.714935
0.717383
0.75428
0.721087
0.742438
0.756178
0.773728
0.715503
0.719918
0.723942
0.7202
0.722167
0.762641
0.73809
0.767287
0.786574
0.738943
0.766395
0.747242
0.722007
0.679838
0.758144
0.721166
0.719781
0.722328
0.727434
0.792629
0.723537
0.753937
0.727992
0.766544
0.723897
0.770487
0.725479
0.741003
0.747027
0.7385
0.772244
0.744951
0.718243
0.720703
0.727301
0.724578
0.72791
0.765525
0.72519
0.633588
0.72228
0.726095
0.723343
0.735143
0.705278
0.729022
0.737654
0.738526
0.738104
0.722061
0.725408
0.73665
0.752957
0.729501
0.735892
0.719563
0.719924
0.722538
0.736413
0.734763
0.714889
0.728193
0.713497
0.72026
0.725629
0.732376
0.670066
0.716009
0.741904
0.726596
0.726193
0.715875
0.759174
0.747957
0.724568
0.71329
0.720164
0.715971
0.721418
0.723491
0.723555
0.755914
0.752092
0.720015
0.723284
0.724536
0.721165
0.750572
0.718084
0.770937
0.719168
0.735577
0.716524
0.733885
0.724495
0.716402
0.7188
0.757325
0.72274
0.721378
0.736364
0.751414
0.728282
0.718639
0.721764
0.720869
0.721455
0.729495
0.758356
0.719104
0.744512
0.726629
0.741058
0.74055
0.75997
0.764939
0.739113
0.723676
0.727126
0.749172
0.737953
0.76102
0.732551
0.725951
0.770659
0.753982
0.746799
0.728148
0.729553
0.736396
0.690628
0.735692
0.654927
0.750717
0.718225
0.720723
0.724894
0.703466
0.729034
0.772207
0.750319
0.730421
0.749336
0.744463
0.722437
0.726695
0.725131
0.709731
0.767243
0.710159
0.722179
0.737924
0.72103
0.71435
0.726139
0.703387
0.724995
0.743102
0.753357
0.723632
0.772212
0.77317
0.740493
0.72815
0.737833
0.734193
0.726068
0.734392
0.773398
0.737981
0.726904
0.730605
0.767697
0.746777
0.74444
0.712862
0.719235
0.739629
0.724315
0.728101
0.726237
0.759166
0.720347
0.765001
0.715899
0.712757
0.717435
0.715422
0.721986
0.715413
0.757463
0.715716
0.719175
0.752697
0.720456
0.721805
0.740318
0.726309
0.736682
0.720604
0.727389
0.716555
0.723325
0.723463
0.724829
0.71762
0.763694
0.713852
0.764667
0.750206
0.730529
0.724894
0.721895
0.725562
0.702218
0.721807
0.761798
0.729234
0.72324
0.726701
0.71858
0.763824
0.766901
0.721393
0.778495
0.716805
0.723835
0.772753
0.728292
0.730956
0.736119
0.758687
0.748436
0.766614
0.730458
0.769001
0.72617
0.712782
0.775623
0.730018
0.724748
0.721163
0.715951
0.745861
0.721162
0.728195
0.752432
0.729204
0.723898
0.735921
0.753334
0.71268
0.730521
0.723883
0.743759
0.714553
0.732893
0.739018
0.748356
0.736287
0.709197
0.716436
0.725311
0.754569
0.722271
0.722491
0.720269
0.731543
0.785716
0.714145
0.74785
0.71517
0.717805
0.72352
0.744549
0.726812
0.724787
0.726365
0.714151
0.733224
0.76007
0.753268
0.725032
0.721257
0.680392
0.741374
0.722709
0.756725
0.721934
0.768261
0.722646
0.724006
0.722454
0.760487
0.722155
0.75916
0.727423
0.733964
0.745058
0.734968
0.752905
0.74042
0.728346
0.759041
0.742857
0.715191
0.776584
0.732217
0.7246
0.774903
0.741914
0.710215
0.735452
0.727158
0.726673
0.726559
0.710652
0.739496
0.764992
0.767668
0.612294
0.721616
0.708095
0.718572
0.721719
0.753309
0.752655
0.717345
0.730356
0.762923
0.722643
0.715664
0.745224
0.711955
0.71582
0.716416
0.758911
0.734255
0.72673
0.775964
0.710056
0.709176
0.721617
0.716817
0.722912
0.725455
0.764009
0.72723
0.741763
0.718655
0.716954
0.696537
0.711569
0.721918
0.738015
0.717774
0.722142
0.713017
0.757795
0.734301
0.722328
0.707051
0.726259
0.726366
0.737408
0.728424
0.763697
0.72328
0.756354
0.730439
0.725784
0.732466
0.734961
0.733849
0.7337
0.727519
0.732861
0.716104
0.693741
0.720455
0.767146
0.722743
0.718796
0.750098
0.718204
0.711662
0.713091
0.725224
0.767104
0.721322
0.718436
0.722242
0.731234
0.728145
0.768513
0.761181
0.717031
0.760739
0.718961
0.725216
0.754046
0.734765
0.71879
0.741338
0.74938
0.746102
0.741143
0.726625
0.714757
0.74073
0.723386
0.708455
0.726113
0.765039
0.71974
0.726487
0.71238
0.75925
0.747614
0.728759
0.601794
0.747762
0.718225
0.724486
0.724186
0.698699
0.721363
0.728039
0.741057
0.720627
0.73908
0.731296
0.72527
0.716088
0.715781
0.715661
0.714593
0.71411
0.750344
0.763226
0.727982
0.635026
0.731483
0.718968
0.714258
0.713143
0.723138
0.710581
0.732434
0.713369
0.758872
0.724295
0.737425
0.71759
0.712068
0.71071
0.729369
0.72957
0.735217
0.721084
0.734261
0.731341
0.731582
0.738738
0.748005
0.748436
0.75973
0.739144
0.728194
0.761826
0.723525
0.716688
0.716735
0.712312
0.723962
0.715753
0.713333
0.697047
0.727324
0.719465
0.714646
0.731083
0.773305
0.714898
0.739671
0.719269
0.726464
0.721705
0.721511
0.728931
0.770732
0.74234
0.763251
0.723249
0.726885
0.75693
0.733237
0.726581
0.74031
0.729881
0.743653
0.756953
0.719105
0.753625
0.75307
0.633569
0.646736
0.710926
0.750679
0.726636
0.721031
0.752013
0.721431
0.717467
0.705105
0.718709
0.760822
0.720675
0.615301
0.717118
0.74378
0.752685
0.714148
0.763315
0.744912
0.73717
0.72046
0.711949
0.711631
0.738439
0.721282
0.678083
0.729882
0.725434
0.720644
0.729632
0.754169
0.707541
0.718472
0.721329
0.626662
0.757273
0.71228
0.761314
0.756288
0.718377
0.72333
0.741746
0.739796
0.731625
0.71533
0.734529
0.628916
0.771219
0.720952
0.766415
0.728339
0.752558
0.728483
0.72082
0.722307
0.753487
0.740413
0.724531
0.724646
0.732856
0.718658
0.724982
0.725377
0.718964
0.751613
0.725522
0.745348
0.703885
0.711073
0.712793
0.725505
0.715364
0.733168
0.731433
0.760007
0.713267
0.712936
0.77248
0.719793
0.721566
0.731718
0.760652
0.725041
0.737525
0.743142
0.619758
0.742689
0.720061
0.78544
0.725062
0.777684
0.757691
0.729386
0.723752
0.768437
0.726666
0.720588
0.639656
0.769974
0.71755
0.72117
0.786464
0.723347
0.783209
0.78479
0.727897
0.724845
0.737264
0.713369
0.724681
0.716287
0.738505
0.699213
0.743391
0.727602
0.727205
0.710123
0.753469
0.686024
0.738709
0.741861
0.718611
0.710396
0.73024
0.727877
0.725155
0.714757
0.721386
0.730469
0.728972
0.717849
0.722115
0.71265
0.713382
0.726041
0.727372
0.683738
0.680293
0.713652
0.732156
0.743158
0.700607
0.706645
0.743769
0.726741
0.683791
0.755827
0.747029
0.714151
0.68629
0.723891
0.723867
0.723675
0.75583
0.727511
0.745368
0.749023
0.735736
0.766313
0.713583
0.720479
0.719004
0.719297
0.75938
0.731342
0.718807
0.724135
0.724512
0.604705
0.722329
0.730202
0.726797
0.705489
0.715953
0.612992
0.718763
0.716636
0.743884
0.771735
0.746374
0.712068
0.713825
0.747569
0.755033
0.720326
0.723946
0.719769
0.753189
0.774322
0.745098
0.745747
0.722022
0.723007
0.731045
0.725113
0.718983
0.650143
0.722565
0.720378
0.726575
0.739106
0.721129
0.696666
0.75496
0.737055
0.724275
0.665969
0.662196
0.723668
0.731325
0.713837
0.771562
0.716348
0.70996
0.710756
0.708189
0.705082
0.719415
0.725537
0.720157
0.717261
0.729483
0.711458
0.71958
0.721836
0.725516
0.710428
0.710173
0.754373
0.743808
0.766804
0.735569
0.69615
0.727994
0.757045
0.728307
0.742144
0.751523
0.732584
0.718257
0.71637
0.705861
0.720437
0.726506
0.712597
0.760091
0.719122
0.751738
0.727542
0.706754
0.723915
0.717702
0.715335
0.70581
0.743469
0.750141
0.74009
0.746789
0.7317
0.627253
0.72177
0.732196
0.712552
0.727655
0.741974
0.741228
0.630953
0.723523
0.721375
0.67949
0.754311
0.750655
0.713681
0.714203
0.75339
0.607017
0.712858
0.763622
0.718906
0.727294
0.7228
0.766793
0.719999
0.752466
0.746492
0.754392
0.712308
0.721066
0.731034
0.726059
0.726661
0.725754
0.765627
0.77382
0.729973
0.726253
0.729903
0.713535
0.757676
0.710883
0.744882
0.664694
0.723906
0.740106
0.753181
0.735447
0.715141
0.75382
0.749632
0.702841
0.702608
0.719885
0.736482
0.746123
0.760584
0.716959
0.730623
0.685849
0.713655
0.729334
0.719969
0.710425
0.684786
0.68832
0.715371
0.742984
0.723541
0.714151
0.713536
0.73668
0.663506
0.684926
0.704656
0.664292
0.70947
0.709467
0.737441
0.705854
0.718731
0.668333
0.662473
0.760212
0.721212
0.656811
0.748322
0.732812
0.69919
0.723198
0.671945
0.758552
0.76081
0.722956
0.624725
0.727509
0.769498
0.724957
0.721447
0.756821
0.724119
0.671674
0.769572
0.73148
0.719811
0.72392
0.721395
0.716525
0.711732
0.710859
0.713852
0.713871
0.720487
0.703565
0.703533
0.714568
0.702014
0.712528
0.725413
0.735009
0.695923
0.71138
0.722766
0.727704
0.736613
0.732333
0.762002
0.712048
0.734235
0.721136
0.723114
0.700875
0.723003
0.760987
0.731357
0.742828
0.750058
0.681727
0.753243
0.683803
0.722647
0.72685
0.720427
0.698679
0.759357
0.716825
0.696063
0.752033
0.713682
0.70848
0.629632
0.682633
0.735511
0.742868
0.70073
0.678652
0.689696
0.757057
0.709613
0.688131
0.718542
0.756719
0.737737
0.686588
0.717338
0.681139
0.724171
0.710882
0.727645
0.730496
0.700384
0.687583
0.736224
0.752174
0.720977
0.738869
0.769395
0.655047
0.719015
0.750091
0.736626
0.761058
0.720792
0.707772
0.716038
0.613681
0.721794
0.728761
0.720169
0.712101
0.713363
0.717628
0.712248
0.737776
0.726902
0.72074
0.723163
0.737996
0.737093
0.736625
0.655777
0.745121
0.664605
0.705434
0.721328
0.687967
0.724086
0.73847
0.729169
0.72678
0.710121
0.678729
0.687204
0.61565
0.722473
0.709963
0.739884
0.732467
0.764573
0.70946
0.728179
0.691242
0.691355
0.697039
0.679448
0.720831
0.725515
0.714164
0.717822
0.698646
0.763787
0.746107
0.762905
0.663273
0.715101
0.615776
0.604568
0.733589
0.664809
0.76553
0.721955
0.765573
0.755396
0.6929
0.753099
0.744574
0.690859
0.651718
0.716938
0.763907
0.713294
0.727035
0.700072
0.717841
0.709219
0.689647
0.683864
0.756915
0.73644
0.717312
0.734014
0.716819
0.735129
0.706659
0.72776
0.722077
0.734546
0.709836
0.606335
0.601472
0.675833
0.719758
0.701947
0.721619
0.656236
0.767421
0.720642
0.7357
0.690065
0.769343
0.702342
0.694735
0.741959
0.775695
0.681924
0.729293
0.62037
0.682587
0.636954
0.716754
0.75887
0.745465
0.708721
0.744417
0.667995
0.747118
0.629502
0.718442
0.720197
0.724891
0.663614
0.772906
0.675453
0.718431
0.668857
0.68585
0.727171
0.696591
0.776859
0.698746
0.725116
0.7011
0.714243
0.72421
0.686363
0.741631
0.759924
0.704462
0.764692
0.631959
0.761416
0.743641
0.69573
0.711048
0.721078
0.72375
0.673672
0.753099
0.716278
0.662584
0.712997
0.7536
0.659507
0.723054
0.635985
0.716347
0.733743
0.722255
0.682148
0.721994
0.721866
0.754752
0.720392
0.726033
0.749393
0.62028
0.698917
0.704249
0.74224
0.733975
0.655008
0.721094
0.682037
0.680184
0.629339
0.601265
0.611344
0.735548
0.704128
0.733526
0.710176
0.735727
0.727404
0.725198
0.69918
0.627462
0.701618
0.721966
0.709489
0.718766
0.667794
0.767288
0.704236
0.719725
0.726398
0.691539
0.699504
0.719793
0.723606
0.690697
0.725856
0.693398
0.691645
0.689431
0.753233
0.660454
0.685097
0.670549
0.710114
0.67135
0.666691
0.689898
0.747163
0.664489
0.767161
0.74349
0.740665
0.634878
0.722712
0.707999
0.667928
0.704638
0.728009
0.724832
0.609299
0.714853
0.665415
0.72101
0.745829
0.728402
0.67341
0.732348
0.720742
0.712096
0.669294
0.671218
0.723464
0.716099
0.633502
0.628422
0.719553
0.639216
0.644162
0.689441
0.663133
0.722952
0.656911
0.664418
0.674046
0.706491
0.686331
0.66465
0.627572
0.712963
0.667105
0.744802
0.73608
0.723796
0.720979
0.689651
0.645272
0.678403
0.619987
0.62239
0.724171
0.732613
0.693517
0.730821
0.712757
0.717089
0.710292
0.631936
0.680039
0.759613
0.707928
0.742885
0.651324
0.733448
0.720436
0.753286
0.753772
0.702281
0.668501
0.674667
0.697139
0.71516
0.730993
0.725328
0.673121
0.655089
0.771104
0.665963
0.617046
0.64862
0.706084
0.677615
0.700427
0.667787
0.695889
0.700532
0.621893
0.749007
0.739811
0.666351
0.722013
0.676504
0.68624
0.723209
0.672715
0.761168
0.688604
0.685446
0.731276
0.655525
0.663325
0.726541
0.702612
0.652071
0.720235
0.721088
0.700794
0.71434
0.675478
0.702844
0.65447
0.6876
0.71575
0.69261
0.687337
0.710279
0.704086
0.646204
0.647014
0.629343
0.721707
0.73102
0.634533
0.71704
0.73845
0.675874
0.679786
0.750802
0.635925
0.682987
0.655468
0.66019
0.727417
0.703745
0.748872
0.732511
0.693291
0.684087
0.695754
0.693026
0.640735
0.649091
0.68347
0.633437
0.76077
0.678543
0.701805
0.659037
0.693127
0.745042
0.666731
0.636869
0.676841
0.649472
0.715252
0.718386
0.679395
0.62284
0.663579
0.645717
0.727965
0.736117
0.737514
0.72988
0.699535
0.724709
0.720692
0.756262
0.709323
0.727284
0.6634
0.719843
0.697347
0.679422
0.610636
0.756506
0.679715
0.718542
0.662608
0.717474
0.599463
0.622938
0.63828
0.713532
0.658104
0.653968
0.699371
0.687333
0.732506
0.663165
0.710577
0.740952
0.725253
0.724157
0.600734
0.674569
0.732452
0.652199
0.688571
0.660401
0.627946
0.689344
0.669483
0.672458
0.673009
0.668806
0.644487
0.64656
0.72504
0.716431
0.722797
0.695547
0.65805
0.666896
0.659628
0.703774
0.682292
0.721711
0.645121
0.675884
0.632294
0.717382
0.649341
0.645629
0.732038
0.721532
0.671829
0.700169
0.604965
0.639524
0.678396
0.627011
0.687855
0.71069
0.729205
0.709989
0.733568
0.706264
0.685791
0.676762
0.651668
0.656288
0.655745
0.75374
0.66556
0.706101
0.690278
0.657342
0.677068
0.743629
0.739085
0.757379
0.734234
0.600772
0.642662
0.766363
0.704814
0.663592
0.729091
0.75063
0.753613
0.684003
0.664581
0.694568
0.620076
0.605417
0.700481
0.616627
0.69232
0.661621
0.636298
0.656597
0.669404
0.687122
0.730515
0.623151
0.620065
0.673848
0.643066
0.672667
0.633497
0.659252
0.659521
0.698364
0.643917
0.699232
0.72626
0.703405
0.686403
0.654623
0.691624
0.684893
0.694009
0.635548
0.671972
0.698357
0.712619
0.6719
0.729929
0.647142
0.717492
0.606646
0.642721
0.630488
0.737005
0.700402
0.718825
0.747218
0.687728
0.687152
0.724623
0.692033
0.694851
0.641065
0.66248
0.707574
0.650373
0.712862
0.692182
0.609114
0.668009
0.65668
0.643727
0.605456
0.666376
0.666023
0.723563
0.62743
0.697864
0.705572
0.614653
0.646235
0.718905
0.645936
0.678484
0.663518
0.682529
0.605345
0.630507
0.662763
0.651786
0.655909
0.650331
0.655585
0.621353
0.705388
0.698598
0.648544
0.635362
0.681034
0.711022
0.665388
0.692266
0.716735
0.60874
0.62253
0.673423
0.604695
0.740399
0.699351
0.635739
0.659952
0.688888
0.624295
0.731128
0.722445
0.607575
0.727424
0.709276
0.681704
0.616638
0.641218
0.624022
0.665638
0.71584
0.742874
0.635416
0.640527
0.671824
0.637211
0.751872
0.654238
0.634417
0.609552
0.64784
0.642698
0.655423
0.665267
0.672377
0.676296
0.644875
0.650087
0.623829
0.728567
0.646505
0.602216
0.653626
0.650133
0.62298
0.703748
0.652841
0.715672
0.667271
0.700511
0.729121
0.685485
0.680573
0.659688
0.682376
0.740355
0.667571
0.648066
0.620546
0.693861
0.621578
0.599022
0.616877
0.700666
0.614749
0.612645
0.67904
0.701702
0.69104
0.705109
0.621379
0.614641
0.650476
0.664688
0.641928
0.719941
0.636545
0.721243
0.604634
0.600482
0.646403
0.630295
0.69565
0.659794
0.694325
0.661801
0.645488
0.651173
0.650508
0.709363
0.638867
0.636806
0.714215
0.635219
0.711588
0.605893
0.612625
0.659029
0.643713
0.650606
0.637088
0.663932
0.712497
0.743349
0.753421
0.7282
0.606855
0.61205
0.649944
0.66967
0.609387
0.608218
0.626554
0.610479
0.695044
0.720253
0.652218
0.687569
0.71794
0.609824
0.663918
0.655709
0.662659
0.707771
0.620229
0.679076
0.681132
0.707492
0.726293
0.646471
0.643283
0.711571
0.741167
0.699726
0.615202
0.71615
0.70648
0.684377
0.719392
0.65838
0.751651