/*--------------------------------*- C++ -*----------------------------------*\
| =========                 |                                                 |
| \\      /  F ield         | OpenFOAM: The Open Source CFD Toolbox           |
|  \\    /   O peration     | Version:  2212                                  |
|   \\  /    A nd           | Website:  www.openfoam.com                      |
|    \\/     M anipulation  |                                                 |
\*---------------------------------------------------------------------------*/
FoamFile
{
    version     2.0;
    format      ascii;
    arch        "LSB;label=32;scalar=64";
    class       volScalarField;
    location    "0.034";
    object      k;
}
// * * * * * * * * * * * * * * * * * * * * * * * * * * * * * * * * * * * * * //

dimensions      [0 2 -2 0 0 0 0];

internalField   nonuniform List<scalar> 
31639
(
0.0203914
0.0199148
0.0202332
0.0209433
0.020186
0.0197399
0.0199179
0.0205605
0.0203724
0.0206404
0.0206608
0.0205875
0.0200698
0.0207547
0.0196447
0.019625
0.0204885
0.0199483
0.0194454
0.0199951
0.0185449
0.020768
0.0208134
0.0195616
0.0194276
0.0202614
0.0199586
0.0172261
0.0198807
0.0208897
0.0206568
0.0197748
0.0207654
0.0194649
0.0189821
0.0208426
0.0181656
0.021061
0.0207173
0.0179765
0.0189017
0.0188361
0.0205114
0.0207188
0.0207675
0.0206671
0.0196993
0.019935
0.0204533
0.0208777
0.0206048
0.0180949
0.0210096
0.0185072
0.0197501
0.020371
0.0186627
0.0200564
0.0198898
0.0186251
0.0201929
0.0206683
0.0194919
0.0198752
0.0203514
0.0208689
0.0201148
0.0200509
0.0192314
0.0208419
0.02079
0.0191842
0.0204481
0.0200121
0.0209052
0.0189641
0.0206147
0.0199631
0.0197122
0.020651
0.0194091
0.0179214
0.0207416
0.0202613
0.0202019
0.0206016
0.0208409
0.0207299
0.0190346
0.0209593
0.020152
0.0202002
0.0187411
0.0198004
0.0191494
0.0197387
0.0199892
0.020003
0.0201253
0.0186909
0.0209324
0.0206215
0.0197174
0.0184853
0.0186591
0.0207195
0.018455
0.0183229
0.0192631
0.0185094
0.0202894
0.0187332
0.0198528
0.0197208
0.0200103
0.0184537
0.0200359
0.0200334
0.020706
0.0198877
0.0205905
0.0205806
0.0204503
0.0203374
0.0202231
0.0208084
0.02001
0.0193416
0.019142
0.0204862
0.0206088
0.0204573
0.0205335
0.0198402
0.0205725
0.0200478
0.0186452
0.0183938
0.0205284
0.0200252
0.019988
0.020644
0.0206632
0.0183643
0.0181673
0.0208083
0.0206025
0.0188344
0.0186884
0.0206612
0.0194078
0.0202697
0.0195002
0.0205158
0.0190116
0.0208655
0.0201251
0.0192149
0.0189573
0.0195419
0.0206757
0.019144
0.0193994
0.0185668
0.0188839
0.0197726
0.0189688
0.0208707
0.0205538
0.0183782
0.0192334
0.0195446
0.0189566
0.0200645
0.0209284
0.020605
0.0201562
0.0209156
0.0201272
0.019956
0.0197499
0.0198815
0.0194529
0.0181294
0.0203516
0.0209693
0.0196165
0.0208335
0.0188595
0.0186342
0.0212282
0.020644
0.0204154
0.0198734
0.020003
0.0198271
0.0198435
0.0204564
0.0185262
0.0198115
0.0207594
0.0209749
0.0202166
0.0202729
0.0202449
0.0199706
0.0197442
0.019574
0.0206233
0.018184
0.0199041
0.019913
0.0203209
0.0206563
0.0205778
0.0207061
0.0189941
0.0195647
0.0206984
0.0206441
0.0203439
0.0199895
0.0185395
0.0200631
0.018582
0.0201602
0.0205798
0.0195548
0.0188876
0.0205221
0.0203336
0.0209997
0.0190326
0.0187329
0.020393
0.02047
0.0186055
0.0207
0.0194728
0.0184469
0.0197326
0.0203147
0.0199026
0.019647
0.0195937
0.0205467
0.0196475
0.0195348
0.0187805
0.0198852
0.0195216
0.0190459
0.0196733
0.0208951
0.0207222
0.0197715
0.019007
0.0204286
0.0203729
0.0201923
0.0209163
0.0206577
0.0204209
0.0207088
0.0197146
0.0200434
0.0183134
0.0194635
0.020513
0.0195277
0.0202098
0.0196775
0.0202525
0.02106
0.0209106
0.0201936
0.018683
0.0199532
0.0193248
0.0206395
0.0200281
0.0207945
0.0209397
0.0197995
0.0188201
0.0194493
0.0190059
0.0186437
0.0205441
0.0191318
0.0208832
0.0197365
0.0195894
0.0190481
0.0210595
0.0197646
0.019862
0.020751
0.0203107
0.01953
0.0199136
0.0190568
0.0199683
0.0197157
0.0189515
0.0198337
0.0196245
0.0177897
0.0183511
0.0205741
0.0208218
0.0202737
0.0185677
0.0191382
0.0204475
0.0191179
0.0190649
0.0208096
0.020942
0.0196463
0.0206649
0.0208503
0.0189316
0.0207727
0.018446
0.0185801
0.02071
0.0205366
0.0206036
0.0208613
0.020544
0.0190406
0.0197851
0.0197547
0.0207454
0.0210171
0.0210055
0.0197863
0.0194561
0.0203725
0.0204576
0.0203045
0.0195353
0.0199622
0.0196541
0.020008
0.0204732
0.0195578
0.0189257
0.0205028
0.02106
0.0197879
0.0209169
0.0206681
0.0198656
0.0189573
0.019813
0.0198449
0.0185543
0.0209643
0.0190874
0.0203355
0.0205843
0.0183467
0.0199597
0.0198813
0.0186573
0.0202142
0.0190458
0.020018
0.0209646
0.0205157
0.0183316
0.020308
0.0190283
0.0203264
0.0206367
0.0207809
0.0207668
0.0191315
0.0203979
0.0185011
0.0196828
0.0184817
0.0207593
0.020485
0.0206808
0.0205893
0.0192354
0.0210118
0.0199195
0.0203734
0.0198222
0.0193595
0.0200137
0.0204092
0.0201948
0.0204108
0.0202727
0.0205599
0.0199508
0.018937
0.0201344
0.0205156
0.0203817
0.0183391
0.0207577
0.0205871
0.0199152
0.0201339
0.0203152
0.0202834
0.0207453
0.0184798
0.0203448
0.0207394
0.0183768
0.0201792
0.0202783
0.019073
0.0186123
0.0186829
0.0198102
0.0187155
0.0198952
0.0196914
0.01974
0.0209673
0.0188401
0.0205278
0.0207866
0.0199328
0.0205077
0.0198125
0.0207484
0.0199789
0.0203216
0.0208619
0.0198765
0.0187288
0.0199804
0.0208429
0.0206275
0.0205045
0.0208786
0.0196109
0.0203358
0.0205818
0.0209279
0.0209506
0.0189522
0.0198392
0.0180677
0.0201495
0.019747
0.0189041
0.0186643
0.0198005
0.0204499
0.0206349
0.0187044
0.0204768
0.0196502
0.0198332
0.0205955
0.0162488
0.0197434
0.0185461
0.0196004
0.0206135
0.021015
0.0204141
0.0200854
0.0182159
0.0204877
0.0199339
0.0204178
0.0186107
0.0189333
0.0198394
0.018795
0.0190028
0.0202948
0.0185776
0.0197725
0.0185073
0.0205118
0.0187928
0.020843
0.0205693
0.0205639
0.0206913
0.0195513
0.0205885
0.0207377
0.0202552
0.0206598
0.020008
0.0205246
0.0211305
0.0197069
0.0207279
0.0208223
0.0198382
0.01929
0.0208782
0.0199758
0.0182005
0.0185108
0.0200341
0.0208522
0.0207932
0.0198231
0.0211397
0.0212169
0.0204163
0.0201424
0.0199702
0.0199525
0.0190474
0.0198366
0.0204258
0.0208994
0.0194555
0.0192154
0.0191523
0.0194662
0.0197892
0.0181107
0.0204963
0.0196131
0.0203977
0.0200311
0.0205253
0.0201006
0.0189646
0.0202282
0.0206938
0.0192385
0.0205883
0.0209608
0.0197772
0.0197996
0.0173019
0.0192604
0.0198635
0.0199955
0.0190101
0.0188961
0.0200375
0.0190853
0.0204565
0.0194866
0.0199842
0.0206721
0.019917
0.0185156
0.0196843
0.0200538
0.0207557
0.0187681
0.0180043
0.0206635
0.0186288
0.0201284
0.0210265
0.0187845
0.0199162
0.0209116
0.0202077
0.0187637
0.0206632
0.0202126
0.0186501
0.0205494
0.0201315
0.0197234
0.0204711
0.0182961
0.0194717
0.0200709
0.019817
0.0198932
0.0203621
0.0211058
0.0206087
0.0203874
0.020818
0.0206095
0.0204824
0.0194399
0.0204039
0.0208715
0.0212204
0.0192328
0.0200292
0.0202491
0.0213273
0.0190356
0.0182704
0.0208096
0.0191013
0.0210153
0.0196082
0.0188561
0.0201282
0.0206481
0.0203041
0.0203904
0.0183936
0.0204981
0.020132
0.0184601
0.0208
0.0205948
0.0169602
0.0189185
0.0192278
0.0198717
0.0200693
0.0200479
0.019893
0.0199767
0.0205928
0.0199966
0.0199304
0.0189974
0.020848
0.0186129
0.0199505
0.0199913
0.0196952
0.0209841
0.0199327
0.0193117
0.0184972
0.0189973
0.0199561
0.0207044
0.0189983
0.0208984
0.0201905
0.0205258
0.0188947
0.0196074
0.020507
0.0209266
0.0207009
0.0204023
0.0200337
0.0201302
0.0209621
0.0209373
0.0207945
0.0194167
0.0206214
0.0188823
0.0208059
0.0207344
0.0198289
0.0190885
0.0196589
0.0179513
0.0207003
0.020302
0.0210683
0.0199083
0.0194347
0.0187496
0.0204914
0.0185075
0.0182394
0.0191688
0.0195542
0.0188983
0.0199487
0.0187563
0.0202674
0.0203882
0.0181585
0.0209215
0.0190075
0.0193479
0.0195724
0.0195893
0.0205455
0.020744
0.0208958
0.0207797
0.0199169
0.0199799
0.0198412
0.0198294
0.0184859
0.0150214
0.0208197
0.0197849
0.0205446
0.0206318
0.0187261
0.0207217
0.0208747
0.0204594
0.0204911
0.0204247
0.0201662
0.0208398
0.020952
0.0200825
0.0206778
0.020682
0.0191145
0.0206672
0.0196672
0.0205233
0.0194175
0.0198203
0.0194237
0.0210517
0.0197487
0.0200734
0.0200982
0.0190942
0.0208721
0.0202473
0.0197446
0.0189515
0.0203932
0.01835
0.0205314
0.0206063
0.0194722
0.0209824
0.0209889
0.0209259
0.0186988
0.0199717
0.0201828
0.0201855
0.0190352
0.0204522
0.0206136
0.0194748
0.0199831
0.0193892
0.0204798
0.0198143
0.0198752
0.0183831
0.020456
0.0203296
0.0205632
0.01959
0.0198959
0.0201443
0.0198941
0.0196198
0.0202322
0.0204978
0.0197694
0.0183614
0.0184177
0.0197356
0.018126
0.0187135
0.0202286
0.0201886
0.0205136
0.018313
0.0197065
0.0207488
0.0190753
0.0185115
0.0199972
0.0190264
0.0206194
0.0193111
0.0208246
0.0194972
0.0196514
0.0208812
0.0183946
0.0196041
0.0196908
0.0205797
0.0208367
0.0207026
0.019145
0.0203624
0.0208409
0.0196707
0.0208609
0.0205595
0.0204488
0.0207354
0.0199928
0.0211138
0.0209939
0.0210578
0.0203266
0.0197029
0.0201464
0.0198856
0.0186046
0.0195803
0.0204594
0.020608
0.0210082
0.019862
0.0209046
0.0206352
0.0194326
0.0206894
0.0206624
0.0204988
0.0206515
0.0188341
0.019681
0.0206354
0.018293
0.0200654
0.0198126
0.019999
0.019733
0.020854
0.0204239
0.0205603
0.0198971
0.0204693
0.0201157
0.020772
0.0201165
0.0199124
0.0189774
0.0206709
0.0191916
0.0196658
0.0200444
0.0195868
0.0202203
0.0208989
0.0189174
0.0208825
0.0189365
0.0201389
0.0199778
0.0197174
0.0198474
0.0208031
0.0187481
0.0204635
0.0206913
0.0209543
0.0201921
0.0202626
0.0181472
0.0207563
0.0206389
0.0203888
0.0204289
0.0206068
0.0199788
0.0204677
0.0200384
0.0190422
0.0199984
0.0208493
0.0183635
0.0192347
0.0213106
0.0205826
0.019516
0.0197558
0.020269
0.0195166
0.0197637
0.0191525
0.0205728
0.0209446
0.0182789
0.0202105
0.0206576
0.0206813
0.021118
0.019633
0.0206201
0.0191516
0.019077
0.0208781
0.0206808
0.0197856
0.0189867
0.0204775
0.020657
0.0194798
0.0208009
0.0206288
0.0206975
0.0204352
0.0205679
0.0201749
0.020092
0.0196824
0.0195444
0.0185709
0.0201859
0.0200567
0.0189908
0.0207016
0.018553
0.0196118
0.0199393
0.0189573
0.0198309
0.0196684
0.0203223
0.0202091
0.0206578
0.0188982
0.0189664
0.0198284
0.0187319
0.0194415
0.0206285
0.0197743
0.0207142
0.0202892
0.019878
0.0208563
0.0197411
0.0202593
0.019794
0.0198371
0.0203668
0.0192732
0.0200843
0.0205699
0.0207302
0.0209849
0.0189328
0.0186465
0.0199424
0.0206699
0.0190833
0.0196435
0.020521
0.0199045
0.0212509
0.0199131
0.0196404
0.0206579
0.0187696
0.0206709
0.0210497
0.019026
0.0195163
0.0197996
0.0197351
0.020938
0.0208414
0.0205133
0.0192185
0.02058
0.0187511
0.0198043
0.0208446
0.019749
0.021194
0.0184589
0.0199386
0.0203913
0.0200636
0.0186594
0.0185476
0.0205993
0.0208481
0.0197621
0.0207908
0.0203638
0.0198116
0.018873
0.0194065
0.0203299
0.0199997
0.0199568
0.020965
0.0206723
0.021218
0.0207852
0.0203337
0.020376
0.0204267
0.0190896
0.0207196
0.0203744
0.0200812
0.0202782
0.0209214
0.0200265
0.020805
0.0198001
0.0182241
0.0209851
0.0196342
0.0207571
0.0196753
0.0205744
0.0191387
0.0203753
0.021215
0.0199952
0.0199742
0.0187302
0.0204905
0.0208143
0.0202282
0.0187661
0.0212984
0.0200238
0.0201534
0.0208546
0.0207269
0.0205417
0.0198413
0.0201869
0.0211663
0.0191219
0.0192661
0.0190541
0.0194067
0.0202096
0.0186264
0.0208928
0.0206886
0.0211454
0.0197792
0.0198822
0.0200485
0.0206956
0.0200657
0.0203325
0.0207791
0.0210162
0.0202318
0.0206049
0.0200128
0.0197082
0.0203747
0.0197158
0.0210499
0.0209335
0.0209051
0.0210445
0.0207706
0.0195453
0.0211494
0.020259
0.0202704
0.0196757
0.0202231
0.0209444
0.0199484
0.0205556
0.0197633
0.0199688
0.0204766
0.0192819
0.0188233
0.0197721
0.0200404
0.0210678
0.0196435
0.0185815
0.0203045
0.0206521
0.0194614
0.0196691
0.0200309
0.020902
0.0208006
0.0196675
0.0196376
0.0199922
0.0207524
0.019747
0.020148
0.02011
0.0186772
0.0198539
0.0198307
0.0205475
0.0207517
0.0200607
0.0208818
0.0205936
0.0199556
0.0202678
0.0188613
0.0191973
0.0186927
0.0209496
0.0202368
0.0210251
0.021557
0.020539
0.0186486
0.0206147
0.0198219
0.0205285
0.0204227
0.0205236
0.0187126
0.0209652
0.0189727
0.0200075
0.0201901
0.020094
0.0212237
0.0199364
0.0205515
0.0190427
0.0198752
0.0202389
0.0208436
0.0194162
0.019486
0.0203646
0.0206991
0.020447
0.0203723
0.0208998
0.0189791
0.0201505
0.0198851
0.0195095
0.020553
0.0210358
0.0209152
0.0206251
0.0210129
0.0190997
0.01902
0.0190874
0.021025
0.0187972
0.0204898
0.0203225
0.0189098
0.0197435
0.0205843
0.0208074
0.0194896
0.0197222
0.0196266
0.0200932
0.0209525
0.020211
0.0189312
0.0200445
0.0211039
0.0208076
0.0211751
0.0208703
0.0214164
0.0209367
0.0207922
0.0192907
0.0187748
0.0201325
0.0194916
0.0209581
0.0190123
0.0202256
0.0199567
0.0208903
0.0192761
0.0205772
0.0205566
0.0203551
0.0199431
0.0189811
0.0207168
0.0197977
0.0211391
0.020151
0.0211539
0.0209248
0.0200939
0.0187685
0.018935
0.0198191
0.0204763
0.0196194
0.0213032
0.0191503
0.0206841
0.0204633
0.0198573
0.0203243
0.0206515
0.020882
0.0208369
0.0209651
0.0202213
0.0203641
0.018691
0.0195999
0.0208673
0.019279
0.0204691
0.0198245
0.0190166
0.0199066
0.0196602
0.0198662
0.0204106
0.0206364
0.0191225
0.0197994
0.0201347
0.0189845
0.0196131
0.0198037
0.0200405
0.0205016
0.0190616
0.0189956
0.0199223
0.0198084
0.0208364
0.0211104
0.0207927
0.0195552
0.0197027
0.0200826
0.0194844
0.0208693
0.018973
0.0199988
0.0200253
0.0209752
0.0206857
0.0201724
0.0203344
0.0207959
0.0190397
0.020178
0.0209275
0.0196412
0.0177975
0.0200525
0.019076
0.0202868
0.0185651
0.020984
0.0210573
0.020943
0.0201759
0.0190402
0.0188258
0.0206838
0.0210332
0.0209934
0.0201418
0.0203713
0.0203586
0.0210498
0.0207181
0.0185858
0.0202349
0.0202058
0.020335
0.0197911
0.0205393
0.0184578
0.0209876
0.0206738
0.0201449
0.0201674
0.0204896
0.019981
0.0209423
0.0204097
0.0191562
0.0198601
0.0205949
0.019766
0.0201784
0.0204307
0.0186007
0.0190607
0.0208162
0.0210744
0.0207178
0.0210484
0.0204815
0.0206576
0.0203105
0.0201406
0.0203052
0.0207201
0.0197591
0.02012
0.0194347
0.019987
0.0207221
0.0184281
0.0202431
0.0185654
0.0206699
0.0186217
0.0187228
0.0197619
0.0183355
0.0202994
0.020349
0.0206619
0.0206944
0.0195899
0.019373
0.0212294
0.0196479
0.0191608
0.0201758
0.0194898
0.020843
0.0204668
0.0203003
0.0190767
0.0207702
0.020746
0.0208599
0.0187809
0.0195065
0.020134
0.0207228
0.0212225
0.0188659
0.0187612
0.0208114
0.0204116
0.0209638
0.0199639
0.0183945
0.0204599
0.0207257
0.0187842
0.018539
0.0207317
0.019063
0.0190385
0.0207517
0.0210923
0.0204157
0.0212707
0.019812
0.0199077
0.0208305
0.0195325
0.0207835
0.0196929
0.020381
0.0207716
0.0197424
0.0187866
0.0204914
0.0205936
0.019709
0.0198844
0.0201157
0.019464
0.0183043
0.0202043
0.020548
0.0208273
0.0196966
0.0203997
0.018722
0.0205027
0.0210607
0.0186404
0.0208325
0.0201589
0.0180253
0.0187727
0.0200985
0.0199268
0.0205879
0.01982
0.0191298
0.0206352
0.0210604
0.020894
0.0204121
0.0208089
0.018809
0.0208223
0.0199804
0.0188656
0.0189253
0.0179327
0.0188778
0.0203399
0.0199118
0.0203173
0.0200275
0.019162
0.0194163
0.0184179
0.0184329
0.0212563
0.0211069
0.0191458
0.0209406
0.0208659
0.0191552
0.0199135
0.0203127
0.0194947
0.0196051
0.0207742
0.0193595
0.0184447
0.0208499
0.0210877
0.0196591
0.0209008
0.0199883
0.0193573
0.0190601
0.0200072
0.0187506
0.0189774
0.0201816
0.0202644
0.0198831
0.0209587
0.0208359
0.0199212
0.0208691
0.0148445
0.0200234
0.0187442
0.0199621
0.0209436
0.0197925
0.0195359
0.0198124
0.0189914
0.0202547
0.0198919
0.0194976
0.0188837
0.0182218
0.0182368
0.019792
0.0188586
0.0200323
0.0188054
0.0198556
0.0207574
0.0203655
0.0199487
0.0201502
0.0205181
0.0199288
0.0205348
0.0186201
0.0201487
0.0209022
0.02088
0.0197172
0.0212087
0.0192975
0.0207063
0.0198017
0.0186909
0.0207634
0.0208873
0.0203543
0.0203969
0.0208735
0.0203681
0.0182871
0.0183605
0.0197268
0.0210191
0.0202676
0.0205996
0.0196743
0.0198528
0.019278
0.0186872
0.0186727
0.018715
0.0204437
0.020176
0.0208142
0.0195778
0.0197562
0.0211727
0.0188431
0.0200122
0.0210172
0.0208698
0.0192909
0.0196925
0.0205439
0.020949
0.0208929
0.0171538
0.0203641
0.0206643
0.0203446
0.0200378
0.0212355
0.0207094
0.0208565
0.0201673
0.0195131
0.0200214
0.0209577
0.0204265
0.0199077
0.0188441
0.0207203
0.0207259
0.0208864
0.0205348
0.0185152
0.0180314
0.0197626
0.020546
0.0201236
0.0201294
0.020491
0.0205349
0.0205573
0.0197124
0.0205777
0.0200777
0.0207167
0.0190366
0.0190156
0.0196405
0.021096
0.0189783
0.020643
0.0188869
0.0199307
0.0200057
0.021098
0.0200049
0.0206115
0.0209987
0.0207536
0.0202448
0.020702
0.0200406
0.0197287
0.0183692
0.0209985
0.017941
0.0187902
0.0174644
0.0182937
0.0185476
0.0198205
0.0201483
0.0189488
0.019672
0.018024
0.0191277
0.0196011
0.0208538
0.0185543
0.0188503
0.0205393
0.0185775
0.019811
0.0205945
0.0205038
0.0198576
0.0189612
0.0185462
0.0196349
0.0210356
0.0194625
0.018819
0.0204347
0.0197199
0.0202211
0.0198618
0.019088
0.0209092
0.0183691
0.0188348
0.020027
0.0209537
0.0197457
0.0199738
0.0201138
0.0200265
0.018266
0.019174
0.0196796
0.0208484
0.0204533
0.0187476
0.0181809
0.0199715
0.0209341
0.0197848
0.0199541
0.0195422
0.0196047
0.01984
0.0187176
0.0208234
0.0195997
0.0187391
0.0181145
0.0204427
0.0199564
0.0209276
0.0201492
0.020629
0.0188016
0.0199302
0.0183535
0.0181647
0.0208734
0.0190974
0.0200552
0.0199984
0.0197174
0.0187837
0.0208752
0.0206002
0.0208861
0.020344
0.0177357
0.0199825
0.0182759
0.0210061
0.01898
0.020863
0.0180461
0.0202834
0.0206879
0.019703
0.0197702
0.0182494
0.0194792
0.0199079
0.0206254
0.0204368
0.020853
0.0208849
0.0188209
0.0209096
0.0182572
0.0201761
0.0203256
0.0207017
0.0207793
0.0197295
0.0210355
0.0199238
0.0195192
0.0195051
0.0201722
0.0208306
0.0193845
0.0191217
0.0208857
0.0205546
0.0198343
0.0211367
0.0202687
0.0203981
0.0206813
0.0206277
0.0208584
0.0197649
0.0195761
0.0207409
0.0206493
0.0181047
0.0197978
0.0193816
0.0209667
0.0202278
0.0206249
0.0188771
0.0187669
0.020068
0.0204448
0.0206199
0.0208169
0.0206894
0.0201081
0.0204404
0.0189556
0.0204012
0.0199327
0.0208022
0.0208329
0.0207973
0.0201949
0.0208275
0.0193362
0.0208055
0.0193288
0.0196885
0.0197536
0.0200623
0.0196323
0.0204834
0.0186668
0.02071
0.0206545
0.0199896
0.0188413
0.021053
0.0204031
0.0207496
0.0198563
0.0200111
0.0206468
0.0186652
0.0207917
0.0200877
0.0201587
0.0193321
0.0194444
0.0195357
0.0186849
0.01966
0.0210405
0.0201735
0.0182406
0.0204666
0.0185705
0.0203169
0.020253
0.018388
0.0184979
0.0195811
0.0201875
0.0206608
0.0196794
0.0200804
0.0199994
0.0181869
0.0197087
0.0208018
0.0208011
0.0208072
0.0202199
0.0203903
0.01891
0.0188386
0.0210264
0.0199913
0.0203779
0.0206155
0.0211423
0.0201005
0.0201599
0.0183214
0.0204187
0.0207169
0.0196528
0.0208624
0.0206599
0.020296
0.0192316
0.0204995
0.0198133
0.0182019
0.0200768
0.0191428
0.0187724
0.0203627
0.0200734
0.0208422
0.0207728
0.0202042
0.0209929
0.0180863
0.0196809
0.0209867
0.0210168
0.0185157
0.0203575
0.0190285
0.0193549
0.0207824
0.0195981
0.020362
0.0211461
0.0204837
0.0182273
0.020597
0.0188314
0.0206656
0.020355
0.0201606
0.0206522
0.020139
0.0206526
0.0187853
0.0207069
0.0208068
0.0190245
0.0202612
0.0199381
0.019885
0.0206646
0.0199557
0.0206275
0.0209674
0.0208411
0.0199465
0.0208515
0.0200101
0.0204139
0.0193672
0.0192943
0.018684
0.0183585
0.0203219
0.0203888
0.0199189
0.0209202
0.0194242
0.0208769
0.0184174
0.0210773
0.0209656
0.0204445
0.0208239
0.0193241
0.0183745
0.0198469
0.018812
0.0206089
0.0200438
0.0184214
0.0198047
0.0210859
0.0206048
0.0185819
0.0193892
0.0182678
0.0211542
0.018725
0.0206841
0.0191317
0.0190001
0.0209116
0.0209034
0.0208017
0.0204305
0.0186448
0.0203013
0.020994
0.019054
0.0208954
0.0203703
0.0210741
0.0182549
0.0203906
0.0196116
0.0203891
0.0197706
0.0196681
0.0196945
0.019661
0.0199209
0.019893
0.020283
0.0197765
0.0209835
0.0191169
0.0198444
0.0200538
0.0205184
0.0210253
0.0190007
0.0204834
0.0188607
0.0196672
0.0207719
0.0208672
0.0200351
0.0203257
0.0204985
0.0195691
0.0198339
0.0199181
0.0186782
0.0185286
0.02029
0.0206153
0.0193428
0.0198069
0.0206489
0.0188896
0.0201765
0.0190026
0.0204093
0.0209039
0.0200138
0.0186545
0.020653
0.0186091
0.0203361
0.0209753
0.018176
0.0211977
0.0190454
0.019709
0.0197795
0.018654
0.019597
0.0194375
0.0182977
0.0208855
0.0209227
0.0179516
0.0196502
0.0202775
0.020281
0.0202898
0.0210819
0.0207745
0.0196264
0.0193623
0.0184914
0.0182073
0.0174351
0.0209675
0.0204216
0.0203798
0.0204148
0.0186805
0.0186636
0.0197609
0.0208201
0.0182658
0.0203447
0.0198528
0.0200367
0.0202955
0.0193608
0.0205042
0.0195975
0.020076
0.02106
0.0177682
0.0199693
0.0205385
0.0206725
0.020344
0.0206356
0.0201746
0.0187411
0.0210857
0.0214718
0.019925
0.0199642
0.0190735
0.0197594
0.0204038
0.0207466
0.0199707
0.0198001
0.0195961
0.0184435
0.0197191
0.0209091
0.0201739
0.0211953
0.0201411
0.0200708
0.0210395
0.0188774
0.0205944
0.0186681
0.0210165
0.0204603
0.0196667
0.0212918
0.0195804
0.0200269
0.0210395
0.0197996
0.0208419
0.0201863
0.0205281
0.0187862
0.0199746
0.0198105
0.0192746
0.0205646
0.019478
0.0195426
0.0209914
0.0188849
0.0208044
0.0199436
0.0207962
0.0196447
0.0202678
0.0188627
0.0190768
0.0210332
0.0188671
0.0198921
0.0206309
0.018602
0.0199706
0.0206104
0.0196122
0.0188552
0.0194731
0.0199082
0.0196626
0.0205305
0.0200158
0.0207985
0.0200147
0.0207514
0.0182875
0.0189655
0.020966
0.0196754
0.0185714
0.0189106
0.0200795
0.016897
0.0185316
0.0199222
0.0198356
0.0209873
0.0192544
0.0206336
0.0208068
0.0209481
0.0206368
0.0209019
0.0196706
0.0193613
0.0205277
0.0197092
0.0194388
0.0207437
0.0197935
0.0183556
0.0185495
0.0198552
0.0174127
0.0205385
0.0205449
0.0194119
0.0205503
0.0206209
0.0203848
0.0212832
0.0197317
0.0187489
0.0195645
0.0198106
0.020566
0.0194192
0.0202568
0.0209599
0.0198482
0.0196264
0.020057
0.0210103
0.0205856
0.0214451
0.0208759
0.0201231
0.020331
0.0191642
0.0197343
0.0209352
0.0193474
0.0209318
0.019419
0.0205457
0.0180289
0.0204857
0.0198799
0.0205011
0.0195025
0.0203985
0.0198483
0.0205544
0.0180425
0.0192917
0.0198814
0.0196613
0.0201177
0.0200519
0.0200202
0.0208245
0.0202849
0.0185616
0.0194613
0.0187285
0.0201605
0.0199949
0.0188654
0.0213251
0.0200341
0.0200503
0.0206715
0.0193132
0.0189536
0.0208473
0.0188851
0.0184577
0.018388
0.0184139
0.0184542
0.0195777
0.0209189
0.0206346
0.0199118
0.0201111
0.0205199
0.0197061
0.0204944
0.0184562
0.0207175
0.0153083
0.0205576
0.0185911
0.0185804
0.0205971
0.0185875
0.0201306
0.0204506
0.020622
0.0192625
0.0201368
0.0197852
0.0198504
0.0188349
0.0205523
0.0202119
0.0206772
0.0200689
0.0188055
0.020247
0.0197873
0.0197503
0.018457
0.0191926
0.0190659
0.0183731
0.0185818
0.0199054
0.0197039
0.0188945
0.0196646
0.0208086
0.0207417
0.0210047
0.0152354
0.0185826
0.0207946
0.0187323
0.0206092
0.0184246
0.0208432
0.0206622
0.020666
0.0187705
0.0199801
0.0209408
0.0209117
0.0203617
0.0207991
0.0199261
0.0202077
0.019806
0.0186125
0.020243
0.0195916
0.0197111
0.0197576
0.0187349
0.0198092
0.0207172
0.0193333
0.0193495
0.0186547
0.0203927
0.0203847
0.018288
0.0198577
0.0199145
0.0204614
0.0188493
0.0200685
0.0201225
0.0213379
0.0166087
0.0201419
0.0197727
0.0185518
0.0207248
0.0191574
0.0190556
0.0203602
0.020875
0.0184372
0.0207627
0.0202213
0.018721
0.0184975
0.0207989
0.0208525
0.0185879
0.0199806
0.018412
0.0192542
0.0209327
0.0195681
0.0203809
0.0205607
0.0209141
0.0195582
0.0196109
0.0194724
0.0199953
0.0202062
0.019481
0.0205973
0.0187489
0.0189367
0.0201484
0.0199166
0.020385
0.0196067
0.0204623
0.0205373
0.0200058
0.0207767
0.0204219
0.0197397
0.0192752
0.0204463
0.0196675
0.0193015
0.0202505
0.0209713
0.0205444
0.0199825
0.0187475
0.0203202
0.0193926
0.0185296
0.019566
0.0200512
0.0185376
0.0203751
0.0192116
0.0177977
0.0184794
0.020403
0.0174972
0.0197233
0.0205882
0.0202705
0.0186757
0.0203418
0.0213998
0.0187943
0.0184214
0.0189278
0.0206228
0.0198834
0.0197303
0.0207226
0.0185948
0.0205379
0.019924
0.0209173
0.0210151
0.0155459
0.0199965
0.0205252
0.020673
0.0198365
0.0196695
0.0169836
0.0201623
0.0208348
0.0195173
0.0184692
0.0199154
0.0205536
0.0202153
0.0184531
0.0201917
0.0205314
0.0207694
0.0197728
0.0201579
0.0183379
0.0186285
0.0185709
0.019983
0.0196789
0.0202928
0.0209738
0.020706
0.0178855
0.0206761
0.0207294
0.0203562
0.0196718
0.0206391
0.0192694
0.0189504
0.0196226
0.0200678
0.0192919
0.0182603
0.0203553
0.0196942
0.0205843
0.0191291
0.0177822
0.019453
0.0206995
0.0203618
0.0192258
0.0196057
0.0206573
0.0207127
0.0194187
0.0196946
0.0205377
0.0209251
0.0204385
0.0209399
0.020365
0.0202487
0.0183638
0.019948
0.0188393
0.0205934
0.0203224
0.0194704
0.0186622
0.0210203
0.0184043
0.0196275
0.0187644
0.0198167
0.0179187
0.0200744
0.0198541
0.0198956
0.0198857
0.0192509
0.0207649
0.0188146
0.0204464
0.0197537
0.0197774
0.018114
0.0205229
0.0200866
0.0188218
0.0193014
0.0199369
0.0198857
0.0202302
0.0167764
0.0201851
0.0197142
0.0198893
0.0193428
0.0194541
0.0194128
0.0169094
0.0207075
0.0199398
0.0127491
0.0188748
0.0203969
0.0206557
0.0204453
0.019024
0.0169221
0.0206134
0.0188025
0.0205216
0.0209188
0.0202021
0.0190769
0.0206832
0.0184797
0.0180268
0.0181498
0.0202374
0.0197677
0.0195546
0.0209639
0.0204914
0.0201693
0.0191479
0.0180809
0.0210917
0.0200475
0.0211514
0.0205395
0.0187264
0.0196093
0.0201497
0.018675
0.0199003
0.0195566
0.0200529
0.0215701
0.0199876
0.0198984
0.0186399
0.0199505
0.0195119
0.0204023
0.0197328
0.0184822
0.0189464
0.020228
0.0204698
0.0187884
0.0204187
0.0192726
0.0203314
0.0191221
0.0189971
0.0169369
0.0208254
0.0206054
0.0202921
0.0207617
0.0196464
0.018937
0.0182471
0.0171241
0.0200945
0.0184149
0.0198022
0.0195618
0.0206885
0.0196897
0.0205453
0.0192475
0.0132938
0.0188197
0.0205963
0.0140396
0.0200094
0.0210789
0.0201402
0.0209129
0.0185778
0.0188762
0.0191123
0.0209295
0.0168062
0.0209775
0.0188041
0.0175146
0.0205272
0.0189288
0.0206822
0.0138121
0.0180572
0.0201864
0.0205808
0.0208763
0.0203707
0.0207301
0.0202886
0.0202454
0.0206062
0.0204523
0.0197583
0.0194592
0.0168979
0.0205613
0.0194199
0.0194224
0.0208325
0.0208748
0.0202502
0.0185714
0.02078
0.0203743
0.019725
0.0188805
0.0184128
0.0203714
0.0208416
0.0206181
0.0206939
0.0201044
0.0200258
0.0185481
0.0205699
0.019958
0.0201734
0.0196529
0.0184172
0.017451
0.019545
0.0212715
0.0203289
0.0199838
0.0189658
0.0194578
0.0191528
0.0186521
0.0206533
0.0195788
0.0159417
0.016539
0.0178484
0.018786
0.0203362
0.0197557
0.0200185
0.0194802
0.0178286
0.020073
0.0206008
0.0180212
0.021222
0.0183279
0.0208218
0.0190876
0.020576
0.020564
0.020037
0.0203745
0.0195329
0.0188632
0.0190875
0.0194381
0.0203679
0.0200624
0.0190357
0.0191635
0.0200836
0.018426
0.0199254
0.0190661
0.020575
0.0193164
0.0197213
0.0162143
0.0206559
0.0209721
0.0200363
0.0204186
0.0195422
0.0197384
0.020514
0.0202922
0.0201867
0.0209354
0.0200564
0.0184788
0.0183026
0.0213403
0.0185326
0.0184814
0.0182289
0.0203141
0.0208879
0.0199417
0.0209524
0.0213317
0.0208512
0.0203242
0.0195005
0.0185732
0.0200041
0.0177872
0.0202121
0.0200046
0.0196539
0.019574
0.0191011
0.0198548
0.0209595
0.0179328
0.0192754
0.0199389
0.0181061
0.0206552
0.0174306
0.0178741
0.0184487
0.0205498
0.0188907
0.0185386
0.0189934
0.0182236
0.0199226
0.0167163
0.0169428
0.0198875
0.0185986
0.0180262
0.0197852
0.0187068
0.0192903
0.0198824
0.0191882
0.0184765
0.0200827
0.0189462
0.0193369
0.0184633
0.0194593
0.0194812
0.0172843
0.0207693
0.0197654
0.0200646
0.019259
0.0187414
0.0184349
0.0197418
0.0197044
0.0207648
0.0200316
0.0204514
0.0193552
0.0199303
0.0206206
0.020594
0.0167357
0.0170453
0.0182518
0.0205518
0.018352
0.019929
0.0163835
0.0192582
0.0200312
0.0194135
0.0196938
0.019162
0.0194403
0.0194538
0.0209238
0.0188688
0.0194743
0.0210357
0.0182337
0.0195909
0.0186063
0.0204083
0.0190115
0.0183884
0.0198518
0.0185703
0.0168654
0.0175108
0.0185366
0.0192099
0.0172685
0.0208783
0.0190133
0.0180921
0.0194786
0.0205632
0.0195329
0.0175685
0.0210021
0.0200212
0.0184307
0.0194861
0.0197547
0.0186738
0.0196938
0.0198291
0.0196029
0.018394
0.018074
0.019639
0.0188764
0.0175092
0.0179348
0.0180951
0.0198968
0.0181463
0.0204801
0.0196698
0.019758
0.0190795
0.0206253
0.0184578
0.019885
0.0191755
0.0137196
0.0207506
0.0176482
0.019887
0.0205652
0.0206985
0.0169183
0.0204291
0.0208084
0.0186967
0.0200191
0.0195829
0.0190472
0.0169029
0.0197266
0.0188608
0.0206142
0.021135
0.019144
0.0208296
0.0186741
0.018788
0.0181376
0.0168378
0.0173393
0.02081
0.0172688
0.020488
0.0188652
0.0177771
0.0194023
0.0208135
0.0172632
0.0143681
0.0186796
0.0201653
0.0205523
0.0200104
0.0132157
0.0192922
0.0203797
0.0201085
0.0209513
0.0192909
0.0174145
0.0207276
0.0173915
0.0199659
0.0193243
0.0191247
0.0190313
0.0201055
0.0185766
0.0184575
0.0171713
0.0186348
0.0202826
0.0196885
0.0196028
0.0180882
0.0188623
0.0190923
0.0186083
0.0202
0.0179884
0.0183803
0.0199663
0.0205322
0.0179749
0.0204138
0.0189612
0.0211842
0.0176942
0.0207022
0.019403
0.0199923
0.0199833
0.019035
0.0185274
0.0211215
0.019732
0.0197651
0.0194977
0.0182542
0.0203216
0.0206861
0.0181869
0.0184885
0.0190919
0.017595
0.01896
0.0198785
0.0169455
0.0208805
0.0171003
0.0191136
0.0197753
0.0174227
0.0189783
0.0194534
0.0185112
0.0195731
0.0184657
0.0197695
0.0176711
0.0201231
0.0177318
0.0190879
0.0158418
0.0195885
0.0179089
0.0183602
0.020129
0.0182325
0.0188158
0.0210165
0.0199454
0.0200414
0.02059
0.0173177
0.0197343
0.0188309
0.0197096
0.0198088
0.0191814
0.0206727
0.0199775
0.0182387
0.0181077
0.0203035
0.0196129
0.0197271
0.0169919
0.020592
0.0211331
0.0203109
0.0196364
0.0184049
0.0186885
0.0192323
0.018125
0.0182685
0.0201546
0.0193685
0.0189743
0.0192458
0.0191848
0.019499
0.0176736
0.0188218
0.0183069
0.0169693
0.0208159
0.0194324
0.018577
0.0205364
0.0194614
0.0191224
0.0200094
0.01721
0.0183279
0.0176621
0.0178493
0.0209424
0.0200148
0.0165885
0.0205756
0.0175284
0.0195057
0.0197809
0.0193791
0.0204646
0.019068
0.019675
0.0192634
0.0190338
0.0189185
0.0203539
0.017631
0.0180649
0.0189958
0.0170849
0.0190315
0.0173293
0.0186163
0.0206425
0.0196679
0.0164355
0.0165759
0.0182504
0.0177831
0.0188785
0.0182956
0.0191445
0.0199766
0.0167166
0.0198971
0.0193735
0.018951
0.017572
0.0194272
0.0173367
0.0161637
0.0183804
0.0180902
0.0181496
0.0188469
0.0187618
0.0191522
0.0179531
0.0202983
0.0180983
0.0193114
0.0183382
0.0194492
0.0188151
0.0177244
0.0198472
0.0192036
0.016957
0.018303
0.0189999
0.0209978
0.0206483
0.0201929