/*--------------------------------*- C++ -*----------------------------------*\
| =========                 |                                                 |
| \\      /  F ield         | OpenFOAM: The Open Source CFD Toolbox           |
|  \\    /   O peration     | Version:  2212                                  |
|   \\  /    A nd           | Website:  www.openfoam.com                      |
|    \\/     M anipulation  |                                                 |
\*---------------------------------------------------------------------------*/
FoamFile
{
    version     2.0;
    format      ascii;
    arch        "LSB;label=32;scalar=64";
    class       volScalarField;
    location    "0.034";
    object      nut;
}
// * * * * * * * * * * * * * * * * * * * * * * * * * * * * * * * * * * * * * //

dimensions      [0 2 -1 0 0 0 0];

internalField   nonuniform List<scalar> 
31639
(
5.15537e-05
4.9488e-05
5.07212e-05
5.46593e-05
4.97593e-05
4.83986e-05
4.78009e-05
5.20069e-05
5.12237e-05
5.31845e-05
5.29508e-05
5.2916e-05
5.03981e-05
5.40153e-05
4.84237e-05
4.63641e-05
5.17937e-05
4.8569e-05
4.63371e-05
4.97867e-05
4.04557e-05
5.32621e-05
5.4139e-05
4.66539e-05
4.57058e-05
5.06595e-05
4.97833e-05
4.41243e-05
4.80348e-05
5.41897e-05
5.33111e-05
4.75449e-05
5.39354e-05
4.58893e-05
4.25122e-05
5.39898e-05
3.88586e-05
5.50534e-05
5.35333e-05
3.74054e-05
4.26875e-05
4.20975e-05
5.28566e-05
5.31351e-05
5.32014e-05
5.33459e-05
4.83625e-05
4.86255e-05
5.17745e-05
5.43212e-05
5.3047e-05
3.8466e-05
5.4612e-05
3.98621e-05
4.77611e-05
5.09664e-05
4.09774e-05
5.00547e-05
4.94439e-05
4.08731e-05
5.02475e-05
5.25469e-05
4.54682e-05
4.93621e-05
5.11851e-05
5.44595e-05
5.03002e-05
5.00827e-05
4.38543e-05
5.42063e-05
5.38767e-05
4.62639e-05
5.24026e-05
4.99739e-05
5.40822e-05
4.22331e-05
5.31838e-05
4.86907e-05
4.8669e-05
5.25953e-05
4.57245e-05
3.70926e-05
5.38102e-05
5.1096e-05
5.14787e-05
5.30611e-05
5.42139e-05
5.36646e-05
4.34713e-05
5.47712e-05
5.06402e-05
5.02252e-05
4.17042e-05
4.89776e-05
4.46326e-05
4.86489e-05
4.91858e-05
4.99676e-05
5.04288e-05
4.12396e-05
5.44375e-05
5.31006e-05
4.88957e-05
4.03065e-05
4.13287e-05
5.35422e-05
4.01474e-05
3.92207e-05
4.47532e-05
3.99336e-05
5.21617e-05
4.16501e-05
4.89182e-05
4.73333e-05
5.01731e-05
3.99219e-05
4.84557e-05
4.86413e-05
5.29009e-05
4.92904e-05
5.23763e-05
5.2797e-05
5.24496e-05
5.10856e-05
5.01018e-05
5.38161e-05
4.97737e-05
4.52964e-05
4.43241e-05
5.26766e-05
5.32601e-05
5.27343e-05
5.31352e-05
4.78836e-05
5.24434e-05
5.01676e-05
4.11699e-05
3.97769e-05
5.2677e-05
4.99593e-05
4.98053e-05
5.30988e-05
5.32576e-05
3.97064e-05
3.83377e-05
5.42452e-05
5.27716e-05
4.18846e-05
4.15488e-05
5.32065e-05
4.47811e-05
5.05839e-05
4.64975e-05
5.21313e-05
4.27188e-05
5.43225e-05
4.98788e-05
4.37588e-05
4.30982e-05
4.64765e-05
5.34547e-05
4.31198e-05
4.47369e-05
4.0528e-05
4.18246e-05
4.87851e-05
4.23703e-05
5.42118e-05
5.27357e-05
4.01387e-05
4.65661e-05
4.77135e-05
4.25017e-05
5.03208e-05
5.48607e-05
5.27199e-05
5.0645e-05
5.44124e-05
5.05872e-05
5.01694e-05
4.87909e-05
4.87982e-05
4.78268e-05
3.82005e-05
5.08277e-05
5.4801e-05
4.85252e-05
5.40062e-05
4.1699e-05
4.09784e-05
5.54553e-05
5.27044e-05
5.17886e-05
4.92895e-05
4.99768e-05
4.79805e-05
4.77115e-05
5.2456e-05
4.06517e-05
4.8036e-05
5.36863e-05
5.46058e-05
5.18215e-05
5.20442e-05
5.00206e-05
4.95927e-05
4.87454e-05
4.81293e-05
5.28646e-05
3.82993e-05
4.93401e-05
4.82441e-05
5.12615e-05
5.29421e-05
5.19446e-05
5.38038e-05
4.28638e-05
4.62582e-05
5.29394e-05
5.31126e-05
5.18812e-05
4.86999e-05
4.05262e-05
4.94941e-05
4.06298e-05
4.92953e-05
5.25978e-05
4.60902e-05
4.21466e-05
5.19834e-05
5.12913e-05
5.4883e-05
4.32707e-05
4.10297e-05
5.17252e-05
5.21033e-05
4.12792e-05
5.38103e-05
4.49655e-05
4.01607e-05
4.8709e-05
5.14742e-05
4.95866e-05
4.6588e-05
4.54517e-05
5.20501e-05
4.84944e-05
4.77106e-05
4.21878e-05
4.92997e-05
4.80336e-05
4.25244e-05
4.65184e-05
5.43642e-05
5.32124e-05
4.73741e-05
4.28277e-05
5.23055e-05
5.20762e-05
4.92609e-05
5.45787e-05
5.33778e-05
5.12141e-05
5.35092e-05
4.85294e-05
4.91812e-05
3.99115e-05
4.60001e-05
5.328e-05
4.80804e-05
5.17707e-05
4.72093e-05
5.00777e-05
5.42365e-05
5.44606e-05
5.03785e-05
4.13173e-05
4.8559e-05
4.47383e-05
5.32409e-05
4.90279e-05
5.36741e-05
5.44964e-05
4.75165e-05
4.21582e-05
4.45193e-05
4.28966e-05
4.05851e-05
5.30296e-05
4.3667e-05
5.36735e-05
4.89238e-05
4.68197e-05
4.32795e-05
5.49096e-05
4.75348e-05
4.65074e-05
5.34507e-05
4.99901e-05
4.48843e-05
4.9302e-05
4.35734e-05
4.9755e-05
4.87704e-05
4.24121e-05
4.81598e-05
4.82721e-05
3.71008e-05
3.93521e-05
5.29373e-05
5.41037e-05
5.2195e-05
4.05964e-05
4.30338e-05
5.22776e-05
4.39237e-05
4.4219e-05
5.38305e-05
5.43958e-05
4.81857e-05
5.33073e-05
5.42536e-05
4.25155e-05
5.41662e-05
3.96677e-05
4.01875e-05
5.32865e-05
5.27282e-05
5.31483e-05
5.42959e-05
5.21952e-05
4.32978e-05
4.92955e-05
4.89424e-05
5.35445e-05
5.44406e-05
5.47842e-05
4.88452e-05
4.772e-05
5.13739e-05
5.23877e-05
5.14227e-05
4.78155e-05
4.92969e-05
4.8463e-05
4.93049e-05
5.21541e-05
4.83488e-05
4.23486e-05
5.13462e-05
5.51858e-05
4.78317e-05
5.39154e-05
5.38064e-05
4.93254e-05
4.24727e-05
4.91357e-05
4.9113e-05
4.0438e-05
5.44278e-05
4.32952e-05
5.06707e-05
5.32425e-05
3.94661e-05
4.95974e-05
4.92301e-05
4.11835e-05
5.03582e-05
4.30268e-05
4.9429e-05
5.43249e-05
5.16166e-05
3.9218e-05
5.10574e-05
4.30854e-05
5.11152e-05
5.32048e-05
5.36347e-05
5.32878e-05
4.3267e-05
5.2386e-05
4.0607e-05
4.84705e-05
4.00348e-05
5.39346e-05
5.2737e-05
5.34787e-05
5.30524e-05
4.51166e-05
5.4316e-05
4.93852e-05
5.1342e-05
4.90367e-05
4.37353e-05
4.95064e-05
5.19872e-05
5.13275e-05
5.22222e-05
5.0682e-05
5.22257e-05
4.8989e-05
4.21246e-05
4.94398e-05
5.22781e-05
5.20375e-05
3.93634e-05
5.36509e-05
5.29447e-05
4.93103e-05
5.13461e-05
5.18703e-05
5.01543e-05
5.40405e-05
4.10163e-05
5.12629e-05
5.35712e-05
3.9517e-05
5.01479e-05
5.10646e-05
4.30277e-05
4.10697e-05
4.13078e-05
4.73245e-05
4.08827e-05
4.91364e-05
4.91772e-05
4.70315e-05
5.40965e-05
4.2015e-05
5.28224e-05
5.39761e-05
4.95176e-05
5.24048e-05
4.80848e-05
5.34787e-05
4.94376e-05
4.98608e-05
5.4503e-05
4.94605e-05
4.14312e-05
4.98138e-05
5.3892e-05
5.32222e-05
5.19851e-05
5.42979e-05
4.82381e-05
5.117e-05
5.26308e-05
5.45427e-05
5.41233e-05
4.26318e-05
4.88846e-05
3.80753e-05
4.87138e-05
4.87103e-05
4.20158e-05
4.0236e-05
4.77527e-05
5.22173e-05
5.29002e-05
4.12386e-05
5.18877e-05
4.64073e-05
4.92223e-05
5.2345e-05
3.83845e-05
4.88116e-05
4.00013e-05
4.81121e-05
5.31917e-05
5.48296e-05
5.22438e-05
4.92859e-05
3.9663e-05
5.18349e-05
4.98485e-05
5.2284e-05
4.061e-05
4.20813e-05
4.91235e-05
4.15855e-05
4.29395e-05
5.10273e-05
4.04041e-05
4.78223e-05
4.11028e-05
5.17604e-05
4.20012e-05
5.42784e-05
5.28611e-05
5.2897e-05
5.35994e-05
4.51866e-05
5.29086e-05
5.35332e-05
5.04727e-05
5.26951e-05
4.99647e-05
5.2851e-05
5.49018e-05
4.70111e-05
5.35359e-05
5.41596e-05
4.92989e-05
4.54244e-05
5.43798e-05
4.97865e-05
3.8807e-05
3.96717e-05
4.97695e-05
5.35336e-05
5.40654e-05
4.88118e-05
5.49917e-05
5.48954e-05
5.22216e-05
5.02423e-05
4.83343e-05
4.93089e-05
4.31342e-05
4.90995e-05
5.11523e-05
5.42002e-05
4.45436e-05
4.41775e-05
4.38597e-05
4.74626e-05
4.90872e-05
3.86147e-05
5.19635e-05
4.64847e-05
5.16266e-05
4.94924e-05
5.29155e-05
4.94171e-05
4.23955e-05
5.10026e-05
5.37863e-05
4.42474e-05
5.27958e-05
5.47122e-05
4.94466e-05
4.88978e-05
4.41662e-05
4.41189e-05
4.93681e-05
4.98347e-05
4.28219e-05
4.23184e-05
4.99909e-05
4.54351e-05
5.17965e-05
4.50143e-05
4.86773e-05
5.33214e-05
4.95164e-05
4.08498e-05
4.59827e-05
4.99737e-05
5.38225e-05
4.14495e-05
3.80307e-05
5.30938e-05
4.08811e-05
5.05922e-05
5.48001e-05
4.15806e-05
4.96879e-05
5.3522e-05
4.96196e-05
4.08066e-05
5.32758e-05
4.9299e-05
4.14696e-05
5.29246e-05
5.04747e-05
4.84171e-05
5.24068e-05
3.93282e-05
4.6361e-05
4.9684e-05
4.79908e-05
4.6368e-05
4.9832e-05
5.41987e-05
5.35394e-05
5.1951e-05
5.36211e-05
5.3313e-05
5.24356e-05
4.54795e-05
5.22431e-05
5.38599e-05
5.54806e-05
4.42429e-05
5.00123e-05
5.0457e-05
5.5957e-05
4.28039e-05
3.90719e-05
5.41702e-05
4.42361e-05
5.501e-05
4.79413e-05
4.2413e-05
5.00162e-05
5.33007e-05
4.97588e-05
5.14571e-05
4.03094e-05
5.26578e-05
5.04124e-05
3.97134e-05
5.39843e-05
5.28585e-05
4.26239e-05
4.2389e-05
4.32629e-05
4.78903e-05
5.02828e-05
5.00048e-05
4.91324e-05
4.98613e-05
5.29943e-05
4.98002e-05
4.9364e-05
4.25472e-05
5.44505e-05
4.04422e-05
4.96068e-05
4.87693e-05
4.73873e-05
5.49378e-05
4.96117e-05
4.47181e-05
4.03655e-05
4.20304e-05
4.86629e-05
5.365e-05
4.375e-05
5.45203e-05
4.91594e-05
5.28609e-05
4.20892e-05
4.81302e-05
5.22567e-05
5.45629e-05
5.35358e-05
5.24615e-05
5.01077e-05
4.91597e-05
5.44362e-05
5.43141e-05
5.36327e-05
4.47622e-05
5.33215e-05
4.24854e-05
5.39218e-05
5.23036e-05
4.89222e-05
4.32848e-05
4.8268e-05
3.79522e-05
5.35866e-05
5.00841e-05
5.48773e-05
4.91682e-05
4.72252e-05
4.20456e-05
5.34763e-05
4.06618e-05
3.83488e-05
4.30688e-05
4.48497e-05
4.24869e-05
4.92478e-05
4.09365e-05
5.21253e-05
5.11788e-05
3.83866e-05
5.44284e-05
4.25966e-05
4.59226e-05
4.81519e-05
4.70749e-05
5.22028e-05
5.38866e-05
5.48776e-05
5.35673e-05
4.88603e-05
5.01615e-05
4.77861e-05
4.81076e-05
4.03549e-05
3.18759e-05
5.39494e-05
4.88245e-05
5.22628e-05
5.30402e-05
4.14261e-05
5.34937e-05
5.40146e-05
5.2329e-05
5.27231e-05
5.23084e-05
5.07477e-05
5.41805e-05
5.46669e-05
4.99334e-05
5.31081e-05
5.30745e-05
4.33045e-05
5.32602e-05
4.723e-05
5.21517e-05
4.74877e-05
4.92727e-05
4.59369e-05
5.48865e-05
4.82984e-05
5.00306e-05
4.88926e-05
4.26226e-05
5.4449e-05
5.0517e-05
4.71848e-05
4.20602e-05
5.22116e-05
3.9918e-05
5.33453e-05
5.20321e-05
4.74758e-05
5.40412e-05
5.48393e-05
5.38282e-05
4.11276e-05
4.97434e-05
4.90749e-05
4.99518e-05
4.31265e-05
5.25224e-05
5.31905e-05
4.73697e-05
4.96319e-05
4.7176e-05
5.17343e-05
4.74498e-05
4.89207e-05
3.96951e-05
5.26153e-05
5.10509e-05
5.33503e-05
4.54379e-05
4.96572e-05
5.08344e-05
4.93631e-05
4.63297e-05
5.09141e-05
5.26876e-05
4.8623e-05
3.98185e-05
3.98324e-05
4.88286e-05
3.89519e-05
4.25015e-05
5.05651e-05
5.06602e-05
5.29729e-05
3.95613e-05
4.88494e-05
5.39037e-05
4.35462e-05
4.07667e-05
5.0461e-05
4.31073e-05
5.16014e-05
4.41061e-05
5.36768e-05
4.56918e-05
4.69465e-05
5.42715e-05
3.9965e-05
4.80654e-05
4.84635e-05
5.29112e-05
5.38177e-05
5.37102e-05
4.3187e-05
5.211e-05
5.35039e-05
4.70282e-05
5.4302e-05
5.27269e-05
5.1579e-05
5.35395e-05
5.00491e-05
5.50145e-05
5.46853e-05
5.47545e-05
5.18302e-05
4.73875e-05
5.05501e-05
4.95796e-05
4.11567e-05
4.84338e-05
5.15971e-05
5.32432e-05
5.41862e-05
4.87491e-05
5.45038e-05
5.28773e-05
4.75986e-05
5.26644e-05
5.31803e-05
5.19315e-05
5.23812e-05
4.20643e-05
4.78656e-05
5.31801e-05
3.89714e-05
4.92664e-05
4.89142e-05
4.87842e-05
4.84785e-05
5.4344e-05
5.22035e-05
5.31261e-05
4.91635e-05
5.19865e-05
5.02322e-05
5.33487e-05
5.03906e-05
4.81902e-05
4.25619e-05
5.33391e-05
4.29357e-05
4.80658e-05
4.911e-05
4.7781e-05
5.06134e-05
5.4334e-05
4.20352e-05
5.41909e-05
4.25077e-05
5.05448e-05
4.7977e-05
4.85542e-05
4.91581e-05
5.41604e-05
4.1604e-05
5.22707e-05
5.3276e-05
5.36382e-05
5.03209e-05
5.03607e-05
3.8461e-05
5.35354e-05
5.2908e-05
5.17654e-05
5.24361e-05
5.31736e-05
5.00002e-05
5.04806e-05
5.01292e-05
4.34646e-05
4.88699e-05
5.4162e-05
4.02349e-05
4.41469e-05
5.59426e-05
5.29626e-05
4.62124e-05
4.7957e-05
5.03741e-05
4.63097e-05
4.89112e-05
4.42528e-05
5.27745e-05
5.39658e-05
3.88014e-05
5.026e-05
5.37209e-05
5.26137e-05
5.42673e-05
4.83823e-05
5.31531e-05
4.34746e-05
4.30893e-05
5.42472e-05
5.3147e-05
4.94208e-05
4.3406e-05
5.25568e-05
5.31645e-05
4.50224e-05
5.37018e-05
5.3402e-05
5.36279e-05
5.14922e-05
5.32046e-05
5.02322e-05
5.07603e-05
4.88667e-05
4.68404e-05
4.10608e-05
5.0584e-05
5.02201e-05
4.33614e-05
5.37148e-05
4.03557e-05
4.80212e-05
4.90474e-05
4.24948e-05
4.87837e-05
4.71982e-05
5.1699e-05
5.00701e-05
5.27617e-05
4.17922e-05
4.20826e-05
4.82351e-05
4.17393e-05
4.73896e-05
5.32403e-05
4.87625e-05
5.35136e-05
4.96721e-05
4.92504e-05
5.36707e-05
4.74178e-05
4.98741e-05
4.91821e-05
4.89731e-05
5.10959e-05
4.36624e-05
4.99734e-05
5.25737e-05
5.39724e-05
5.48644e-05
4.17126e-05
4.13862e-05
4.94603e-05
5.34931e-05
4.4e-05
4.81176e-05
5.11568e-05
4.94175e-05
5.57986e-05
4.88659e-05
4.83193e-05
5.21493e-05
4.16979e-05
5.34316e-05
5.39426e-05
4.28753e-05
4.60008e-05
4.90655e-05
4.72764e-05
5.42897e-05
5.37529e-05
5.11972e-05
4.34655e-05
5.29288e-05
4.17462e-05
4.84144e-05
5.30984e-05
4.64469e-05
5.51997e-05
4.01367e-05
4.94366e-05
5.11665e-05
4.99218e-05
4.03819e-05
4.08269e-05
5.34687e-05
5.40144e-05
4.76687e-05
5.4175e-05
5.12025e-05
4.92589e-05
4.19193e-05
4.44764e-05
5.0851e-05
4.94131e-05
4.94141e-05
5.44887e-05
5.36103e-05
5.52436e-05
5.40952e-05
5.09597e-05
5.08196e-05
5.2359e-05
4.2401e-05
5.29685e-05
5.18888e-05
5.03365e-05
5.06995e-05
5.39546e-05
4.86225e-05
5.41864e-05
4.86867e-05
3.8952e-05
5.4754e-05
4.61455e-05
5.36138e-05
4.73305e-05
5.32159e-05
4.30454e-05
5.20524e-05
5.57643e-05
4.93368e-05
4.98021e-05
4.1045e-05
5.27354e-05
5.37907e-05
5.13902e-05
4.17184e-05
5.63424e-05
4.95788e-05
5.14068e-05
5.37101e-05
5.33836e-05
5.26736e-05
4.90746e-05
4.92115e-05
5.50665e-05
4.29145e-05
4.34806e-05
4.26646e-05
4.5031e-05
5.07368e-05
4.07208e-05
5.42893e-05
5.34347e-05
5.45734e-05
4.85432e-05
4.91365e-05
5.00102e-05
5.34823e-05
4.99394e-05
5.00044e-05
5.37168e-05
5.37422e-05
4.92092e-05
5.33096e-05
5.01416e-05
4.83848e-05
5.20448e-05
4.71736e-05
5.45491e-05
5.4222e-05
5.47797e-05
5.47258e-05
5.35934e-05
4.63386e-05
5.54276e-05
5.01546e-05
5.06578e-05
4.84894e-05
5.09788e-05
5.48819e-05
4.96408e-05
5.28663e-05
4.78492e-05
4.95738e-05
5.19623e-05
4.37583e-05
4.11198e-05
4.89485e-05
4.81586e-05
5.41066e-05
4.68487e-05
4.07643e-05
5.08222e-05
5.30123e-05
4.4825e-05
4.70288e-05
5.01311e-05
5.44144e-05
5.39713e-05
4.84071e-05
4.53798e-05
4.9744e-05
5.2358e-05
4.75927e-05
5.03447e-05
5.00449e-05
4.06619e-05
4.73258e-05
4.71827e-05
5.18725e-05
5.32912e-05
4.9831e-05
5.38217e-05
5.21456e-05
4.97058e-05
5.05299e-05
4.29111e-05
4.47074e-05
4.0269e-05
5.35647e-05
5.07256e-05
5.43532e-05
5.69776e-05
5.22803e-05
4.10984e-05
5.26239e-05
4.7783e-05
5.16507e-05
5.14713e-05
5.27852e-05
4.11045e-05
5.47509e-05
4.247e-05
5.0126e-05
5.0451e-05
4.91771e-05
5.54901e-05
4.88977e-05
5.21859e-05
4.36472e-05
4.89618e-05
4.98304e-05
5.2816e-05
4.62844e-05
4.42826e-05
5.22936e-05
5.32718e-05
5.14944e-05
5.21535e-05
5.42304e-05
4.27631e-05
4.89381e-05
4.86961e-05
4.49978e-05
5.28888e-05
5.4445e-05
5.44797e-05
5.33322e-05
5.504e-05
4.31174e-05
4.236e-05
4.31541e-05
5.48041e-05
4.11024e-05
5.27134e-05
5.12655e-05
4.25558e-05
4.75759e-05
5.28475e-05
5.37205e-05
4.57543e-05
4.69979e-05
4.80116e-05
5.02103e-05
5.42218e-05
5.02431e-05
4.29292e-05
5.0029e-05
5.47085e-05
5.34376e-05
5.47052e-05
5.42476e-05
5.64619e-05
5.44988e-05
5.30309e-05
4.34654e-05
4.1229e-05
5.0172e-05
4.62594e-05
5.39605e-05
4.17557e-05
5.08797e-05
4.90907e-05
5.4604e-05
4.36101e-05
5.17486e-05
5.26967e-05
5.1009e-05
4.79085e-05
4.23311e-05
5.31074e-05
4.67287e-05
5.46806e-05
4.97683e-05
5.5965e-05
5.45462e-05
5.02859e-05
4.10643e-05
4.20407e-05
4.89991e-05
5.08969e-05
4.67058e-05
5.57052e-05
4.27115e-05
5.40337e-05
5.23453e-05
4.74415e-05
5.17869e-05
5.32814e-05
5.39196e-05
5.42065e-05
5.44237e-05
5.062e-05
5.15207e-05
4.09692e-05
4.70303e-05
5.42684e-05
4.34331e-05
5.18424e-05
4.87975e-05
4.34148e-05
4.9528e-05
5.15777e-05
4.92684e-05
5.22082e-05
5.31047e-05
4.26428e-05
4.88783e-05
5.02598e-05
4.22091e-05
4.71004e-05
4.9046e-05
4.83475e-05
5.20757e-05
4.29515e-05
4.27131e-05
4.93002e-05
4.78585e-05
5.42723e-05
5.53709e-05
5.4135e-05
4.81238e-05
4.85003e-05
5.05207e-05
4.75636e-05
5.37316e-05
4.27742e-05
4.99264e-05
4.90955e-05
5.46838e-05
5.22699e-05
4.8963e-05
4.98756e-05
5.34538e-05
4.24873e-05
5.02986e-05
5.42142e-05
4.76792e-05
3.656e-05
4.97389e-05
4.21803e-05
5.10498e-05
3.99943e-05
5.44214e-05
5.47417e-05
5.38317e-05
5.07108e-05
4.30431e-05
4.20066e-05
5.31675e-05
5.45919e-05
5.38207e-05
5.03259e-05
5.00914e-05
5.22192e-05
5.4712e-05
5.36262e-05
4.09394e-05
4.89709e-05
5.11302e-05
5.17619e-05
4.78782e-05
5.17244e-05
4.06643e-05
5.4441e-05
5.3343e-05
5.07416e-05
5.06295e-05
5.20393e-05
4.98066e-05
5.46484e-05
5.18912e-05
4.33531e-05
4.92751e-05
5.24206e-05
4.87999e-05
5.03651e-05
5.14297e-05
4.01753e-05
4.40002e-05
5.39347e-05
5.47526e-05
5.32575e-05
5.46245e-05
5.2338e-05
5.36045e-05
5.1356e-05
5.03166e-05
5.17204e-05
5.35885e-05
4.73863e-05
4.9219e-05
4.75639e-05
4.98068e-05
5.32981e-05
3.98221e-05
5.06073e-05
4.08557e-05
5.32695e-05
4.10438e-05
4.1499e-05
4.90514e-05
3.96885e-05
4.93714e-05
5.12455e-05
5.33836e-05
5.34475e-05
4.6675e-05
4.68141e-05
5.56228e-05
4.53507e-05
4.2876e-05
4.88129e-05
4.59463e-05
5.41176e-05
5.16611e-05
5.07063e-05
4.24747e-05
5.30202e-05
5.36277e-05
5.42817e-05
4.1668e-05
4.49814e-05
5.00319e-05
5.29023e-05
5.51104e-05
4.32038e-05
4.1414e-05
5.24876e-05
5.00384e-05
5.46301e-05
4.98873e-05
3.98729e-05
5.16273e-05
5.31898e-05
4.20009e-05
4.01224e-05
5.36843e-05
4.39968e-05
4.37774e-05
5.41018e-05
5.47325e-05
5.23797e-05
5.59194e-05
4.93316e-05
4.78804e-05
5.38264e-05
4.61682e-05
5.40312e-05
4.70822e-05
5.14659e-05
5.35424e-05
4.89246e-05
4.20754e-05
5.29188e-05
5.35368e-05
4.8032e-05
4.93904e-05
5.00767e-05
4.51581e-05
4.70387e-05
5.06325e-05
5.11182e-05
5.40053e-05
4.74907e-05
5.25025e-05
4.13044e-05
5.25024e-05
5.49777e-05
4.0567e-05
5.33199e-05
5.04639e-05
3.80046e-05
4.19707e-05
5.02813e-05
4.96116e-05
5.28436e-05
4.76415e-05
4.32442e-05
5.33716e-05
5.47269e-05
5.41745e-05
5.14354e-05
5.42805e-05
4.16728e-05
5.38988e-05
4.96984e-05
4.19759e-05
4.24795e-05
3.72101e-05
4.29619e-05
5.20227e-05
4.8049e-05
5.11408e-05
4.99726e-05
4.49927e-05
4.62127e-05
3.9851e-05
3.97666e-05
5.57093e-05
5.50231e-05
4.30929e-05
5.41204e-05
5.31404e-05
4.29509e-05
4.91124e-05
5.02647e-05
4.48275e-05
4.72944e-05
5.43515e-05
4.38566e-05
3.9503e-05
5.43408e-05
5.5047e-05
4.62942e-05
5.40482e-05
4.80087e-05
4.46078e-05
4.29054e-05
4.93674e-05
4.17249e-05
4.21293e-05
5.05576e-05
5.18592e-05
4.90029e-05
5.36806e-05
5.39611e-05
4.92177e-05
5.42138e-05
3.3187e-05
4.9122e-05
4.17918e-05
5.0092e-05
5.40108e-05
4.91681e-05
4.64939e-05
4.91271e-05
4.31977e-05
5.13122e-05
4.93696e-05
4.68346e-05
4.18383e-05
3.94874e-05
3.88585e-05
4.76594e-05
4.21004e-05
4.92195e-05
4.2517e-05
4.81745e-05
5.39489e-05
5.11865e-05
4.83142e-05
5.04243e-05
5.18467e-05
4.93877e-05
5.28432e-05
4.07379e-05
5.03645e-05
5.45282e-05
5.44239e-05
4.86685e-05
5.58745e-05
4.46586e-05
5.25703e-05
4.886e-05
4.12697e-05
5.25655e-05
5.45284e-05
5.19089e-05
5.24912e-05
5.37568e-05
5.0992e-05
3.91358e-05
4.01258e-05
4.86188e-05
5.4862e-05
5.05734e-05
5.33199e-05
4.68466e-05
4.80564e-05
4.43742e-05
4.10292e-05
4.10085e-05
4.07979e-05
5.23336e-05
5.07314e-05
5.42206e-05
4.80341e-05
4.75538e-05
5.52186e-05
4.07696e-05
4.99969e-05
5.4436e-05
5.39279e-05
4.69116e-05
4.80839e-05
5.2661e-05
5.45453e-05
5.40964e-05
4.21988e-05
5.02512e-05
5.28e-05
5.13128e-05
5.01077e-05
5.55882e-05
5.29189e-05
5.41428e-05
5.07374e-05
4.59885e-05
5.01569e-05
5.39075e-05
5.23396e-05
4.96159e-05
4.16891e-05
5.37192e-05
5.3324e-05
5.37061e-05
5.28829e-05
4.09464e-05
3.80884e-05
4.8787e-05
5.23008e-05
4.86882e-05
5.08584e-05
5.2695e-05
5.29419e-05
5.33087e-05
4.74089e-05
5.23733e-05
4.97554e-05
5.3184e-05
4.18927e-05
4.16676e-05
4.78403e-05
5.40169e-05
4.29024e-05
5.32615e-05
4.22611e-05
4.86961e-05
4.98074e-05
5.44621e-05
4.87028e-05
5.3423e-05
5.34994e-05
5.31138e-05
5.07871e-05
5.254e-05
5.01069e-05
4.72809e-05
3.9547e-05
5.47992e-05
3.72357e-05
4.05283e-05
4.28822e-05
4.01678e-05
4.03298e-05
4.83543e-05
5.03965e-05
4.26002e-05
4.70669e-05
3.7764e-05
4.31732e-05
4.81604e-05
5.38618e-05
4.05854e-05
4.15224e-05
5.29221e-05
4.06388e-05
4.88345e-05
5.23947e-05
5.11332e-05
4.95505e-05
4.24424e-05
4.06425e-05
4.76453e-05
5.46248e-05
4.46268e-05
4.18674e-05
5.0819e-05
4.7062e-05
5.06799e-05
4.93476e-05
4.24448e-05
5.41908e-05
3.97118e-05
4.11323e-05
4.8431e-05
5.36539e-05
4.69667e-05
4.85637e-05
4.88926e-05
5.01315e-05
3.91417e-05
4.35873e-05
4.82731e-05
5.45291e-05
5.21439e-05
4.07272e-05
3.84246e-05
4.8736e-05
5.49433e-05
4.9106e-05
4.94512e-05
4.68082e-05
4.83834e-05
4.93826e-05
4.18033e-05
5.41202e-05
4.65674e-05
4.1794e-05
3.81685e-05
5.25663e-05
4.9788e-05
5.44475e-05
5.07344e-05
5.30351e-05
4.17171e-05
4.84345e-05
3.95115e-05
3.77539e-05
5.30661e-05
4.28289e-05
4.84433e-05
4.98532e-05
5.1468e-05
4.18846e-05
5.43835e-05
5.3062e-05
5.43528e-05
5.1206e-05
3.57164e-05
4.96687e-05
3.98718e-05
5.45515e-05
4.22957e-05
5.41151e-05
3.80403e-05
5.10389e-05
5.19822e-05
4.67706e-05
4.76339e-05
3.88135e-05
4.58413e-05
4.96619e-05
5.31241e-05
5.16839e-05
5.40124e-05
5.39299e-05
4.16451e-05
5.42602e-05
4.73484e-05
5.07238e-05
5.12078e-05
5.33227e-05
5.28606e-05
4.96722e-05
5.46272e-05
4.84322e-05
4.64303e-05
4.63898e-05
5.07195e-05
5.3835e-05
4.59084e-05
4.37046e-05
5.38163e-05
5.16708e-05
4.92046e-05
5.58507e-05
5.11721e-05
5.0851e-05
5.23905e-05
5.3568e-05
5.3772e-05
4.92767e-05
4.78856e-05
5.33561e-05
5.23987e-05
4.40259e-05
4.9267e-05
4.55696e-05
5.44517e-05
5.07091e-05
5.34798e-05
4.22446e-05
4.23791e-05
5.00232e-05
5.27404e-05
5.31356e-05
5.44725e-05
5.34015e-05
5.02983e-05
5.19695e-05
4.27804e-05
4.9806e-05
4.9663e-05
5.3846e-05
5.39114e-05
5.39788e-05
4.89026e-05
5.43678e-05
4.36483e-05
5.41712e-05
4.57115e-05
4.86895e-05
4.7853e-05
4.99999e-05
4.84205e-05
5.25336e-05
4.14096e-05
5.34098e-05
5.32245e-05
4.8838e-05
4.25192e-05
5.47734e-05
5.21343e-05
5.36866e-05
4.92246e-05
4.99547e-05
5.25928e-05
4.13462e-05
5.41039e-05
4.87786e-05
5.0333e-05
4.53887e-05
4.59489e-05
4.51962e-05
4.10767e-05
4.70649e-05
5.50568e-05
5.03725e-05
3.99704e-05
5.10862e-05
4.07843e-05
5.07132e-05
5.08525e-05
3.94865e-05
4.0844e-05
4.62075e-05
5.03716e-05
5.26597e-05
4.73322e-05
5.25464e-05
4.89306e-05
4.54533e-05
4.65676e-05
5.42229e-05
5.40315e-05
5.37523e-05
5.23069e-05
5.13266e-05
4.16766e-05
4.25691e-05
5.44755e-05
4.80006e-05
5.02018e-05
5.29455e-05
5.53599e-05
5.01463e-05
5.15379e-05
3.93758e-05
5.28378e-05
5.34869e-05
4.71064e-05
5.43271e-05
5.37758e-05
5.10555e-05
4.73236e-05
5.21667e-05
4.75452e-05
3.95801e-05
5.01319e-05
4.27087e-05
4.1021e-05
5.03957e-05
4.9804e-05
5.29872e-05
5.28961e-05
5.05997e-05
5.40082e-05
3.80664e-05
4.72376e-05
5.45322e-05
5.4412e-05
4.01914e-05
4.99462e-05
4.37745e-05
4.72955e-05
5.40457e-05
4.67367e-05
5.15175e-05
5.52728e-05
5.19971e-05
3.93867e-05
5.30039e-05
4.172e-05
5.36894e-05
5.23171e-05
5.09877e-05
5.36555e-05
5.05581e-05
5.36579e-05
4.19295e-05
5.39177e-05
5.41775e-05
4.3276e-05
5.12819e-05
4.95669e-05
4.80699e-05
5.29146e-05
4.86516e-05
5.3142e-05
5.43958e-05
5.45548e-05
4.95044e-05
5.4088e-05
4.97173e-05
5.22639e-05
4.42034e-05
4.69345e-05
4.10876e-05
4.04332e-05
5.08782e-05
5.16122e-05
4.94652e-05
5.42877e-05
4.83567e-05
5.43439e-05
4.00738e-05
5.48284e-05
5.46986e-05
5.17657e-05
5.43113e-05
4.39994e-05
3.96216e-05
4.91423e-05
4.09127e-05
5.33273e-05
4.9953e-05
3.95229e-05
4.84699e-05
5.47439e-05
5.19075e-05
4.09598e-05
4.52071e-05
3.91775e-05
5.51366e-05
4.10355e-05
5.30248e-05
4.62161e-05
4.18893e-05
5.39115e-05
5.42614e-05
5.40015e-05
5.24706e-05
4.19471e-05
5.14348e-05
5.44733e-05
4.3426e-05
5.38886e-05
5.15892e-05
5.43135e-05
3.98119e-05
5.2506e-05
4.73846e-05
5.16859e-05
4.72987e-05
4.87227e-05
4.76314e-05
4.70759e-05
4.77257e-05
4.83723e-05
5.22083e-05
4.9132e-05
5.46354e-05
4.35893e-05
4.90701e-05
5.00958e-05
5.26059e-05
5.4386e-05
4.13538e-05
5.28764e-05
4.28097e-05
4.86762e-05
5.40989e-05
5.41653e-05
4.85211e-05
5.11578e-05
5.21768e-05
4.74494e-05
4.95756e-05
4.86967e-05
4.13102e-05
4.10185e-05
5.11034e-05
5.30313e-05
4.94906e-05
4.76254e-05
5.30972e-05
4.24374e-05
5.075e-05
4.23018e-05
5.1877e-05
5.43192e-05
4.98991e-05
4.1183e-05
5.31592e-05
4.10546e-05
5.11669e-05
5.3949e-05
3.99068e-05
5.50237e-05
4.33593e-05
4.72166e-05
4.8343e-05
4.12593e-05
4.65283e-05
4.75447e-05
3.88013e-05
5.36158e-05
5.43728e-05
3.74284e-05
4.68408e-05
5.2105e-05
5.03348e-05
5.0953e-05
5.50458e-05
5.34604e-05
4.87827e-05
4.56269e-05
4.02279e-05
3.88652e-05
4.46819e-05
5.48317e-05
5.30067e-05
5.20201e-05
5.19713e-05
4.16915e-05
4.16524e-05
4.89925e-05
5.34162e-05
3.93587e-05
5.15493e-05
4.95651e-05
4.84853e-05
5.20701e-05
4.71288e-05
5.28158e-05
4.55465e-05
4.94027e-05
5.49268e-05
3.66175e-05
5.05447e-05
5.35337e-05
5.32991e-05
5.19645e-05
5.3014e-05
5.04943e-05
4.13747e-05
5.50231e-05
5.59387e-05
4.97187e-05
5.00329e-05
4.70066e-05
4.93823e-05
5.19012e-05
5.24894e-05
5.00082e-05
4.886e-05
4.84711e-05
4.03998e-05
4.76586e-05
5.44727e-05
5.18052e-05
5.56712e-05
5.02634e-05
4.91658e-05
5.46926e-05
4.1996e-05
5.27759e-05
4.14686e-05
5.44226e-05
5.19109e-05
4.75246e-05
5.5514e-05
4.70197e-05
4.91983e-05
5.47608e-05
4.8143e-05
5.45932e-05
5.28637e-05
5.2642e-05
4.14041e-05
4.9684e-05
4.91392e-05
4.45753e-05
5.29952e-05
4.79797e-05
4.82016e-05
5.46832e-05
4.18426e-05
5.40037e-05
4.98267e-05
5.38922e-05
4.74981e-05
5.07737e-05
4.16677e-05
4.30295e-05
5.55285e-05
4.21131e-05
4.95334e-05
5.28218e-05
4.13013e-05
4.88515e-05
5.31881e-05
4.66961e-05
4.26976e-05
4.57418e-05
4.81285e-05
4.78868e-05
5.3074e-05
4.86778e-05
5.38193e-05
5.08895e-05
5.33743e-05
3.93429e-05
4.49773e-05
5.44559e-05
4.8908e-05
4.08836e-05
4.30503e-05
4.97925e-05
4.26986e-05
4.13339e-05
4.97344e-05
4.88766e-05
5.47401e-05
4.77543e-05
5.31178e-05
5.35181e-05
5.32941e-05
5.31883e-05
5.32016e-05
4.76194e-05
4.6517e-05
5.29609e-05
4.88427e-05
4.75198e-05
5.41947e-05
4.93765e-05
4.04128e-05
4.05744e-05
4.87384e-05
4.29718e-05
5.19012e-05
5.28373e-05
4.74813e-05
5.3297e-05
5.29218e-05
5.2631e-05
5.56607e-05
4.912e-05
4.16895e-05
4.75626e-05
4.7898e-05
5.30477e-05
4.76631e-05
5.19629e-05
5.42095e-05
4.8598e-05
4.7153e-05
5.02098e-05
5.41073e-05
5.21493e-05
5.65766e-05
5.30936e-05
4.87224e-05
4.97055e-05
4.35077e-05
4.74196e-05
5.41688e-05
4.42214e-05
5.45007e-05
4.73553e-05
5.30063e-05
4.10684e-05
5.21711e-05
4.96943e-05
5.30281e-05
4.91091e-05
5.14887e-05
4.92808e-05
5.32062e-05
4.00746e-05
4.33146e-05
4.97613e-05
4.70359e-05
5.06417e-05
4.98128e-05
4.99826e-05
5.4094e-05
5.08045e-05
4.02318e-05
4.59181e-05
4.136e-05
5.05773e-05
4.95009e-05
4.23174e-05
5.58188e-05
4.9716e-05
4.88732e-05
5.2691e-05
4.51418e-05
4.27127e-05
5.43941e-05
4.25917e-05
4.07159e-05
4.80307e-05
4.71855e-05
4.31131e-05
4.59529e-05
5.42003e-05
5.31475e-05
4.74502e-05
5.04566e-05
5.28192e-05
4.95667e-05
5.2597e-05
4.02945e-05
5.36016e-05
3.42773e-05
5.30392e-05
4.18225e-05
4.12801e-05
5.34646e-05
4.07363e-05
4.89609e-05
5.10606e-05
5.31245e-05
4.6905e-05
5.12824e-05
4.77099e-05
4.91671e-05
4.70853e-05
5.20848e-05
5.06826e-05
5.33956e-05
4.96805e-05
4.22029e-05
5.21451e-05
4.90463e-05
4.86693e-05
4.89248e-05
4.37784e-05
4.59309e-05
3.99067e-05
4.10896e-05
4.96401e-05
4.83072e-05
4.33171e-05
4.70437e-05
5.32648e-05
5.41283e-05
5.4059e-05
3.32166e-05
4.02975e-05
5.39806e-05
4.12059e-05
5.24847e-05
4.05975e-05
5.36723e-05
5.3305e-05
5.32152e-05
4.20839e-05
4.85245e-05
5.44717e-05
5.43117e-05
5.09155e-05
5.41764e-05
4.92902e-05
5.06654e-05
4.91054e-05
4.14818e-05
5.08325e-05
4.6347e-05
4.9678e-05
4.94082e-05
4.4318e-05
4.86783e-05
5.39981e-05
4.58831e-05
4.60689e-05
4.121e-05
5.24734e-05
5.24565e-05
3.89663e-05
4.93052e-05
4.94659e-05
5.14954e-05
4.20385e-05
4.99929e-05
4.94116e-05
5.51407e-05
4.00583e-05
4.9163e-05
4.88656e-05
3.94366e-05
5.3315e-05
4.24728e-05
4.31317e-05
5.11503e-05
5.41882e-05
3.98129e-05
5.33918e-05
5.10707e-05
4.93124e-05
3.9994e-05
5.42587e-05
5.42651e-05
3.95387e-05
4.96721e-05
3.89554e-05
4.25149e-05
5.41779e-05
4.75438e-05
5.07068e-05
5.33341e-05
5.43219e-05
4.80634e-05
4.68689e-05
4.88056e-05
4.8404e-05
5.05032e-05
4.69687e-05
5.37688e-05
4.19883e-05
4.70447e-05
4.94596e-05
4.81228e-05
5.20441e-05
4.87022e-05
5.16045e-05
5.21519e-05
4.96733e-05
5.43548e-05
5.20316e-05
4.80087e-05
4.58701e-05
5.24129e-05
4.82098e-05
4.70488e-05
5.17359e-05
5.4517e-05
5.22242e-05
5.25595e-05
4.64979e-05
5.20729e-05
4.62284e-05
4.15809e-05
4.91783e-05
5.12062e-05
4.15826e-05
5.14116e-05
4.85785e-05
3.7718e-05
4.11414e-05
5.24616e-05
4.01486e-05
4.83647e-05
5.27013e-05
5.11011e-05
4.15308e-05
5.11896e-05
5.52955e-05
4.24425e-05
4.15112e-05
4.20764e-05
5.36407e-05
4.93856e-05
4.8728e-05
5.3731e-05
4.09795e-05
5.1908e-05
4.9703e-05
5.43791e-05
5.48603e-05
3.59691e-05
4.98213e-05
5.19248e-05
5.29219e-05
5.01977e-05
4.86344e-05
4.23496e-05
5.09024e-05
5.4516e-05
4.60868e-05
3.97806e-05
4.78258e-05
5.33943e-05
5.15239e-05
4.09948e-05
4.85986e-05
5.26687e-05
5.3627e-05
4.88862e-05
4.85547e-05
3.90859e-05
4.19165e-05
4.16216e-05
4.97752e-05
4.82062e-05
5.0697e-05
5.45998e-05
5.36681e-05
4.42826e-05
5.32478e-05
5.36854e-05
5.1328e-05
4.71222e-05
5.31631e-05
4.79683e-05
4.28108e-05
4.70172e-05
5.00423e-05
5.02967e-05
4.53181e-05
5.15298e-05
4.77321e-05
5.34216e-05
4.26834e-05
3.97273e-05
4.79715e-05
5.4255e-05
5.26897e-05
4.71816e-05
4.80869e-05
5.29334e-05
5.36154e-05
4.73158e-05
4.78546e-05
5.33577e-05
5.47644e-05
5.20835e-05
5.43933e-05
5.254e-05
5.19602e-05
4.0233e-05
4.81484e-05
4.16567e-05
5.1889e-05
5.33936e-05
4.68669e-05
4.14046e-05
5.46015e-05
4.10766e-05
4.61348e-05
4.32568e-05
4.92066e-05
4.03383e-05
5.13819e-05
4.92431e-05
4.90361e-05
4.99437e-05
4.38813e-05
5.39635e-05
4.23804e-05
5.17154e-05
4.96901e-05
4.86286e-05
4.11457e-05
5.29922e-05
5.14481e-05
4.28845e-05
4.46969e-05
4.83363e-05
4.76571e-05
5.03397e-05
4.03827e-05
5.08049e-05
4.77718e-05
4.99649e-05
4.6276e-05
4.59068e-05
4.57581e-05
4.07851e-05
5.33393e-05
4.96049e-05
2.15286e-05
4.25066e-05
4.98806e-05
5.38046e-05
5.26754e-05
4.32339e-05
4.24569e-05
5.3646e-05
4.16673e-05
5.27223e-05
5.41512e-05
5.08179e-05
4.27149e-05
5.34744e-05
4.08456e-05
3.91789e-05
3.92999e-05
5.17467e-05
4.8773e-05
4.70761e-05
5.44771e-05
5.2006e-05
5.04472e-05
4.30989e-05
3.80225e-05
5.48475e-05
4.98055e-05
5.51641e-05
5.32117e-05
4.16548e-05
4.86819e-05
4.90562e-05
4.72216e-05
4.92359e-05
4.65086e-05
4.80503e-05
5.69369e-05
5.02775e-05
4.7273e-05
4.1714e-05
5.09675e-05
4.87672e-05
5.20402e-05
4.75838e-05
4.12042e-05
4.24765e-05
5.13633e-05
5.16149e-05
4.63229e-05
5.25787e-05
4.58348e-05
5.16728e-05