/*--------------------------------*- C++ -*----------------------------------*\
| =========                 |                                                 |
| \\      /  F ield         | OpenFOAM: The Open Source CFD Toolbox           |
|  \\    /   O peration     | Version:  2212                                  |
|   \\  /    A nd           | Website:  www.openfoam.com                      |
|    \\/     M anipulation  |                                                 |
\*---------------------------------------------------------------------------*/
FoamFile
{
    version     2.0;
    format      ascii;
    arch        "LSB;label=32;scalar=64";
    class       volScalarField;
    location    "0.034";
    object      p;
}
// * * * * * * * * * * * * * * * * * * * * * * * * * * * * * * * * * * * * * //

dimensions      [0 2 -2 0 0 0 0];

internalField   nonuniform List<scalar> 
31639
(
0.0134921
0.00940214
0.0154411
0.00689193
0.00948504
0.0132395
0.0148115
0.0141149
0.0100387
0.00856656
0.0147156
0.00956729
0.00994049
0.0129236
0.0112548
0.0157851
0.0182981
0.018721
0.00307531
0.0143585
0.0104398
0.00807564
0.0110007
0.00680567
0.0118013
0.0139715
0.0135878
0.0428845
0.0141937
0.014158
0.00761053
0.0202125
0.0100838
0.00546997
0.0245786
0.0141038
0.00811587
0.0147118
0.0146992
0.0120335
0.00962794
0.0137709
0.0107742
0.0149596
0.0154066
0.00644071
0.0096446
0.00762897
0.0165063
0.00693458
0.00640104
0.00514403
0.0250042
0.0152736
0.00500609
0.0186998
0.00822015
0.0136666
0.00941366
0.00656329
0.00721318
0.013804
0.0114416
0.014072
0.0248142
0.00405678
0.00249305
0.00787955
0.00974513
0.00610204
0.00868637
0.0184286
0.0084739
0.00365054
0.0251361
0.0200022
0.00869446
0.00805788
0.009332
0.00883286
0.0134449
0.0128954
0.0127067
0.00708756
0.0125659
0.0116619
0.0108072
0.00762083
0.00245912
0.0101621
0.00576999
0.0183392
0.00675641
0.00898602
0.00430682
0.0135826
0.00733688
0.00518839
0.00984016
0.0130462
0.0232127
0.0232028
0.0118317
0.00900176
0.00499975
0.00625163
0.0132158
0.00663577
0.00767453
0.0119446
0.0147646
0.0128893
0.0137696
0.00811154
0.0036169
0.0143832
0.0246601
0.015236
0.0233265
0.00724788
0.020406
0.00628201
0.00326205
0.00691686
0.0131623
0.0129179
0.00931968
0.00701709
0.00855976
0.0103673
0.024422
0.00108196
0.0156126
0.0036771
0.00440592
0.00785087
0.00821127
0.00899112
0.0064486
0.00719838
0.0071394
0.0105984
0.0115497
0.00661477
0.00965812
0.0125726
0.0234877
0.00818994
0.0121436
0.0250819
0.00735043
0.0168693
0.00527079
0.00473848
0.00615111
0.00471031
0.00346459
0.00864069
0.0164436
0.00779452
0.00429664
0.0184802
0.00827809
0.0137411
0.019627
0.0196983
0.0153105
0.0171798
0.00540602
0.00376329
0.0175653
0.0129242
0.0175063
0.010041
0.0124774
0.00840835
0.011296
0.0203313
0.00787743
0.0118873
0.00986229
0.0162363
0.0138158
0.0143817
0.0144382
0.0140993
0.0169322
0.0118858
0.0129415
0.0160257
0.0163178
0.00853163
0.0165734
0.00506014
0.0057556
0.00599138
0.00577307
0.00915981
0.00589728
0.0145822
0.0122519
0.018548
0.016258
0.0172304
0.00838538
0.00700437
0.00292885
0.00496238
0.0207142
0.00566022
0.00564399
0.0120347
0.0233507
0.0124784
0.0150222
0.0125816
0.0126245
0.0125771
0.0176122
0.00943545
0.00976324
0.0120119
0.0127094
0.0176254
0.0153308
0.00876158
0.0158316
0.0154778
0.0109699
0.0201013
0.00530329
0.0145612
0.0184867
0.0160161
0.0164619
0.00281301
0.00259747
0.0167652
0.0138006
0.0049918
0.00709653
0.0151062
0.0175526
0.0165136
0.00729792
0.0189317
0.00559448
0.0195774
0.0159867
0.00284118
0.000821719
0.00644929
0.0163843
0.0188045
0.00913007
0.00977374
0.0136688
0.00422162
0.0135077
0.0156208
0.00653723
0.00525622
0.00914789
0.0129308
0.00926007
0.0125338
0.00207511
0.0237753
0.0148967
0.0133233
0.0304488
0.00621496
0.0135875
0.0168344
0.0081066
0.0158677
0.00578068
0.0176827
0.00786116
0.00645323
0.0198089
0.0203663
0.0202347
0.0268746
0.014506
0.0145463
0.0177102
0.0168991
0.00322103
0.0163062
0.0181623
0.0014639
0.00524378
0.00527087
0.0153634
0.00454022
0.0183854
0.00245236
0.0072245
0.00833262
0.00775447
0.0176348
0.00560088
0.00503378
0.0112237
0.00451155
0.0128011
0.00298058
0.0108297
0.0177298
0.0074947
0.0296801
0.0237558
0.0105322
0.00968382
0.0136226
0.00261272
0.0204888
0.0158937
0.015619
0.0150014
0.00627678
0.0229287
0.00465071
0.0123468
0.0167585
0.0150507
0.0169266
0.00545105
0.00630571
0.00653865
0.00688623
0.0179489
0.0051547
0.018535
0.0246848
0.0252767
0.00782795
0.0171661
0.0193621
0.00439613
0.00215983
0.0188507
0.00395585
0.00564797
0.0174809
0.00477516
0.0154356
0.0152631
0.0229879
0.00862283
0.0176502
0.00861531
0.0163182
0.00499505
0.00656486
0.00558996
0.0112678
0.0114448
0.0169243
0.0185551
0.0113956
0.0295811
0.0032226
0.00790509
0.00713515
0.00382366
0.0113802
0.0121895
0.0169358
0.0110557
0.0207153
0.0129634
0.00609542
0.00410751
0.00685588
0.023811
0.0199
0.0166272
0.0208131
0.0157449
0.00514674
0.00770033
0.00513315
0.00473176
0.00449114
0.00552511
0.00951585
0.000500061
0.0189828
0.00281393
0.0210458
0.00559408
0.0175869
0.00487247
0.0180146
0.0191093
0.0144008
0.00689898
0.0279111
0.0187264
0.0147078
0.01408
0.00470136
0.0165819
0.00256614
0.00731609
0.00739711
0.00767718
0.0144493
0.00633642
0.00743347
0.0164806
0.0306019
0.0151304
0.0166344
0.0121731
0.0130047
0.0116485
0.00969171
0.00935
0.0229579
0.0111093
0.000994552
0.0165383
0.0301879
0.0107229
0.0224563
0.0129575
0.0154495
0.00676487
0.00559968
0.0176218
0.0063912
0.0140524
0.0140682
0.0171453
0.00420159
0.00517932
0.0183294
0.00776803
0.0027378
0.00329454
0.0126696
0.00439662
0.00787826
0.00829971
0.0192222
0.0188017
0.0203233
0.0191521
0.0166909
0.00812358
0.0170997
0.00770232
0.0182198
0.0204633
0.00633343
0.0167433
0.00703986
0.0137661
0.0196792
0.0130246
0.00352755
0.0161191
0.0448177
0.00349205
0.0105139
0.00713305
0.0156527
0.00203042
0.00542513
0.00648398
0.00539818
0.0170902
0.00138957
0.0108401
0.0220924
0.00974366
0.0113019
0.00655554
0.0240431
0.0042181
0.00892707
0.0229718
0.0295492
0.0107142
0.0153431
0.0124895
0.00833344
0.00645135
0.00493508
0.0201681
0.0023363
0.0132905
0.0127834
0.0121016
0.0036467
0.00552629
0.0193832
0.0218851
0.00280347
0.00319869
0.00359342
0.002108
0.0258221
0.00741153
0.00307468
0.0206221
0.0229574
0.0205059
0.00432852
0.01849
0.0171856
0.0195327
0.00222151
0.022956
0.0230125
-0.000353828
0.0199263
0.0192442
0.0200362
0.0127403
0.0213784
0.000942847
0.00349501
0.019484
0.00289735
0.00352204
0.00596746
0.0144963
0.00979069
0.017959
0.00120724
0.00639326
0.0102808
0.0215766
0.00139591
0.0171045
0.00264378
0.0298921
0.0302187
0.0071247
0.0431737
0.00732508
0.00729368
0.0118702
0.0122002
0.00844705
0.0115901
0.0310734
0.008514
0.0167749
0.000706378
0.00760386
0.0117874
0.00667229
0.0191835
0.00148268
0.00458943
0.0115467
0.00413848
0.0104546
0.0106651
0.00575914
0.0242244
0.00419554
0.00297082
0.000461295
0.0134589
0.0220499
0.00332111
0.000698773
0.00406834
0.00450492
0.00351805
0.0204969
-2.50763e-05
0.00138666
0.000956449
0.0184151
0.00231278
0.0192895
0.0197272
0.0205701
0.00602854
7.79532e-05
0.000306102
0.00313352
0.00091893
0.012639
0.00109897
0.012623
0.0200162
0.00169884
0.00734503
0.00985583
0.0240882
0.0222472
0.0174491
0.00834311
0.00401574
0.0231354
0.0198965
0.00186917
0.00205289
0.00858296
0.0145227
0.00597903
0.00129937
0.000116782
0.00101374
0.0192134
0.016081
0.00736783
0.0442086
0.0158137
0.0122988
0.00851701
0.0132896
0.0170697
0.016932
0.0118418
0.0075625
0.00948319
0.00981605
0.0160812
0.00370324
0.0115367
0.00136992
0.0125679
0.0293028
0.0203738
0.0188113
0.0139725
0.0110393
0.0266455
0.0124026
0.0148713
0.00658622
0.0236423
0.0222974
0.00326424
0.0122118
0.0138666
0.000264834
0.0270953
0.00746588
0.00127211
0.00364266
0.00207429
0.0240683
0.0219751
0.0224301
0.00338302
0.000133592
0.0190157
0.0127956
0.0200602
0.0206937
0.0207184
0.00135432
6.35307e-05
0.0196691
0.0171296
0.0176994
0.0207436
0.00116593
0.00741245
0.0304193
0.004298
0.00242812
0.0213044
0.0120609
0.00509862
0.0194093
0.0191141
0.0155476
0.00899764
0.00597853
0.0141365
0.0081366
0.000433547
0.000782384
0.00159251
0.00599956
0.00228181
0.0241048
0.0085734
0.000657773
0.00074173
0.0184491
0.00651976
0.000804986
0.0446167
0.00605282
0.00722482
0.00971454
0.0109729
0.00930049
0.0118832
0.0112357
0.00754063
0.00866552
0.0125051
0.00796409
0.00744193
0.00844345
0.0111452
0.0212434
0.0120373
0.0113733
0.0186496
0.0241287
0.0203129
0.00568717
0.011193
0.00322989
0.0126661
0.0249474
0.000967599
0.00232061
0.00209172
0.00645686
0.00748033
0.0185148
0.0177049
0.0052707
0.00217034
0.014448
0.0239945
0.000606405
0.0197243
0.00784435
0.0181886
0.0167107
0.0175942
0.0226801
0.0211282
0.0272554
0.0193255
0.0161782
0.020137
0.0181624
0.0187779
0.00675813
0.0236584
0.00664786
0.00175132
0.00442934
0.0183708
0.000104264
0.0152183
0.00359818
0.00501924
0.0152616
0.00916785
0.0228239
0.00425469
0.0159717
0.0051719
0.0262764
0.00757103
0.000738998
0.00110699
0.0214439
0.0143296
0.000976551
0.00236419
0.00137561
0.00456917
0.000630638
0.000312454
0.0180502
0.017479
0.0002224
0.0175372
0.0155189
0.0187646
0.0102798
0.0101815
0.00823231
0.0131933
0.0138134
0.00643729
0.00104302
0.0120932
0.0165551
0.0122312
0.0226905
0.0203059
0.0121293
0.0197192
0.0075031
0.030487
0.00357053
0.0198914
0.0119002
0.000113268
0.0135395
0.00346846
0.0072233
0.00300631
0.00302916
0.015224
0.0215938
0.005302
0.0191028
0.000898772
0.000932628
0.000933371
0.0251555
0.0253067
0.0240622
0.0258976
0.0213533
0.0197251
0.00662756
0.00428862
0.00731922
0.00193352
0.0140842
0.0063122
0.0165906
0.00918155
0.00734783
0.00229478
-0.000116206
0.00536576
0.002867
0.0224499
0.00976578
0.00527449
0.00506312
0.00937985
0.00093884
0.0157706
0.00512028
0.019739
0.00380256
0.00258541
0.0129781
0.0129175
0.0200808
0.023901
0.0209436
0.0159497
0.00897883
0.00974638
0.0189811
0.000155821
0.001042
0.0186696
0.0190801
-0.000112425
0.000433824
0.00270637
0.0188133
0.00495975
0.0114362
0.02427
0.0236697
0.0120627
0.0283601
0.00911993
0.00789052
0.00813114
0.00526396
0.00326993
0.0198193
0.00335941
0.0121098
0.0146656
0.0223633
0.0070551
0.00813594
0.00775417
0.0180034
0.0182396
0.0182828
0.0259598
0.00242314
0.0210532
0.02076
0.021186
0.0114973
0.00042906
0.0248919
0.0256664
0.0236407
0.0139438
0.0147443
0.0161059
0.0150159
0.0178962
0.0137657
0.000561197
0.0188328
0.00876518
0.00600502
0.0191579
0.00145792
0.00086192
0.00334513
0.00313212
0.0229511
0.00922548
0.00339315
0.00471205
0.00832494
0.0169817
0.00796984
0.00731638
0.015326
0.0107291
0.000320876
0.0197564
0.0125137
0.0207554
0.0104715
0.00217797
0.0160901
0.0159797
0.00078881
0.00922826
0.00859919
0.000653481
0.000790895
0.0195798
0.0224925
0.00906882
0.0117096
0.00136131
0.0208238
0.0259415
0.0217323
0.0149961
0.00701534
0.0203195
0.0153619
0.00813188
0.0113044
0.00628682
0.0063886
0.0101382
0.0192716
0.00349067
0.012598
0.00796753
0.00718933
0.000238475
0.0215348
0.00845403
0.0222369
0.00613259
0.0182045
0.0210266
0.0104519
0.0105065
0.0219351
0.0177647
0.0199615
0.00773409
0.00897531
0.0176579
0.0168593
0.0133698
0.0141609
0.0205639
0.021042
0.0276927
0.0162853
0.0183813
0.00118147
0.000785621
0.0188389
0.0171966
0.00883474
0.0204267
0.00294244
0.0144058
0.0160378
0.0201227
0.00248863
0.0206431
0.0187638
0.0223788
0.0212584
0.0222307
0.0104921
0.0191078
0.00848332
0.0146826
0.0142526
0.0135444
0.0231127
0.0214123
0.0207327
0.0175258
0.00950792
0.0123938
0.0136622
0.0210504
0.0135063
6.30218e-05
0.0219363
0.024149
0.0113952
0.00962903
0.00403899
0.00290337
0.00802027
0.0212585
0.00666433
0.00713568
0.0261806
0.0106797
0.00398034
0.00547325
0.000481438
0.010189
0.0115443
0.0104965
0.0196056
0.00071991
0.0227005
0.00201571
0.0220608
0.0213216
0.0260352
0.0100394
0.0103145
0.00880149
0.0165105
0.0146757
0.0172118
0.0265119
0.0192931
0.0204434
0.0135162
0.0164582
0.00975092
0.0172997
0.0150043
0.00328275
0.00296686
0.0121013
0.000982088
0.00862383
0.0228604
0.0240891
0.00439586
0.0221273
0.0143933
0.0232569
0.0127429
0.0131024
0.00176959
0.000970842
0.0169175
0.0152824
0.00737853
0.00970985
0.00916902
0.0141836
0.00981438
0.0191886
0.0205789
0.0263605
0.0202711
0.0218884
0.0132581
0.00933654
0.0109129
0.000978734
0.00186683
0.00359032
0.00961365
0.0086731
0.0152152
0.00896071
0.0160352
0.0181631
0.0201227
0.00928314
0.00578622
0.0269652
0.0141125
0.0241085
0.0238053
0.0106071
0.0243161
0.00247725
0.0204728
0.00613748
0.0115694
0.00461256
0.00897209
0.01003
0.0230535
0.0234439
0.000732979
0.0210995
0.0251627
0.0287833
0.0093715
0.0177319
0.0203627
0.0206785
0.00834043
0.0089936
0.0191839
0.0290452
0.0190989
0.00353935
0.0168874
0.0283968
0.0164336
0.0162423
0.0157212
0.00781622
0.0238078
0.0205703
0.0240095
0.00210642
0.0171328
0.00142344
0.0141876
0.020136
0.0043116
0.0202541
0.00622763
0.019273
0.0262283
0.0113418
0.000579321
0.0128154
0.0137395
0.000788698
0.00849794
0.0086253
0.0135608
0.00990551
0.0276459
0.0221003
0.00869906
0.00859461
0.0213995
0.0120318
0.0203458
0.0268185
0.0207234
0.000740299
0.000708998
0.0219246
0.0190376
0.0133478
0.0148424
0.0170338
0.0141014
0.01465
0.0239763
0.0210206
0.0252448
0.0189467
0.0166024
0.00236776
0.0243062
0.00320421
0.00919669
0.022706
0.0243068
0.0196304
0.0102708
0.00918227
0.000507533
0.0212658
0.0131599
0.022523
0.0123815
0.0238388
0.0252653
0.0159425
0.0170252
0.0101771
0.00497348
0.0275597
0.0131418
0.0168791
0.0131082
0.0121024
0.0175469
0.0279031
0.0161356
0.0151595
0.0299754
0.00261739
0.0235635
0.0145458
0.0290248
0.0150466
0.0121084
0.0233889
0.0239579
0.0043198
0.00897378
0.00499738
0.00614993
0.0207069
0.0109903
0.0119344
0.000502464
0.00955248
0.0347033
0.009799
0.0102566
0.0141479
0.0146001
0.0138
0.0218087
0.0223594
0.0161905
0.0086713
0.0221341
0.0124289
0.0229373
0.0205276
0.0207056
0.0228436
0.0233467
0.0214315
0.00819034
0.000679383
0.0245176
0.00742243
0.0257823
0.0287438
0.0269236
0.00981761
0.0246049
0.0165135
0.00262796
0.00215958
0.00360637
0.0219632
0.0227743
0.0226262
0.020992
0.0250857
0.0102485
0.00850091
0.0230242
0.0255371
0.0121677
0.0226729
0.0243568
0.0161542
0.00937018
0.0276966
0.0247254
0.0212815
0.0172397
0.0220528
0.0180572
0.0237631
0.00199627
0.0179397
0.0212864
0.0243573
0.0173911
0.0231337
0.0115937
0.0291618
0.0182014
0.00243419
0.0220682
0.0052999
0.000155784
0.00500619
0.0173837
0.0148012
0.0171916
0.022089
0.0239911
0.0090888
0.0189776
0.0108376
0.0147595
0.0139649
0.013775
0.00847749
0.0225713
0.0151366
0.0156996
0.0223567
0.0156962
0.00782246
0.00751357
0.0157663
0.0165503
0.015066
0.0210104
0.021495
0.00125277
0.0148584
0.0223806
0.0213549
0.0154352
0.015778
0.0129862
0.0161243
0.0281957
0.00140462
0.00774192
0.0234949
0.00363592
0.0103632
0.0112113
0.010694
0.0261585
0.027735
0.00347654
0.0283637
0.0252316
0.0180912
0.0180465
0.0256468
0.0186974
0.0237017
0.0222605
0.00446298
0.00989861
0.0269795
0.000500137
0.000787076
0.0257867
0.0240508
0.00418979
0.0255099
0.0187509
0.0164351
0.0106728
0.0242125
0.0236321
0.00858516
0.022386
0.0208072
0.0182995
0.0163466
0.00101281
0.00174191
0.0012341
0.0188375
0.021619
0.0139225
0.0245988
0.0272659
0.0134576
0.0119469
0.00838084
0.00501911
0.0298383
0.0001367
0.00343409
0.0107439
0.00131921
0.000297264
0.000558982
0.0114674
0.00840443
0.001045
0.0370555
0.0234453
0.01773
0.0274425
0.0153145
0.029455
0.00480574
0.00947637
0.00990337
0.028342
0.0284375
0.015375
0.00805058
0.0161345
0.0145615
0.0190382
0.0176669
0.0183939
0.0215435
0.00160723
0.0229865
0.0232227
0.0234035
0.0227362
0.0190844
0.0188184
0.014496
0.0133407
0.024454
0.0212167
0.00685343
0.00535152
0.0143835
0.0206032
0.0274935
0.00667125
0.0077244
0.00801349
0.0205103
0.0259571
0.0273079
0.0268063
0.00218062
0.0013076
0.0255012
0.000822996
0.0250776
0.0261006
0.00528822
0.00733593
0.00329939
0.0243965
0.00927089
0.0214352
0.0168212
0.0169157
0.0263234
0.0268314
0.0120752
0.0294717
0.0291862
0.0198701
0.0182493
9.86482e-05
0.000730047
0.0202902
0.0183629
0.0221883
0.0288241
0.0438716
0.0293845
0.0231515
0.0293936
0.0233082
0.00290039
0.0214863
0.0247829
0.00335541
0.0232682
0.00568512
0.000641126
0.0227859
0.00081139
0.0106239
0.0115379
0.0114181
0.0105206
0.000508119
0.00225408
0.00725414
0.0279213
0.0260192
0.0188604
0.011214
0.0141832
0.00896711
0.0112681
0.00832667
0.0108995
0.0106898
0.00964202
0.019944
0.0170958
0.0229347
0.0169599
0.0229621
0.00160802
0.0224807
0.00118342
0.0296933
0.0231699
0.0151585
0.019083
0.00925946
0.0121503
0.00423509
0.00311462
0.00744158
0.00501665
0.0137263
0.0224816
0.0105125
0.0176154
0.0160733
0.00631929
0.0158138
0.0278301
0.00159505
0.00359442
0.00150463
0.0183568
0.026176
0.0211718
0.00685655
0.00539809
0.0258099
0.00332377
0.0258866
0.02449
0.0446237
0.025986
0.0256883
0.0293336
0.0275198
0.0264197
0.020624
0.00530721
0.0213233
0.00505868
0.0218534
0.0226041
3.80464e-06
0.0276501
0.0129113
0.00258674
0.0216868
0.0273296
0.021356
0.0245267
0.0213874
0.0108276
0.0132361
0.02059
0.0232428
0.0254371
0.0273002
0.000836826
0.00361188
0.0173848
0.0230391
0.0216404
0.019158
0.0201648
0.00149371
0.0191593
0.0103338
0.0108374
0.0105526
0.009207
0.0122043
0.0147283
0.000628822
0.023492
0.024495
0.0206806
0.00137916
0.0243358
0.0147904
0.0155738
0.017583
0.0183636
0.0214275
0.0167434
0.0377188
0.00430966
0.0152664
0.0237619
0.0183232
0.0183243
0.00356115
0.0166695
0.0260769
0.0292471
0.0214619
0.00984714
0.0253095
0.00903148
0.0168903
0.0269718
0.0284365
0.0168917
0.028738
0.0284897
0.0283017
0.0263721
0.0178616
0.02744
0.0259575
0.0227534
0.0101972
0.0204907
0.0080754
0.00224693
0.0209959
0.0066473
0.0267497
0.0272621
0.026551
0.0247047
0.0156614
0.0248733
0.0280982
0.00877761
0.00617578
0.012169
0.0301301
0.0205195
0.0197495
0.00507863
0.00442523
0.0237296
0.00151817
0.014398
0.0295093
0.0253614
0.0215874
0.0222981
0.0133844
0.0118313
0.00312589
0.0229647
0.000347637
0.00837718
0.0257243
0.00113782
0.00320295
0.00496007
0.00653586
0.00384667
0.0181401
0.0203743
0.0237509
0.0155812
0.00958719
0.0343659
0.00954356
0.0110191
0.0117523
0.0247667
0.0223474
0.0280818
0.0252974
0.00793213
0.0141059
0.013714
0.0136914
0.0159824
0.0193958
0.0194601
0.0226445
0.0215489
0.0201317
0.0148057
0.0109956
0.0111711
0.00274705
0.0212814
0.0253518
0.00906005
0.00375237
0.0380123
0.0143443
0.0259795
0.0174847
0.0263365
0.0315843
0.0204363
0.00917785
0.00779966
0.0168323
0.0280109
0.0267695
0.00693238
0.029746
0.000278882
-0.000206631
0.0256763
0.0286264
0.0143047
0.0118409
0.0239953
0.00614629
0.0268065
0.0289398
0.0116498
0.0236501
0.0245614
0.0365057
0.00661767
0.0276711
0.016235
0.0169335
0.0232917
0.0277798
0.00314214
0.0217101
0.0297335
0.0289402
0.030972
0.00663588
0.024289
0.0236714
0.0034188
0.0191862
0.0277232
0.0198415
0.00280638
0.00862207
0.0182826
0.00599888
0.0200871
0.00853471
0.000745221
0.000962008
0.0122209
0.00352215
0.0263879
0.0154297
0.00677809
0.0117959
0.0273606
0.0274365
0.0242837
0.0254202
0.0269818
0.0155623
0.00280729
0.0058391
0.0134737
0.0230154
0.0230895
0.0237174
0.0239941
0.0164019
0.0160742
0.0145507
0.0199623
0.0177217
0.0178429
0.01925
0.0291475
0.0210027
0.0230852
0.0196922
0.0218431
0.0215894
0.0109316
0.0211939
0.0165841
0.0102523
0.0149024
0.0336363
0.0167882
0.0374668
0.0221761
0.00644635
0.00998059
0.0195168
0.0318581
0.0179086
0.0169143
0.00760613
0.022272
0.000725401
0.00192307
0.000371993
0.0277244
0.0274979
0.0279052
0.0143488
0.030162
0.00537448
0.028593
0.0289962
0.0278599
0.00291434
0.0318074
0.0281025
0.00215687
0.0297589
0.0169273
0.0177521
0.0166847
0.0231984
0.0251935
0.0206825
0.021747
0.0230137
0.0142599
0.0137484
0.00356309
0.0289599
0.0227906
0.0260596
0.0199023
0.0253496
0.0283512
0.0105362
0.0272545
0.00280353
0.0203655
0.00965403
0.00112194
0.000180446
0.0122667
0.0254993
0.00963688
0.0232881
0.0236919
0.0079979
0.0248925
0.00929811
0.0298852
0.0236708
0.0294627
0.0222136
0.0120618
0.0234296
0.0245329
0.0272256
0.00628638
0.0241396
0.024147
0.0253009
0.0271897
0.0194097
0.0256735
0.0206832
0.00280754
0.024603
0.00623429
0.0183671
0.0193767
0.0133082
0.0212402
0.0321316
0.016225
0.0150017
0.0158153
0.0109925
0.0206003
0.00766453
0.0136919
0.0252516
0.0119772
0.0238248
0.00715329
0.0254776
0.0212527
0.0066437
0.0180136
0.0265042
0.00700906
0.0208984
0.0137482
0.00188252
0.000200687
0.00190848
0.0266526
0.0175037
0.0199614
0.0152194
0.0149104
0.0267471
0.0290132
0.028083
0.0212887
0.0276633
0.0226091
0.0292563
0.0153851
0.0298057
0.0296209
0.0296069
0.0286748
0.0278752
0.00336866
0.0234125
0.0279432
0.021317
0.019259
0.0311035
0.0280033
0.0140805
0.0290532
0.00294351
0.0264047
0.0276076
0.0193051
0.0184177
0.0249835
0.0261449
0.024903
0.00124253
0.0291014
0.0219566
0.00830794
0.00044892
0.0288191
0.00886374
0.00371982
0.00241821
0.000336265
0.0206442
0.00657598
0.0346546
0.0105274
0.0248149
0.0132866
0.0100934
0.0144964
0.0242683
0.0103854
0.0287801
0.0239458
0.0140768
0.0269274
0.0240663
0.0206624
0.0322739
0.021805
0.0277219
0.0178234
0.0299012
0.0177348
0.0176201
0.0037429
0.0224395
0.0212199
0.0225248
0.0259304
0.0189845
0.0299962
0.0224452
0.0218156
0.0030629
0.00672394
0.0301288
0.015852
0.00589328
0.0159757
0.0397494
0.00965147
0.031128
0.00724145
0.00142392
0.0119743
0.0124371
0.0110498
0.0205953
0.00637217
0.0192073
0.02407
0.0171731
0.00574276
0.00622065
0.0282035
0.00177387
0.020991
0.0195285
0.012965
0.0263207
0.0314079
0.013666
0.0262946
0.0246033
0.0217723
0.000442539
0.0212344
0.0237362
0.0280754
0.0286708
0.0323846
0.0300725
0.0037501
0.00249063
0.03035
0.00364082
0.0272379
0.029143
0.0270301
0.00587287
0.0332765
0.0127917
0.0241125
0.0289698
0.0261581
0.0269474
0.025874
0.0246305
0.0225301
0.0132406
0.024726
0.0186972
0.00219038
0.0122656
0.0270692
0.024618
0.0318938
0.0336372
0.00172349
0.0175558
0.00288349
0.0054878
0.0283185
0.00542027
0.00463281
0.0297562
0.00686362
0.0115976
0.0171293
0.0287298
0.000308547
0.0280741
0.0241731
0.013325
0.027617
0.0293883
0.0152204
0.0276827
0.0224205
0.0297456
0.0276161
0.0271744
0.0200621
0.0308011
0.0214327
0.00624408
0.00657544
0.0299139
0.0222741
0.0273326
0.0332117
0.0245998
0.0262317
0.0327388
0.00656163
0.0297358
0.0290395
0.0298539
0.0163657
0.0430257
0.00504633
0.00844031
0.0132377
0.0122294
0.0322807
0.00975279
0.0236898
0.0188033
0.0196315
0.0183563
0.00669413
0.0120637
0.00785107
0.0280782
0.00132089
0.0299028
0.0304659
0.030848
0.0145727
0.0255828
0.0381951
0.0237631
0.00214563
0.0273915
0.0092101
0.0115079
0.0314432
0.0147528
0.0310523
0.0315751
0.0211306
0.00338687
0.0280234
0.0269191
0.0279002
0.0207503
0.0275826
0.0275532
0.0265997
0.0234841
0.0241815
0.0248874
0.0250134
0.0205683
0.0191392
0.0019156
0.0286913
0.0173592
0.0186034
0.0202977
0.0103341
0.00867571
0.0345843
0.026912
0.0246397
0.031359
0.0324307
0.0121593
0.00498816
0.00840231
0.0339355
0.0174882
0.00893601
0.0290052
0.00757752
0.0252953
0.0145214
0.0063792
0.00610357
0.0237424
0.0138024
0.0260264
0.00108121
0.0229156
0.00240903
0.0248209
0.014208
0.02074
0.0212763
0.0201826
0.0261198
0.025321
0.0285331
0.00880925
0.0389892
0.0376298
0.0330862
0.0227711
0.0225113
0.0175324
0.023825
0.026619
0.0279693
0.0319865
0.000104824
0.0124458
0.0137635
0.0422842
0.0286501
0.00355733
0.0294921
0.00363232
0.0168223
0.0193032
0.0118028
0.00861012
0.033249
0.0269579
0.00916965
0.0181379
0.0343179
0.0117009
0.00722429
0.000609936
0.0167527
0.002501
0.0308802
0.00730833
0.0327759
0.0389153
0.0100017
0.0273232
0.000368769
0.000392755
0.00950217
0.0316365
0.0316135
0.0301317
0.0267433
0.0020092
0.0206349
0.0442974
0.0197757
0.0266024
0.0253641
0.0263472
0.0267204
0.0211559
0.0292829
0.0259482
0.00911637
0.00225526
0.00254962
0.00256899
0.0248826
0.0278214
0.0155835
0.0277713
0.00656282
0.00680549
0.00773859
0.0239592
0.0324377
0.0319952
0.0335816
0.0189696
0.00944469
0.0294581
0.00893978
0.0238365
0.0258632
0.0267936
0.0145985
0.0294215
0.0133196
0.0243808
0.0253153
0.0242137
0.0128064
0.0181636
0.0449656
0.0113308
0.00290246
0.0230958
0.0197547
0.024653
0.0159208
0.0185614
0.0200301
0.0213771
0.0176892
0.0257979
0.0373516
0.0191723
0.0289634
0.0133477
0.0237569
0.0180854
0.0229227
0.0249032
0.0235066
0.0317127
0.00450324
0.0311281
0.0206018
0.000990992
0.0135119
0.0326598
0.0292408
0.0172872
0.00411514
0.0264332
0.00956116
0.0335646
0.0096166
0.0273581
0.0258925
0.0304741
0.0231052
0.028093
0.019193
0.00323481
0.0251756
0.00289241
0.0305936
0.000301733
0.00105
0.00640522
0.00233451
0.0209193
0.00110478
0.0338633
0.0341063
0.0286401
0.0294855
0.0320876
0.0321441
0.0310665
0.0314881
0.0088079
0.0342823
0.0309697
0.00683906
0.0293442
0.0360889
0.0202194
0.000115849
0.0282678
0.03073
0.026422
0.0246325
0.0277884
0.0330498
0.00314766
0.0290935
0.0014385
0.000784397
8.59786e-05
0.0253379
0.0179323
0.00782904
0.0147101
0.0287953
0.0424677
0.0202049
0.0263398
0.0270333
0.0328607
0.00267115
0.0446632
0.0303148
0.00881961
0.0215273
0.0104656
0.0226243
0.0278519
0.010651
0.0299036
0.0232693
0.0126398
0.0198542
0.0121661
0.0245621
0.0197407
0.0314891
0.0323602
0.00924457
0.0168383
0.0204097
0.0199188
0.0270135
0.0380403
0.0138029
0.0269133
0.020583
0.01359
0.0174579
0.0343559
0.0193112
0.0177327
-0.000145001
0.0364956
0.0357463
0.00117005
0.0294555
0.00226238
0.0221722
0.0337206
0.00502504
0.0313311
0.031251
0.0332621
0.0319148
0.0256345
0.026353
0.0287921
0.00784499
0.0277609
0.00968563
0.00259475
0.0147086
0.00397328
0.0263402
0.0285412
0.0121818
0.0121642
0.0148525
0.0333685
0.00377245
0.0285203
0.0169998
0.0329605
0.0233584
0.0322365
0.0310847
0.0347559
0.0308767
0.00145839
0.0205327
0.0307334
0.0214497
0.0279674
0.0269742
0.00569821
0.0324286
0.0245766
0.0339596
7.00813e-05
0.0309089
0.0078331
0.016649
0.00224089
0.0263339
0.0255079
0.0399377
0.0244012
0.0081752
0.0302418
0.028863
0.000891058
0.000622261
0.03934
0.0269803
0.00940489
0.0437177
0.0108014
0.0170255
0.0294802
0.000391962
0.00341635
0.0446704
0.00859693
0.0128957
0.0127372
0.0209975
0.0288074
0.0166275
0.0121005
0.0294795
0.0331416
0.0306476
0.0285979
0.016825
0.0288423
0.0202515
0.0124365
0.0254181
0.0250227
0.0203079
0.0229879
0.0166905
0.0156762
0.0291192
0.0299077
0.0303322
0.0252554
0.0358679
0.0243876
0.0253054
0.023794
0.0249691
0.0301925
0.0217115
0.00485984
0.0328559
0.0318178
0.029691
0.0050597
0.028288
0.0246297
0.0275903
0.0251187
0.03368
0.0295022
0.00387937
0.0119179
0.0333193
0.0335932
0.0362785
0.00327973
0.0162293
0.0114073
0.0310639
0.0300532
0.0321979
0.0359935
0.0363406
0.0312363
0.0356783
0.0307875
0.0302802
0.0194628
0.0322018
0.0272535
0.0356633
0.043028
0.0270129
0.0252388
0.0445094
0.0222911
0.01588
0.0332244
0.0183226
0.0356696
0.0010231
0.0277122
0.0171485
0.0410557
0.0267354
0.0254923
0.0339528
0.0163443
0.00109075
0.0150137
0.0413452
0.000281973
-0.000161281
0.0273396
0.0106712
0.0115139
0.0113331
0.00814077
0.00690955
0.00772289
0.00623559
0.0122015
0.0316957
0.035495
0.00361672
0.0320001
0.0283759
0.00285207
0.0268739
0.032805
0.0332495
0.0187608
0.023093
0.0176501
0.0325675
0.0183691
0.0283754
0.025237
0.0187394
0.0260965
0.0318648
0.0180593
0.0176959
0.0258847
0.0254325
0.021556
0.0346926
0.00408083
0.036513
0.0221883
0.0190143
0.0208959
0.0328593
0.0143574
0.0110764
0.0329789
0.0292453
0.0300529
0.0321158
0.0409185
0.0370765
0.0331623
0.0299527
0.0326998
0.0344129
0.0333319
0.0206799
0.0350378
0.0334884
0.00975111
0.0299635
0.0221902
0.034946
0.0290219
0.0344175
0.0173072
0.0309791
0.0218813
0.0254627
0.0322065
0.0348233
0.00942388
0.028444
0.0226316
0.0218604
0.0230945
0.0356277
0.0291653
0.0307729
0.000627227
0.0261374
8.06708e-05
0.0306203
0.00257675
0.041996
0.0106107
0.0217404
0.00855138
0.00824275
0.00743
0.02824
0.0306977
0.0210855
0.0216022
0.0281883
0.0192227
0.0322221
0.0330736
0.0240367
0.0362815
0.031447
0.0364918
0.0316144
0.0295547
0.0339954
0.0192052
0.0248965
0.0257065
0.0204284
0.00460797
0.0342897
0.0336716
0.0398635
0.0104292
0.0315036
0.0280687
0.0111606
0.0255376
0.0312124
0.0272283
0.0355216
0.0337375
0.0322138
0.0350833
0.0261095
0.0335429
0.0349914
0.0338528
0.0332309
0.027753
0.0310806
0.0245595
0.0359367
0.0301096
0.0447053
0.0440279
0.029039
0.0355473
0.0285338
0.0280465
0.027301
0.0233386
0.0329384
0.0292088
0.031513
0.0329164
0.03601
0.0317037
0.0269962
0.0300607
0.0301472
0.0351345
0.0291373
0.0310899
0.0330943
0.0343584
0.00246122
0.0317931
0.00338081
0.00388469
0.00428967
0.00216897
0.0313056
0.00669628
0.000757606
0.0230183
0.0310332
0.04242
0.0431871
0.0358574
0.0286995
0.0351393
0.0191234
0.0395184
0.0253782
0.027892
0.0304
0.0328794
0.021549
0.0324652
0.0339034
0.0246043
0.0263658
0.0337947
0.0266045
0.0389577
0.0339885
0.0377082
0.0116608
0.00212959
0.0314636
0.0311755
0.0306542
0.0378845
0.0321579
0.0385826
0.0322334
0.0346787
0.0203226
0.0360469
0.0260312
0.0347745
0.0276229
0.0351963
0.036196
0.0220592
0.0320048
0.023751
0.033181
0.0236784
0.0335024
0.0291162
0.0280214
0.0334706
0.0323605
0.0291279
0.0323765
0.0221523
0.038631
0.0302022
0.0320503
0.0330936
0.0344869
0.00941697
0.0233543
0.0349426
0.00345387
0.00455359
0.035622
0.0313371
0.000548984
0.042533
0.0283254
0.0392125
0.0308402
0.0268733
0.0268688
0.0370676
0.0310596
0.0266375
0.0280493
0.0302213
0.0309888
0.0307114
0.0398864
0.0340899
0.0342519
0.0230458
0.0231198
0.0360749
0.0291577
0.0341462
0.034134
0.0385197
0.0424478
0.0405725
0.0271116
0.0360922
0.028503
0.0335125
0.0327744
0.0280711
0.0128175
0.0355268
0.0428638
0.0348317
0.0267677
0.0308657
0.0267766
0.0440992
0.0247147
0.0317301
0.0268574
0.0281127
0.0336228
0.0355259
0.0283456
0.0340007
0.0333288
0.0302535
0.0345415
0.0335335
0.0334826
0.0299932
0.0360887
0.0362672
0.0356394
0.0305773
0.0351857
0.035255
0.0348889
0.0111541
0.0357316
0.0253607
0.0262214
0.0322002
0.0384749
0.0255879
0.0311552
0.0361334
0.0305519
0.0312638
0.027042
0.0404443
0.0301313
0.0354061
0.0256508
0.025737
0.0309678
0.0358339
0.0255159
0.0304697
0.0302388
0.035239
0.0358239
0.0305266
0.0308413
0.0383996
0.038278
0.0315619
0.0378351
0.0370494
0.0333945
0.0380613
0.015568
0.0378759
0.0358435
0.0352665
0.0356144
0.0340344
0.0355695
0.0392968
0.0321291
0.0353831
0.0283038
0.0324001
0.0291656
0.0334658
0.0334675
0.0405426
0.0340655
0.0402806
0.0403891
0.0290157
0.0331113
0.0347044
0.0232906
0.0299343
0.0310506
0.0310681
0.0395155
0.0344049
0.0268794
0.0307135
0.0250919
0.0365839
0.0254997