/*--------------------------------*- C++ -*----------------------------------*\
| =========                 |                                                 |
| \\      /  F ield         | OpenFOAM: The Open Source CFD Toolbox           |
|  \\    /   O peration     | Version:  2212                                  |
|   \\  /    A nd           | Website:  www.openfoam.com                      |
|    \\/     M anipulation  |                                                 |
\*---------------------------------------------------------------------------*/
FoamFile
{
    version     2.0;
    format      ascii;
    arch        "LSB;label=32;scalar=64";
    class       surfaceScalarField;
    location    "0.034";
    object      phi;
}
// * * * * * * * * * * * * * * * * * * * * * * * * * * * * * * * * * * * * * //

dimensions      [0 3 -1 0 0 0 0];

oriented        oriented;

internalField   nonuniform List<scalar> 
68568
(
-1.47481e-07
1.52384e-07
-2.87607e-08
2.38585e-08
1.42159e-07
-7.26573e-08
-7.55284e-08
6.02709e-09
1.71934e-07
-1.31377e-07
-5.85325e-08
1.79748e-08
-4.34053e-09
2.19159e-09
-1.6473e-07
1.66879e-07
-1.22988e-09
1.38015e-07
9.86989e-10
-1.37772e-07
1.36189e-07
-4.84288e-10
-1.25112e-07
-1.05935e-08
8.14914e-08
-8.67245e-08
1.2713e-07
-1.21897e-07
-3.85003e-08
-2.63119e-08
1.46304e-07
1.27899e-07
-1.52149e-08
-1.07863e-07
-4.82157e-09
1.46162e-07
5.22606e-08
-5.62642e-08
9.83598e-08
1.34312e-07
-6.07376e-08
-6.28529e-08
-1.97014e-07
1.8721e-07
-1.3716e-07
6.7171e-08
-5.53895e-09
1.7863e-07
-1.84154e-07
1.34514e-08
-7.92785e-09
-6.8817e-08
-5.04818e-08
1.18147e-07
1.15193e-09
1.25042e-07
8.61371e-08
-1.27907e-07
-8.32724e-08
-4.99638e-08
-7.6944e-08
1.12471e-07
1.44363e-08
1.10377e-07
-1.1537e-07
-4.49713e-08
1.09363e-07
-4.44894e-09
-6.35358e-10
-1.04279e-07
8.39484e-08
-1.51472e-07
7.59759e-08
-8.45255e-09
1.11108e-07
-4.64764e-10
-1.1056e-07
-8.38114e-11
-1.75274e-08
8.86577e-09
1.37537e-07
-1.28875e-07
-4.49185e-08
1.85992e-07
-2.69038e-08
-1.14169e-07
-6.68184e-10
-4.31657e-10
-1.33739e-07
1.34839e-07
-7.37281e-08
-4.78572e-08
1.14817e-07
6.76802e-09
-9.56588e-08
-3.91933e-08
-1.26293e-08
-6.39132e-08
1.39471e-07
8.39111e-09
7.6103e-08
4.51199e-08
-2.95672e-08
-9.16557e-08
-6.69506e-08
-9.83102e-08
1.2676e-07
4.79027e-08
-1.1827e-07
3.41681e-09
1.50678e-07
-8.05396e-08
-1.41948e-07
7.181e-08
-1.3159e-08
2.51477e-09
1.15656e-07
-1.05012e-07
1.54164e-07
-3.22171e-08
-1.097e-08
-1.10977e-07
1.18157e-07
-9.07131e-08
-5.80488e-08
3.0605e-08
-4.17203e-10
1.08203e-07
-1.0781e-07
2.42059e-11
1.19951e-07
8.41276e-08
-8.43024e-08
6.3515e-10
-4.60298e-10
4.2369e-08
-1.5719e-07
9.14963e-08
2.3325e-08
-1.5983e-07
1.38867e-07
6.33324e-08
-7.32603e-08
-1.81781e-10
-2.8595e-10
-8.19221e-10
1.12991e-07
-1.0631e-09
1.11474e-07
-1.11169e-07
-5.13167e-10
2.08868e-10
-2.62542e-08
-1.55825e-07
1.1796e-07
1.9117e-07
-1.45571e-07
-1.6356e-07
-6.09008e-08
-1.02154e-07
2.88097e-07
-1.44233e-07
1.61574e-07
-1.35676e-07
1.18335e-07
-1.22536e-07
6.50476e-08
-5.36436e-09
1.13522e-07
-1.1082e-07
-3.49627e-09
7.93873e-10
9.68713e-08
2.48605e-08
1.15967e-08
-1.33329e-07
2.10361e-09
-1.506e-07
1.45977e-07
3.36854e-08
-2.90622e-08
-8.31521e-09
-9.28283e-08
1.00807e-07
3.36348e-10
-1.57815e-07
1.35967e-07
1.79123e-07
-1.55351e-07
-3.6093e-10
-2.265e-10
2.00248e-09
-1.60267e-09
1.07459e-07
-1.07858e-07
3.90483e-08
-1.13863e-07
-2.12964e-09
9.10051e-08
-9.73329e-08
3.74623e-09
2.58157e-09
-8.46249e-08
1.40486e-07
-6.18885e-08
6.02715e-09
1.45277e-07
-7.53039e-08
-7.3419e-08
3.44581e-09
9.0112e-08
-9.03222e-08
-4.57972e-10
-1.10683e-07
-1.71253e-09
1.14587e-07
7.48422e-08
7.06267e-08
-7.58729e-09
-1.37882e-07
-5.91889e-09
1.34264e-07
-1.29126e-07
7.80337e-10
8.77985e-08
-1.48671e-07
-3.04093e-09
1.0708e-07
-1.78188e-08
3.33707e-08
-1.22632e-07
1.47913e-07
-2.30885e-08
-1.67624e-07
4.27992e-08
4.02796e-08
8.08878e-08
-1.18044e-08
6.37731e-08
-1.26267e-07
6.92533e-08
-6.75913e-09
1.33523e-07
-1.34617e-07
-1.35898e-10
-9.93318e-08
1.41711e-07
-3.13492e-08
-1.10303e-08
-2.02807e-07
-1.48849e-07
2.84487e-07
6.71688e-08
-1.16327e-07
6.73689e-10
1.20472e-07
-6.4616e-09
1.33582e-07
-1.41733e-07
-5.32187e-08
6.13695e-08
-1.24321e-07
6.42028e-08
6.60342e-08
-5.91634e-09
-4.91977e-08
-5.13997e-08
-4.8096e-08
-1.00003e-07
1.00315e-07
-4.27165e-10
1.15176e-10
3.95686e-08
1.71986e-07
-6.62777e-08
1.03775e-07
-6.2391e-08
4.96213e-08
-7.22802e-08
-7.93788e-08
1.47703e-07
3.95573e-09
-5.38441e-10
-2.16577e-07
-6.65162e-10
2.17781e-07
7.35535e-08
-4.60836e-08
8.40038e-08
-1.75722e-10
6.42128e-08
-6.40741e-08
3.69573e-11
-1.88697e-08
1.38325e-07
6.63627e-08
-1.85818e-07
1.68455e-07
-8.51399e-08
-8.83314e-08
5.01632e-09
1.18238e-07
3.74371e-08
-3.58444e-08
-1.1983e-07
1.6136e-07
-7.60109e-08
7.52943e-08
-1.60644e-07
3.46812e-08
1.30564e-08
1.13623e-07
-8.75826e-08
8.33557e-08
-1.60503e-07
1.23375e-07
9.15848e-10
-1.20401e-07
-3.8904e-09
-3.91596e-08
-2.76423e-07
1.93047e-07
8.30072e-08
8.5216e-08
-6.64883e-09
-4.60628e-10
5.17849e-10
9.25696e-08
-9.26269e-08
-1.22497e-07
1.22373e-07
-3.07416e-10
-5.93161e-08
1.18386e-07
5.97804e-09
7.22618e-09
8.63618e-08
-4.87729e-09
-8.87107e-08
-1.26632e-07
5.58551e-08
8.84386e-08
-1.76614e-08
-4.36289e-08
-8.00745e-08
-1.00355e-08
-8.21475e-08
1.59653e-07
5.50136e-09
7.14763e-08
7.45662e-08
-1.41028e-07
-5.01423e-09
1.12697e-07
8.19847e-10
-1.13458e-07
-5.9061e-11
-6.19883e-09
-1.8279e-07
-1.37294e-08
1.9172e-07
-5.59309e-09
1.17675e-07
-1.19386e-07
5.68277e-08
-7.40708e-09
9.66836e-08
-4.41596e-10
-9.51581e-08
-1.08395e-09
1.2096e-07
-8.00373e-10
1.34211e-07
-4.56645e-08
7.99081e-08
1.17429e-10
-1.02822e-07
-3.34075e-09
1.10504e-07
-4.34174e-09
9.01635e-08
-4.96648e-08
-8.94009e-08
1.07387e-10
8.91594e-08
1.3412e-10
-3.46115e-08
-1.34575e-07
1.4343e-07
2.57572e-08
-2.04521e-09
1.29232e-07
-1.26811e-07
-3.76226e-10
-8.71229e-08
-3.62532e-08
1.23817e-07
-4.40783e-10
-4.20308e-09
2.0523e-09
-1.08533e-07
-1.61761e-07
8.65039e-08
8.04696e-08
-5.2123e-09
2.94163e-10
-9.98882e-08
9.98181e-08
-2.24036e-10
1.36276e-07
-7.25895e-10
-2.1393e-10
-1.09352e-07
2.91773e-10
1.09274e-07
-5.25014e-08
2.05464e-08
4.02529e-08
1.29981e-07
-7.10997e-08
4.89151e-09
1.38905e-07
-1.38037e-07
-1.40273e-08
-1.22723e-07
1.38431e-07
1.89384e-08
-3.46463e-08
7.13412e-08
-7.2555e-08
1.49127e-07
3.80816e-09
1.11818e-07
1.50169e-07
-1.29548e-09
-1.50919e-07
6.76984e-08
-1.41323e-07
-4.32464e-09
7.79494e-08
1.41527e-07
-7.80655e-08
8.01513e-09
9.89595e-08
-9.68639e-08
-1.11325e-07
5.74059e-08
-3.03836e-08
-1.48351e-07
1.41443e-07
-1.89051e-08
2.58131e-08
1.60438e-07
4.52337e-08
-4.90339e-08
-1.55705e-07
-7.30771e-08
-2.98463e-08
7.98431e-08
2.30803e-08
-1.29156e-07
6.79447e-08
-5.38726e-08
1.15084e-07
-1.50405e-07
-3.31383e-09
1.56675e-07
-2.95657e-09
-1.07725e-07
2.04389e-08
-6.31182e-08
-1.61863e-07
-6.25918e-09
9.3885e-08
-1.40448e-09
-1.11352e-07
-5.11526e-10
-1.0778e-07
1.38429e-07
-7.32151e-08
5.97045e-09
1.5426e-07
-8.2408e-08
-7.83521e-08
6.5004e-09
-1.32788e-07
1.78302e-07
-4.58223e-08
3.07808e-10
8.14696e-08
-8.1967e-08
-1.3229e-07
9.40278e-08
7.27557e-09
-2.34383e-09
6.38886e-10
1.03734e-07
-1.03208e-07
-1.16428e-09
1.87891e-07
-4.77037e-08
-1.02751e-07
-1.07528e-07
8.74603e-08
1.13947e-07
-1.09307e-07
-2.58756e-09
-1.77371e-09
1.00964e-07
-9.95036e-08
3.12853e-10
-9.53672e-09
-1.33674e-07
1.30695e-07
1.2516e-08
-1.37975e-07
1.54663e-07
-9.77235e-09
-6.91535e-09
1.19976e-07
-5.50691e-08
-6.4344e-08
8.30227e-09
-7.8721e-09
-9.65862e-08
9.6143e-08
3.25114e-08
-6.64014e-09
-1.33597e-07
-1.9947e-08
1.09484e-07
-8.33059e-08
-6.23086e-09
1.58272e-07
-6.62065e-09
-1.35273e-08
-1.38124e-07
1.54844e-07
1.28281e-10
-2.54743e-09
-1.52425e-07
1.34931e-07
-1.34572e-09
-6.21146e-11
1.27969e-07
-1.28213e-07
2.24561e-10
1.97252e-11
-1.2393e-07
-8.09621e-08
1.24818e-07
2.09007e-08
-1.6831e-07
-1.09764e-07
1.09594e-07
2.61987e-11
1.43816e-10
-1.32659e-07
-7.18871e-09
1.87295e-09
-1.01037e-07
-3.59109e-11
1.01053e-07
1.98708e-11
-1.21037e-07
-3.15309e-10
1.21422e-07
-6.91162e-11
-9.71298e-09
1.1987e-07
-1.01287e-07
-7.71741e-09
-1.01712e-07
1.01374e-07
1.24574e-10
2.06746e-08
2.82457e-08
8.53149e-08
-1.331e-07
7.18724e-08
-7.21702e-08
1.42431e-07
-1.42133e-07
1.02255e-07
-8.04985e-08
-2.39604e-08
2.20409e-09
1.03847e-07
-3.76235e-09
-1.05961e-07
8.04164e-09
5.6581e-09
-1.07463e-07
1.2158e-07
-1.97751e-08
-5.36821e-10
1.01273e-07
-1.00331e-07
-4.04846e-10
-1.39171e-07
-8.41353e-09
1.62998e-07
2.03524e-07
-8.68206e-08
1.83795e-07
1.51616e-07
-7.56998e-08
5.55379e-09
-3.36903e-08
2.54772e-08
-1.0756e-07
1.1827e-07
8.71574e-08
9.22426e-08
-7.41376e-09
9.18168e-08
7.15803e-08
-1.57653e-07
-5.74452e-09
8.08788e-08
7.82143e-08
-7.47754e-09
1.20111e-07
-7.42279e-08
8.20854e-08
7.28197e-08
-1.23428e-07
5.87238e-08
-8.11567e-09
6.53612e-10
-9.7729e-08
-1.23477e-09
3.43875e-10
-3.05424e-07
1.82209e-07
1.79341e-07
-1.16531e-07
3.36849e-08
9.25326e-09
4.27709e-08
4.46708e-08
-9.6695e-08
-1.2628e-07
1.89264e-09
1.2552e-07
-1.13244e-09
-9.71082e-08
9.66863e-08
-2.94055e-11
4.51281e-10
1.26501e-07
-1.6381e-07
1.93733e-07
-1.56424e-07
1.5256e-08
-1.43454e-09
1.24194e-07
-3.11391e-08
7.30021e-09
-7.2411e-08
9.62499e-08
-7.09482e-08
1.37618e-07
5.20299e-09
-1.43813e-07
7.45744e-08
7.43774e-08
-5.13921e-09
-1.0879e-07
-2.45636e-08
1.13406e-07
4.52497e-10
7.55648e-08
-4.07411e-11
-7.59765e-08
1.43651e-07
-6.54072e-08
7.59208e-08
1.3136e-09
-1.14097e-10
6.17324e-11
-9.54264e-08
1.74922e-07
-4.67223e-08
-2.88702e-08
-9.93298e-08
6.70652e-09
2.91171e-08
-1.17603e-07
8.52923e-08
-3.34942e-08
2.22837e-08
1.84496e-07
7.18916e-09
1.6351e-07
-1.78407e-07
-6.18852e-08
-6.63111e-08
5.47362e-09
1.29272e-07
6.27217e-09
-6.99791e-08
-7.0832e-08
1.33537e-07
7.27443e-09
3.03701e-09
1.0529e-07
-1.42295e-07
-1.48626e-10
6.8918e-08
-6.87697e-09
-6.4862e-10
-1.32538e-07
1.30194e-10
1.33056e-07
-1.33194e-07
1.61603e-07
-4.05858e-08
1.09454e-08
-9.29755e-09
5.01386e-08
1.09328e-07
-1.26491e-07
7.37629e-08
-2.64439e-08
7.91718e-08
-1.38445e-07
9.33036e-08
-1.26888e-07
1.25297e-07
2.96128e-10
9.09942e-08
2.16764e-08
-1.63685e-07
-2.1331e-08
1.6334e-07
-1.79802e-07
9.8585e-08
-1.3536e-07
-1.6786e-09
1.62903e-07
2.3913e-08
6.5682e-08
-9.4168e-08
4.57295e-09
8.45712e-08
-5.15786e-08
1.32415e-10
-9.84979e-08
4.07923e-10
-2.31604e-07
2.31495e-07
-5.56332e-10
-9.39913e-08
-9.82861e-08
-9.20201e-08
9.98876e-08
-1.0958e-07
8.29329e-08
-1.05174e-07
1.68162e-08
5.42531e-09
1.23922e-07
-8.93384e-08
-9.1061e-09
-1.5249e-07
-1.10311e-08
2.07528e-08
1.42769e-07
-3.0476e-07
-3.20723e-10
-1.29502e-07
1.28725e-07
3.16983e-10
-9.21089e-08
-9.44515e-11
1.83218e-10
-1.40074e-08
-9.28768e-08
1.48978e-07
-4.2094e-08
1.06543e-07
5.33261e-09
4.29685e-08
-1.33283e-07
1.32355e-07
-3.52093e-09
-5.7953e-08
1.42473e-07
-9.79295e-08
3.1802e-10
-1.26283e-07
-3.1493e-10
9.08252e-08
-9.26315e-08
2.0364e-10
-6.55228e-08
-6.52402e-08
1.23014e-07
7.7495e-09
1.11755e-07
1.74419e-08
-9.58806e-08
-3.33163e-08
3.38446e-08
1.50765e-07
-1.78119e-07
-8.60258e-09
-1.09109e-07
-1.91383e-08
1.25747e-07
1.65169e-11
-1.25996e-07
2.32167e-10
2.37131e-08
7.50578e-09
5.37604e-08
-8.49793e-08
-1.40031e-07
7.50738e-08
-5.022e-09
-1.13585e-07
1.09852e-07
-6.95956e-09
-3.39882e-10
1.20096e-07
3.54865e-10
-7.94077e-08
-7.11677e-08
1.43494e-07
7.08186e-09
1.2788e-07
-6.86732e-08
-6.60281e-08
6.82138e-09
1.27926e-07
-2.16744e-09
-1.16533e-11
-1.00162e-07
-9.03777e-08
9.84303e-08
-1.27328e-07
-4.62761e-08
-5.87472e-10
1.75028e-07
-1.04701e-07
2.92852e-08
-1.27391e-07
1.31383e-10
-1.04194e-07
5.48466e-10
-6.76461e-10
1.33051e-07
2.53209e-08
-2.70753e-08
-1.31297e-07
4.55589e-08
-1.28149e-07
-6.80887e-11
7.84763e-11
3.84207e-08
-1.91865e-07
-7.74956e-08
1.30749e-07
8.84578e-08
2.03911e-08
-1.44267e-07
-1.81344e-08
1.4201e-07
-8.06573e-08
6.37397e-09
1.31667e-07
-1.30601e-07
9.08566e-08
4.11972e-08
-1.45284e-09
-5.34496e-10
8.69814e-11
-9.59579e-08
6.59195e-08
-4.57306e-09
-1.4518e-09
-2.86864e-09
-2.34397e-09
9.43179e-08
-8.91053e-08
8.14782e-08
1.04023e-07
-1.02453e-07
-8.30486e-08
1.4717e-07
-1.64325e-07
3.57234e-10
1.58115e-10
1.55544e-07
-1.00835e-08
-1.36595e-07
-4.19782e-08
1.51021e-07
1.09336e-08
1.17527e-07
-1.10858e-07
-5.70768e-09
-9.6043e-10
-9.67786e-10
1.12902e-07
1.62709e-07
-5.65353e-08
-2.39911e-09
9.28546e-08
-8.24075e-08
-5.20172e-10
3.58367e-10
1.39067e-07
-1.52044e-07
5.93422e-09
1.39332e-07
4.86616e-09
-1.19409e-08
1.45615e-07
-1.82309e-07
3.91009e-08
1.03707e-09
8.94722e-08
-8.77541e-10
-8.96317e-08
-1.16575e-07
1.16755e-07
-1.1767e-10
1.10532e-09
-2.58693e-10
-1.10964e-07
1.10035e-07
-3.82968e-11
-1.09066e-07
-2.54567e-10
2.11454e-10
7.08604e-08
-1.01634e-07
-7.57884e-08
1.06562e-07
2.05903e-11
-1.14527e-07
1.14656e-07
-1.50163e-10
-4.29307e-08
9.44761e-08
-2.19131e-08
-1.93337e-08
-1.39599e-07
7.26074e-08
-6.08566e-09
2.78664e-08
-1.57505e-08
1.05411e-07
-1.34393e-07
6.47022e-08
6.2424e-08
7.26706e-09
-1.56914e-07
-1.09629e-07
1.10436e-07
-1.24979e-07
-4.27315e-08
5.72736e-08
1.2862e-07
-1.29356e-07
2.18544e-10
5.17669e-10
-1.73449e-09
-1.81951e-07
1.32016e-10
1.83554e-07
-1.04299e-07
4.2835e-11
1.04273e-07
-1.26401e-07
-5.3451e-11
4.58524e-10
7.16862e-08
-1.26684e-07
-6.88712e-09
2.29722e-10
-1.28251e-07
-1.91884e-10
7.56244e-08
7.5907e-08
-5.55428e-09
-7.3004e-08
-7.32501e-08
1.39986e-07
6.26801e-09
-1.15953e-07
9.02292e-10
1.14852e-07
1.98258e-10
1.23101e-07
3.037e-08
1.09664e-07
-1.55669e-08
1.07188e-07
-5.56831e-09
-9.81559e-08
4.6273e-08
4.46371e-08
7.24571e-09
4.76809e-08
1.27086e-07
-5.11024e-08
-1.19644e-07
7.27337e-08
-7.07161e-08
-1.30082e-07
-1.04721e-07
1.15022e-07
1.19781e-07
1.07809e-07
-1.40757e-10
1.14487e-07
-1.15838e-07
1.40552e-09
-5.50523e-11
-1.29834e-07
-1.27725e-07
8.42901e-10
7.14997e-11
1.68663e-08
3.76122e-08
-1.5873e-07
1.50967e-08
-4.2625e-08
1.9438e-07
1.32648e-07
-1.00836e-07
-3.56688e-08
3.9524e-09
1.90588e-08
-2.09618e-08
1.31584e-07
-3.27118e-08
-7.79103e-08
1.05261e-07
-6.49878e-10
-1.04368e-07
-2.43068e-10
-4.10414e-08
-1.43241e-07
2.84267e-07
-9.99847e-08
1.03407e-07
-7.8648e-08
-8.46521e-10
2.16777e-11
1.01566e-07
-3.14561e-10
7.26662e-08
-7.31174e-08
1.25753e-07
-1.6498e-07
-1.28844e-07
7.84843e-08
1.24934e-07
-2.30403e-09
-2.9992e-08
-8.1102e-08
7.03485e-08
8.40565e-08
8.30423e-09
1.50341e-07
-1.23412e-07
2.30078e-09
1.46543e-07
-7.91635e-08
6.99746e-09
1.17905e-07
-1.5572e-07
1.29905e-07
-8.09332e-08
-3.35133e-08
-1.38143e-08
1.87452e-09
1.02901e-07
-1.14312e-07
6.74845e-08
-1.27723e-07
-5.28447e-09
1.47723e-07
9.51475e-09
-4.38054e-08
1.31178e-07
-8.75689e-08
-2.29962e-09
-2.53622e-08
1.38139e-07
-1.54924e-07
4.21474e-08
1.15117e-07
2.06933e-08
-5.49224e-08
-1.5625e-09
-1.3324e-07
1.33041e-07
-8.86686e-10
-2.95835e-08
2.2462e-08
-9.62078e-08
1.03329e-07
7.46299e-08
-1.40395e-07
-5.0672e-09
-1.34351e-07
1.34744e-07
-1.62943e-10
-7.5703e-08
1.56258e-07
-1.21596e-07
-7.1593e-08
-7.89132e-08
1.59307e-08
-9.95045e-08
-9.19121e-11
2.08783e-07
1.86209e-08
-1.24756e-07
-1.0565e-07
-7.30287e-08
1.30927e-07
2.26589e-07
-1.86907e-10
-8.85331e-08
-8.68415e-12
8.87286e-08
3.20654e-08
1.10519e-07
-6.38095e-10
1.47894e-07
6.21512e-09
9.57577e-08
5.621e-08
2.695e-09
7.27848e-08
-1.40268e-07
-5.52065e-09
-7.21667e-08
-8.1336e-08
1.44749e-07
8.75424e-09
-8.97298e-08
-4.31854e-09
-4.10756e-09
-5.09984e-08
-1.22146e-07
1.1272e-07
-6.9022e-11
-1.22454e-07
-3.31953e-09
1.19855e-07
-8.89516e-08
-1.3491e-07
9.64723e-08
1.2739e-07
-1.11123e-07
3.85887e-08
7.57287e-08
-3.19476e-09
6.9764e-08
6.95644e-08
-1.32352e-07
-6.97593e-09
-7.07723e-08
-6.82117e-08
1.32711e-07
6.27297e-09
5.1284e-08
4.76296e-08
-1.08873e-07
9.95887e-09
-6.66715e-08
1.11168e-07
-3.61988e-08
-8.29757e-09
1.04857e-07
-1.05291e-07
-2.15464e-10
-9.32591e-08
6.06886e-10
8.12019e-08
1.05051e-07
-2.8027e-08
-1.58226e-07
-3.09028e-08
8.80918e-08
3.80553e-08
-9.52443e-08
-9.71826e-08
1.62425e-11
9.88033e-08
-1.63694e-09
-7.3111e-08
-4.2076e-08
9.42252e-08
1.2312e-07
-3.33264e-09
6.96563e-08
-1.29698e-07
6.51174e-08
-5.07553e-09
-5.69233e-08
3.99258e-08
-1.18016e-07
1.14164e-08
1.30958e-07
-1.05114e-07
-3.64365e-08
8.90318e-08
8.16693e-08
-7.36859e-08
7.32165e-10
-1.21663e-07
-1.06113e-10
3.37112e-08
-2.21092e-08
1.02759e-07
-1.16569e-07
5.61554e-08
5.31875e-08
7.22646e-09
7.32441e-08
-4.90186e-09
3.90701e-08
6.30134e-08
7.4003e-09
8.93689e-09
1.26416e-07
-1.04185e-08
-6.28085e-09
-8.17533e-08
7.98955e-08
1.33442e-07
-7.39612e-08
-1.55855e-07
1.56397e-07
1.63384e-07
5.80131e-08
-5.54256e-08
-1.65971e-07
1.42845e-08
-1.28672e-07
1.38101e-07
-7.80646e-08
-7.12858e-08
1.42646e-07
6.70441e-09
-4.56319e-08
-1.09967e-07
1.87676e-09
6.76613e-08
-6.72752e-09
1.29219e-07
-5.61807e-10
-3.77049e-11
2.21784e-08
-8.54683e-08
9.11562e-08
1.96605e-10
2.13423e-10
-1.34761e-07
-2.48517e-09
8.53735e-08
-8.30093e-08
1.13483e-08
-8.35696e-08
1.42842e-07
-7.06205e-08
-2.77868e-08
-1.34286e-07
1.2042e-09
1.60869e-07
9.25501e-08
-1.78102e-07
6.97515e-08
1.58005e-08
-1.22079e-07
8.97723e-08
-9.71957e-08
9.99723e-08
-6.2365e-10
-9.9006e-08
-3.42611e-10
-4.54124e-08
-1.27867e-07
4.57945e-08
1.27485e-07
-7.23519e-08
-1.22029e-07
1.48066e-07
4.63151e-08
-2.85117e-09
-1.41785e-07
1.42421e-07
2.21608e-09
-1.24742e-07
1.24596e-07
-1.58808e-09
-1.4316e-07
1.26515e-07
-6.36781e-08
1.36815e-07
7.04845e-08
-5.86901e-09
7.63229e-08
-1.36298e-07
-6.34521e-08
-1.25487e-07
8.71729e-08
-1.01717e-07
-1.34779e-08
1.41242e-07
-8.72029e-08
-3.46528e-08
1.2007e-07
-1.18011e-07
-3.36673e-09
1.30779e-09
-9.7175e-08
-2.36781e-09
4.11643e-09
1.74263e-10
-1.49133e-07
1.46108e-07
-9.01016e-08
-4.14134e-10
7.86012e-10
-9.22665e-08
7.75666e-08
1.52481e-08
-5.4816e-10
-5.52012e-08
-1.32425e-07
1.78089e-07
9.53668e-09
1.15132e-07
-5.13969e-10
5.61751e-08
4.78083e-08
-1.1285e-07
8.86683e-09
-1.08533e-07
-5.80078e-10
1.0881e-07
3.03209e-10
-1.05984e-07
1.51161e-08
-2.49693e-08
6.27889e-08
-1.20537e-07
5.08819e-08
6.86655e-09
-4.62863e-09
-9.36584e-08
4.29568e-09
1.44293e-09
-1.3321e-07
1.68556e-09
5.33218e-08
7.41531e-08
-1.11013e-07
2.03797e-08
7.87125e-08
2.05589e-08
1.26779e-07
-1.27339e-07
5.64921e-10
-5.34709e-12
-2.04904e-07
1.93205e-07
8.514e-08
-7.3441e-08
5.65708e-08
-1.45875e-07
1.12074e-07
-2.27697e-08
7.41874e-08
-6.70506e-09
-6.70269e-10
-1.92435e-11
5.75043e-08
-6.0959e-08
-1.15228e-07
1.63821e-07
-1.35716e-07
1.12956e-07
-1.48972e-08
6.6784e-10
-1.50742e-07
1.50096e-07
1.29371e-07
-1.57608e-07
-1.34706e-09
-8.67419e-08
-8.25004e-08
1.62422e-07
6.82026e-09
9.40341e-08
6.01178e-11
-9.41404e-08
4.61284e-11
-1.46799e-07
7.85764e-08
7.28508e-08
-4.6281e-09
-1.98529e-07
1.23113e-07
-1.37701e-07
2.13117e-07
-1.91433e-07
2.51022e-08
-4.54104e-08
-1.1223e-07
-1.62848e-07
9.99231e-08
3.75632e-08
-1.45986e-08
-1.27627e-07
1.39139e-07
3.08712e-09
-3.28584e-09
-1.11092e-07
-9.55201e-09
1.16866e-07
-1.10034e-07
1.13394e-07
-3.53395e-08
1.67819e-07
1.19004e-07
1.39023e-07
-1.28827e-07
-1.22324e-07
4.07332e-10
1.18724e-07
-1.19217e-07
8.5437e-11
1.02612e-07
-1.11086e-07
3.84518e-09
-7.96833e-08
-6.43649e-10
6.94992e-08
1.04448e-07
-4.47278e-08
6.35152e-08
-1.22495e-07
-4.69827e-09
-2.59568e-10
1.15574e-07
-1.15443e-07
1.29009e-10
-1.19462e-07
-2.15775e-10
1.2041e-07
-7.31879e-10
-1.21579e-07
4.45489e-08
-3.38285e-08
-1.18949e-08
9.9967e-08
8.00751e-08
-1.10734e-09
-1.78935e-07
2.9141e-09
-1.24395e-10
-1.72857e-08
8.27746e-08
-1.48412e-07
8.29233e-08
-1.28074e-07
1.29983e-07
6.67112e-08
-6.21494e-09
2.77485e-08
-1.33136e-07
-3.7665e-08
1.43052e-07
4.13156e-08
1.19313e-08
3.50342e-08
-8.82811e-08
7.03087e-08
7.65643e-08
-1.40619e-07
-6.25416e-09
-1.05288e-07
1.03519e-07
1.74394e-09
2.43435e-11
-6.93027e-08
7.33105e-09
5.65947e-08
-5.44821e-08
1.27765e-07
-1.29878e-07
-1.06639e-07
2.25721e-07
-4.69173e-08
-7.21645e-08
8.75822e-08
-7.34494e-08
-7.66504e-08
6.25176e-08
6.95612e-08
-5.71094e-08
-1.38977e-07
5.45968e-08
8.67691e-09
5.92631e-08
8.1885e-08
7.68045e-08
7.86727e-08
-1.49351e-07
-6.12588e-09
1.37405e-07
8.20382e-09
-6.31655e-09
-1.39292e-07
1.04831e-07
8.08109e-10
-3.78425e-10
9.89586e-08
-1.00771e-07
2.34659e-09
-5.34642e-10
-6.71933e-08
-7.91295e-08
1.39381e-07
6.94154e-09
-1.23544e-07
1.53944e-09
4.25882e-10
-1.08848e-07
-3.20117e-11
3.46817e-10
1.15538e-08
1.26275e-07
1.14172e-07
1.98496e-09
-1.02492e-09
1.48727e-10
-1.05578e-07
1.04849e-07
9.9631e-08
1.77116e-08
2.72742e-09
-1.21625e-08
3.70885e-08
-1.23153e-07
9.82265e-08
1.28212e-07
-1.28016e-07
-9.26965e-11
-1.03096e-10
-3.04436e-08
-1.21452e-07
1.76997e-07
-1.21964e-07
-1.96422e-08
1.46796e-07
-5.18974e-09
1.58005e-07
-1.34146e-07
-2.31324e-08
-2.10474e-08
1.31762e-07
1.29327e-07
-1.30227e-07
4.17397e-10
4.82618e-10
1.54079e-07
-4.74738e-08
-1.51569e-07
4.4964e-08
1.27698e-07
-1.27894e-07
1.51305e-07
-1.51109e-07
9.2313e-09
-1.27085e-08
-1.0101e-07
1.04488e-07
2.74159e-08
-1.0548e-07
-4.47412e-08
1.22805e-07
8.89421e-08
8.07841e-08
-1.62547e-07
-7.17916e-09
2.0921e-07
-2.21322e-07
-9.88914e-08
-1.31101e-07
1.05303e-07
-1.33999e-08
1.29281e-08
-1.91002e-07
1.65726e-07
-8.80713e-08
1.37459e-07
-2.33914e-07
1.84526e-07
8.19425e-08
-1.6386e-07
-6.15343e-09
2.09612e-08
9.19835e-08
-1.59046e-08
-9.70401e-08
-1.51388e-09
1.27231e-07
-1.45088e-08
-1.07988e-07
-6.06191e-08
1.57931e-07
-1.10378e-07
1.30655e-08
-2.81718e-08
8.14872e-08
-4.58069e-08
-7.50846e-09
2.96482e-10
-1.02382e-07
1.02497e-07
-4.11942e-10
2.69606e-09
1.28132e-07
-1.2971e-07
-1.11782e-09
-5.88895e-08
-1.29869e-07
1.42649e-07
5.19486e-08
-3.73915e-08
1.40571e-07
4.72793e-09
-4.92477e-08
-4.55786e-08
1.29933e-07
-2.34721e-07
2.35846e-09
-1.56086e-07
1.23404e-07
-7.39574e-08
1.26574e-07
-1.23423e-07
-4.5418e-10
-1.00703e-07
1.55302e-09
-2.31184e-09
1.01461e-07
6.36178e-08
-1.95464e-07
-1.49689e-07
-9.22406e-11
1.29753e-07
-1.29462e-07
-1.98673e-10
-1.19531e-07
-4.22659e-08
1.53322e-07
5.80401e-09
-9.35793e-09
1.13656e-07
-1.01783e-07
-1.16038e-08
1.48533e-07
-1.19766e-07
3.75393e-10
-7.1766e-11
6.60412e-08
-1.56798e-07
8.5128e-08
5.62867e-09
-1.49393e-09
-1.18789e-07
-1.54657e-09
1.30884e-07
6.13601e-09
-1.07944e-07
5.49521e-08
5.11208e-08
1.87161e-09
-1.09308e-07
3.00549e-08
1.48815e-07
-8.00963e-12
1.39365e-07
-6.91409e-10
-1.38665e-07
7.33199e-09
1.22994e-07
-2.61889e-08
-1.04137e-07
1.47464e-07
-1.68165e-07
8.7337e-08
-6.66361e-08
4.68687e-08
1.18017e-07
-5.78666e-08
-6.82852e-09
8.46859e-08
9.57991e-08
-1.69052e-07
-1.39928e-08
-6.77137e-09
1.12227e-07
-1.35302e-07
1.1914e-07
2.96881e-10
-1.19492e-07
5.50404e-11
7.37376e-09
1.03009e-07
-3.83999e-09
8.14211e-08
-2.02424e-07
3.2051e-08
-1.35745e-07
2.27734e-09
-7.66485e-08
-6.52959e-08
1.35058e-07
6.88665e-09
-1.09617e-07
-5.0612e-08
3.3726e-08
1.26503e-07
-1.22207e-07
-6.42517e-10
-6.94636e-10
-7.15966e-08
1.51317e-07
-8.56908e-08
5.97033e-09
7.68408e-08
-1.52357e-07
7.91893e-08
-3.67303e-09
-1.15602e-07
-2.21187e-10
1.0528e-07
-1.08047e-07
4.71434e-09
-1.94753e-09
1.55103e-07
-8.68879e-08
8.6256e-09
-1.17971e-07
1.98956e-08
-1.9936e-08
6.07191e-08
-1.00443e-07
-2.26667e-08
1.28532e-07
-1.27681e-07
-1.83025e-10
6.97775e-08
6.25232e-08
-6.23919e-08
-6.99088e-08
8.18601e-08
1.52536e-07
-1.64632e-07
8.109e-08
6.91372e-08
-1.44934e-07
-5.29342e-09
-1.18943e-07
6.27742e-08
4.87326e-08
7.43614e-09
2.26078e-10
1.2885e-07
2.50875e-10
8.16588e-08
7.62701e-08
-1.52394e-07
-5.53485e-09
1.08715e-07
1.19606e-07
-9.77368e-09
-1.06135e-07
-3.69755e-09
9.79881e-08
6.32378e-11
1.51091e-07
-1.52654e-07
-8.35762e-08
8.51392e-08
5.11913e-08
6.108e-08
7.33449e-09
-6.24831e-09
-2.23503e-07
1.92077e-08
1.38299e-07
-3.64285e-09
6.32642e-09
1.56277e-07
1.34404e-07
-2.27892e-07
-1.26088e-07
1.08428e-09
-1.51805e-09
1.26522e-07
6.90968e-10
1.01845e-07
-1.02388e-07
-1.47277e-10
-8.15524e-08
1.85541e-07
-1.82053e-07
5.32705e-08
1.26226e-07
-6.6455e-08
-1.13042e-07
4.70822e-08
5.99971e-08
-1.14598e-07
7.5183e-09
1.52782e-07
-1.17028e-08
2.13426e-08
-1.36825e-07
-5.62887e-09
4.63287e-08
-1.42679e-07
-1.91058e-08
-9.7234e-08
-1.14394e-07
1.07854e-07
2.06746e-08
-5.1533e-09
-2.08488e-08
9.89546e-08
2.97481e-08
5.26914e-08
-7.98389e-08
-3.40375e-09
1.28271e-07
3.69881e-09
1.39456e-10
4.37524e-10
-2.17294e-07
-1.55338e-08
-4.29197e-10
1.25455e-07
1.50572e-08
-1.326e-07
-1.45634e-08
2.80339e-07
-1.23477e-07
-1.42299e-07
-1.72493e-07
1.40413e-07
1.17561e-07
-1.48754e-07
-6.99488e-08
7.57384e-08
-7.75833e-08
7.17938e-08
1.21242e-07
-1.25582e-07
-3.91525e-09
8.25551e-09
-4.00689e-09
-6.51621e-08
8.13481e-08
-1.88679e-07
-8.21355e-08
6.65248e-08
-1.86995e-08
-1.21062e-07
2.69308e-07
-4.24362e-08
-1.00633e-07
-1.37282e-08
-7.86763e-08
1.58365e-07
2.17157e-09
-3.38734e-08
-7.28319e-08
9.13332e-08
1.5372e-08
4.0649e-08
-1.82513e-07
8.27758e-08
5.90885e-08
-1.09181e-07
1.089e-07
-7.89264e-11
3.59861e-10
9.40373e-08
-1.90104e-10
1.41928e-08
1.28024e-07
1.15486e-07
-7.47873e-09
-8.55448e-08
-1.55145e-07
1.84425e-08
8.22688e-10
1.37343e-07
-9.76331e-08
1.45846e-07
-4.55231e-08
-5.9856e-09
3.137e-09
1.28264e-07
-3.12985e-09
1.07062e-07
4.00275e-08
-1.56385e-07
-3.04416e-08
-1.27592e-07
-1.10702e-07
-8.647e-08
4.46814e-08
-1.13664e-08
1.10953e-07
-8.73033e-09
-9.63817e-08
-1.1085e-07
-3.08782e-09
9.6805e-08
-1.24425e-07
1.00785e-07
-6.65854e-10
-9.95344e-08
-5.84568e-10
-2.62863e-08
-1.5087e-07
-1.80511e-07
1.80223e-07
1.15643e-07
-4.83301e-08
1.11231e-08
-7.84355e-08
1.15231e-07
-6.29216e-10
-1.14524e-07
-7.8035e-11
9.47617e-10
1.04353e-07
-1.0557e-07
2.69629e-10
2.95447e-08
1.21881e-07
-3.72536e-08
-7.92527e-08
-8.36128e-08
1.05085e-08
7.83996e-09
1.11377e-07
-1.152e-07
-4.01677e-09
-1.26993e-07
1.37112e-07
-2.27858e-09
-1.35695e-07
-3.66551e-09
-1.51179e-07
1.53107e-07
-5.66238e-08
-8.65118e-08
1.49335e-07
-6.1998e-09
1.09445e-07
-1.49774e-08
6.72483e-10
-4.77294e-11
4.74819e-08
1.19407e-08
-7.72825e-10
-3.54004e-10
7.64135e-08
8.35121e-08
-5.84631e-09
-3.42328e-08
1.01247e-07
7.98047e-08
-2.84789e-07
-1.42158e-07
2.78349e-07
1.47363e-07
1.34158e-07
-5.64146e-08
-8.59463e-08
6.28816e-09
-6.63412e-10
-1.26324e-07
-3.51152e-10
5.51123e-08
6.37406e-08
-1.17777e-07
-1.07547e-09
-1.16072e-07
1.15905e-07
1.17363e-10
5.02488e-11
1.06577e-07
3.26673e-08
-1.39473e-08
1.56242e-09
1.96146e-07
-4.50321e-09
-5.36468e-08
-8.17683e-08
-3.56162e-09
-8.93138e-08
-2.33746e-08
7.07802e-10
1.08463e-07
-1.08362e-07
7.89105e-08
-1.93348e-07
1.08255e-07
-1.09335e-09
-5.85092e-10
7.06281e-08
6.57871e-08
-1.32447e-07
-3.96792e-09
-1.63009e-07
8.14452e-08
-2.29757e-08
-2.70365e-08
-3.70894e-08
1.28114e-07
-6.39884e-08
-2.97289e-08
7.16032e-08
3.09764e-08
-1.41233e-07
-9.00046e-08
9.48526e-08
1.36385e-07
7.7119e-08
-5.88926e-09
6.53712e-08
1.29726e-07
-5.34651e-08
-1.41632e-07
-3.78312e-09
1.1735e-07
1.50268e-08
-1.28593e-07
1.11809e-07
-9.50448e-08
-2.07793e-08
4.01537e-09
1.42706e-07
-1.92062e-07
1.77488e-07
1.42267e-07
-6.90432e-08
-6.63705e-08
-6.8529e-09
4.23795e-08
-1.69902e-07
-1.21353e-07
-1.21697e-07
2.51644e-11
-1.88487e-07
1.58829e-07
-1.6448e-07
1.94137e-07
8.23449e-08
-1.55762e-07
-2.63092e-08
1.20098e-07
-1.19066e-07
-4.74985e-10
-5.57291e-10
6.05542e-08
-1.20424e-07
-5.29202e-09
-6.5482e-09
8.17274e-08
-1.76889e-07
7.87995e-08
-1.36236e-07
-6.88598e-11
2.4828e-10
1.36057e-07
-1.3864e-07
1.39261e-07
-1.33966e-07
-8.59687e-08
-2.80787e-08
-7.21102e-09
5.97453e-08
6.96885e-08
-6.03018e-09
-5.29048e-08
-6.02358e-08
-5.80239e-09
-3.68407e-09
-1.03906e-07
-1.01164e-07
-1.04156e-09
-5.73892e-09
6.97737e-08
-6.93869e-08
6.81804e-10
-1.06859e-09
1.07393e-07
-1.05273e-07
-1.38886e-09
-7.31693e-10
-1.07452e-09
1.27598e-07
-1.26393e-07
-1.29987e-10
-1.32584e-07
1.42049e-08
1.12646e-07
5.73279e-09
1.27389e-07
-1.21058e-07
-4.39823e-09
-1.93289e-09
-1.07681e-07
-1.15566e-09
1.095e-07
-6.63843e-10
-1.04031e-07
-6.35195e-08
9.69082e-08
3.40355e-08
-9.44682e-09
-1.21497e-07
7.59163e-08
-8.05976e-08
3.83878e-09
8.42504e-10
4.51751e-08
3.72875e-08
-1.27875e-07
1.09596e-07
-1.06639e-07
-7.35098e-09
4.39349e-09
-5.08599e-08
5.12832e-08
1.52707e-07
5.44534e-09
1.28524e-07
-9.60701e-08
1.20947e-08
-2.76e-08
-1.17597e-08
-1.01873e-07
-3.14203e-08
1.97124e-07
6.1036e-09
-1.71798e-07
1.30195e-07
-3.34813e-08
-1.94009e-08
2.10073e-08
-8.00499e-08
5.92266e-09
-1.25249e-07
1.2505e-07
5.83632e-08
-7.03069e-08
-3.01324e-08
7.73867e-08
2.16699e-09
6.22375e-08
5.60523e-08
-7.69742e-08
-8.2976e-08
1.1456e-07
-1.26455e-08
-7.0457e-08
5.87494e-09
9.41386e-08
1.13331e-08
2.24274e-08
2.46651e-08
-1.05904e-08
5.14273e-08
5.96553e-08
6.93434e-09
-4.92339e-08
1.61055e-07
-1.67022e-07
-1.74851e-07
8.68393e-08
2.21068e-07
-1.48847e-07
1.06297e-07
-3.22351e-08
6.10027e-08
-1.35065e-07
-1.23587e-07
-4.25516e-08
-1.4457e-07
-5.70333e-09
-1.01593e-07
8.02936e-08
-8.84074e-08
1.09707e-07
8.42185e-09
-1.19573e-07
-1.41267e-07
-7.53079e-09
-3.85586e-09
-1.27514e-07
1.15426e-07
1.23897e-07
1.95415e-08
1.02836e-07
2.09961e-09
-1.3285e-07
1.22774e-07
-8.54688e-08
9.5545e-08
-1.01583e-07
1.32022e-08
-2.04672e-08
-3.46092e-08
-2.36983e-09
9.52783e-08
-4.77152e-08
-1.121e-07
-4.34344e-08
1.2293e-08
-7.08763e-08
-8.51301e-08
7.65588e-09
-6.98629e-08
8.02799e-08
8.0209e-08
2.34394e-08
4.24924e-08
-1.46141e-07
5.97573e-08
2.22021e-08
-7.29315e-08
-2.2393e-09
-8.00821e-08
-8.99226e-08
6.99554e-09
6.24081e-08
-7.2543e-08
-4.79333e-08
5.80682e-08
-4.91215e-08
-9.00781e-09
1.46773e-07
-1.85287e-07
3.90722e-08
-5.583e-10
-8.22318e-09
2.72552e-08
7.9167e-08
-9.8199e-08
5.21921e-10
-9.37805e-08
-8.51865e-10
9.41105e-08
-1.00702e-07
1.00317e-07
1.71996e-10
2.12362e-10
1.30132e-07
-7.15013e-08
-1.31881e-07
-6.10601e-08
-3.81168e-08
1.00879e-07
-1.70192e-09
1.53591e-07
1.16512e-08
-1.16137e-07
5.90519e-09
-1.39546e-07
1.65952e-08
-5.78245e-10
-1.46904e-07
-1.14107e-07
1.14359e-07
-3.20216e-10
9.62616e-08
6.04758e-08
-1.41707e-07
-1.30728e-08
-1.47611e-08
2.25721e-07
-8.37598e-10
-8.95748e-08
-1.33647e-09
9.74685e-08
-9.65078e-08
7.63941e-11
-2.91453e-09
1.23557e-08
2.6339e-08
1.22001e-07
-2.445e-08
1.15662e-07
-8.99247e-09
-3.25748e-09
1.27464e-07
-1.22773e-07
-1.43414e-09
-1.03473e-07
1.10581e-07
-5.73468e-09
1.21436e-07
5.49716e-09
-3.16206e-08
-9.53122e-08
1.18326e-07
1.68908e-09
-1.17933e-07
-2.0823e-09
-7.05947e-08
-5.36841e-08
7.0632e-08
8.92125e-08
1.52249e-09
1.56542e-07
1.93338e-08
-3.58895e-08
-1.45223e-08
3.74284e-09
-7.77535e-08
1.22111e-07
-1.71866e-07