/*--------------------------------*- C++ -*----------------------------------*\
| =========                 |                                                 |
| \\      /  F ield         | OpenFOAM: The Open Source CFD Toolbox           |
|  \\    /   O peration     | Version:  2212                                  |
|   \\  /    A nd           | Website:  www.openfoam.com                      |
|    \\/     M anipulation  |                                                 |
\*---------------------------------------------------------------------------*/
FoamFile
{
    version     2.0;
    format      ascii;
    arch        "LSB;label=32;scalar=64";
    class       volVectorField;
    location    "0.034";
    object      U;
}
// * * * * * * * * * * * * * * * * * * * * * * * * * * * * * * * * * * * * * //

dimensions      [0 1 -1 0 0 0 0];

internalField   nonuniform List<vector> 
31639
(
(0.120457 0.000657 -0.000537871)
(0.117834 -0.000381257 -7.70634e-06)
(0.119534 -0.000248269 0.000802707)
(0.122468 3.4973e-05 -0.00019018)
(0.119094 -0.000725848 -0.00030109)
(0.118437 -2.83357e-05 -4.67275e-05)
(0.11727 2.98842e-05 -0.000314742)
(0.119919 -7.66816e-05 -7.87931e-05)
(0.119791 0.000159274 -0.000230689)
(0.120924 -0.000381099 -0.000500244)
(0.121468 0.000476383 -0.000120322)
(0.120665 -0.000543147 -0.000750661)
(0.118473 -0.000374911 -3.23237e-06)
(0.120738 1.77905e-05 0.000131615)
(0.117045 -0.000369786 3.46007e-05)
(0.117601 -0.000388872 0.000718915)
(0.119293 0.000317747 0.000154301)
(0.116904 4.25245e-05 0.000390919)
(0.117879 9.79623e-05 -0.000404723)
(0.119045 -9.44174e-05 -0.000120689)
(0.113025 -0.000249176 -0.000412473)
(0.121342 -0.000277712 -0.000564879)
(0.121128 0.000687753 -0.000193733)
(0.117918 0.000150323 -0.000220471)
(0.116521 -0.000133399 -0.000106403)
(0.119617 -0.000140351 7.51994e-05)
(0.11898 2.53314e-05 -9.93406e-05)
(0.121499 0.00065743 -0.000108344)
(0.117301 0.000402878 0.000618813)
(0.120896 -2.94455e-05 0.000515733)
(0.121415 -0.000144722 -0.00010426)
(0.116827 -8.32281e-05 -0.000149808)
(0.121269 0.000306834 -0.000496252)
(0.117812 -0.000167327 -8.46392e-05)
(0.114487 4.7563e-05 0.000153925)
(0.121397 0.000454214 2.70353e-05)
(0.111941 -0.000304134 -7.3984e-05)
(0.122136 -0.000468937 0.00032693)
(0.121156 -0.000340419 0.000275055)
(0.111878 4.73969e-05 -8.89958e-05)
(0.115413 -7.35317e-05 -0.000343617)
(0.114 -0.00040234 0.000119622)
(0.120502 0.000141734 -6.43333e-05)
(0.121793 -0.000787272 -0.000842246)
(0.120532 -0.000583444 0.000703898)
(0.121933 -0.000784536 -0.000399693)
(0.116067 0.000266681 -0.000280304)
(0.118749 0.000447018 -0.000381458)
(0.118943 -7.48848e-05 0.000198461)
(0.122009 -0.000399848 -0.000280578)
(0.121615 -0.000164342 -0.000456296)
(0.113352 0.000179017 -0.000213283)
(0.121143 0.000545512 0.000201914)
(0.112515 -0.000225452 0.000326231)
(0.11917 -0.000339697 -0.000175629)
(0.118821 0.000134899 0.000109332)
(0.11384 -5.38161e-05 -0.000639853)
(0.118955 8.26654e-05 0.000329162)
(0.118551 8.45239e-05 0.000349728)
(0.114492 0.000206509 -0.000170689)
(0.120156 -0.00016507 -0.000437442)
(0.120649 0.000348751 -0.000160817)
(0.116877 -0.000210536 -0.000351795)
(0.118575 -1.15685e-05 -0.000156836)
(0.119723 0.000383407 0.000104352)
(0.122073 -0.000223262 -0.000528562)
(0.119605 0.000141301 -0.000965384)
(0.118753 -0.000296521 0.00010792)
(0.115427 -2.23448e-05 -0.000367832)
(0.122044 0.000309293 -0.000189993)
(0.120306 0.000108869 -0.000206165)
(0.115701 0.000188006 -0.00114253)
(0.120634 -0.000386938 -0.000784381)
(0.119146 -0.00014677 -0.000195293)
(0.120101 0.000500864 9.09428e-06)
(0.112858 0.000262808 -0.000655227)
(0.121553 -0.000651544 0.000235348)
(0.118243 0.000261072 -0.000610002)
(0.117934 -0.000178695 0.000345255)
(0.120355 0.000279453 -6.16511e-05)
(0.116853 1.68869e-05 0.000130731)
(0.110561 -0.000169276 5.32898e-05)
(0.121524 -0.000290981 0.000147348)
(0.119456 -0.000244861 -0.000233772)
(0.119401 -6.21126e-05 -0.000137489)
(0.121449 -0.000350968 -0.000256041)
(0.122105 1.9843e-05 0.000131557)
(0.121753 -0.000196234 -0.00040639)
(0.113675 0.000891653 -0.00139498)
(0.120906 -0.000275174 -0.000452658)
(0.119549 -0.000318528 0.000275876)
(0.118028 -0.000438731 -0.000109722)
(0.114687 -0.000496199 -0.000362431)
(0.117146 0.000494205 -0.000768531)
(0.116909 -0.000750909 -0.000360491)
(0.117687 0.000929165 0.000336135)
(0.119253 0.000209926 -0.000433004)
(0.119092 -0.000144075 0.00015693)
(0.118522 0.000159118 0.000219315)
(0.113917 -0.000925778 -6.92301e-05)
(0.120038 0.000136444 -8.08578e-05)
(0.119948 0.000305754 0.000669635)
(0.117293 -0.00026622 -0.00017661)
(0.113125 7.60112e-05 -0.000179936)
(0.114359 -4.82505e-05 -0.000345517)
(0.121995 -0.000572145 -0.00026762)
(0.11262 0.00036487 -0.000406207)
(0.113683 -0.000796936 -0.000821845)
(0.115944 0.000421941 1.23263e-06)
(0.112244 -0.000174671 0.000598403)
(0.120116 -0.00109328 0.000256425)
(0.114772 -7.52478e-05 -0.000265961)
(0.11845 -1.08997e-05 -0.000247603)
(0.117921 -0.0006224 -0.000638941)
(0.118857 0.000164773 -0.000725679)
(0.112947 -0.000483663 0.000265434)
(0.117979 0.000543779 -1.798e-06)
(0.117458 -0.000640222 -0.000129391)
(0.119943 6.88005e-05 1.58402e-05)
(0.118344 -0.000310373 8.69146e-05)
(0.119586 -0.000437333 -9.28266e-05)
(0.120633 -0.00050402 0.000367453)
(0.12125 5.0611e-05 -0.00060309)
(0.120118 0.00031705 -0.00070581)
(0.119943 -0.000152865 -0.00080272)
(0.120856 -0.000340658 0.000126136)
(0.118257 -3.12195e-05 0.000303816)
(0.116878 0.000164676 -0.000262746)
(0.116639 -0.000578869 -0.000294942)
(0.120836 -0.000250897 0.000129529)
(0.120458 8.11056e-05 -0.000271074)
(0.121086 0.000192332 -0.000446516)
(0.120366 -0.000474754 -1.10044e-06)
(0.119028 -0.000154428 6.92327e-05)
(0.121122 -0.000133532 -0.000149247)
(0.119145 -0.000109123 7.62071e-06)
(0.114537 -0.000146912 -0.000321144)
(0.113689 -0.000694491 -0.000409302)
(0.121333 0.000393827 0.000557539)
(0.118734 -0.000426407 -0.00042576)
(0.118436 -0.000143016 -0.000379225)
(0.121801 0.000267747 0.0010083)
(0.121011 0.000476686 0.00025405)
(0.113133 -0.000327575 -0.000460543)
(0.113519 -0.000112068 -0.000654578)
(0.120701 -0.000202803 -2.42101e-06)
(0.120507 -0.000180528 -0.00029723)
(0.114152 -0.000233651 -0.000432925)
(0.114703 -9.46555e-05 0.000131583)
(0.121025 -0.000384503 3.06925e-05)
(0.116626 -9.39914e-05 -0.00110894)
(0.11815 2.41636e-05 0.000226021)
(0.118558 -0.000303629 -0.000797108)
(0.120801 -0.000164542 4.08013e-05)
(0.114917 0.00063375 -0.00113434)
(0.12243 1.14647e-06 5.1483e-05)
(0.120016 -0.000250508 -0.000260878)
(0.115474 -0.00120783 -0.000167421)
(0.114071 -0.000720568 0.000915542)
(0.117639 -0.000379663 -0.000218541)
(0.121842 -0.000136248 -0.000447091)
(0.113042 0.000231503 0.000134864)
(0.114755 0.000114842 -0.00108283)
(0.113779 -0.000389143 0.000145641)
(0.113199 -0.00115382 0.000118834)
(0.11712 0.000152942 -0.000183292)
(0.113863 0.000398435 0.000116387)
(0.121401 -0.000666199 0.000207631)
(0.121488 -0.000443653 0.000237649)
(0.113875 0.000218346 -0.000711467)
(0.114716 -0.000679211 0.000412437)
(0.118019 0.000616 -0.00061025)
(0.114367 -9.66364e-05 -6.94947e-05)
(0.119146 -8.10758e-05 0.000465409)
(0.122016 -0.000242103 -0.000270856)
(0.120283 -0.000605237 -0.000424585)
(0.118858 0.000615077 0.000218169)
(0.120824 0.000277831 0.000430979)
(0.119409 -0.000465548 -7.2584e-05)
(0.117833 -0.000339502 -0.000197474)
(0.118142 0.000135062 -9.38375e-05)
(0.117894 -0.00057139 0.000712673)
(0.117315 4.58021e-05 0.000213353)
(0.112124 0.00104361 -0.000553094)
(0.119402 -9.94533e-05 0.000119178)
(0.121521 0.000316347 -0.000271716)
(0.117309 1.18974e-05 0.00053586)
(0.121044 0.000248062 -5.01922e-05)
(0.114574 -0.00024365 7.46631e-05)
(0.112665 -0.000170508 0.000363803)
(0.121936 -0.000237469 -9.04341e-05)
(0.120798 -0.000237294 -0.000274597)
(0.118914 -0.000314704 0.000541931)
(0.11834 -0.000108227 0.000250033)
(0.118794 -9.27635e-05 -0.000357349)
(0.11878 -0.00011253 -0.00062535)
(0.118526 0.000535118 0.000433955)
(0.1207 0.000333418 -0.000454128)
(0.114379 -0.000116995 -0.000283118)
(0.117675 0.000166716 -0.000190084)
(0.121717 8.94591e-05 0.000140916)
(0.120704 -0.00030665 -5.27686e-05)
(0.119797 -0.000403954 9.74997e-05)
(0.118788 -0.00141977 -0.000486598)
(0.118966 -0.000565195 -0.000447771)
(0.117736 -1.58074e-05 -0.000363827)
(0.118635 -0.000173287 -0.000446302)
(0.117395 0.000554557 -0.000532709)
(0.120751 6.20566e-05 -0.000455232)
(0.113062 -0.000179653 -2.58421e-05)
(0.118706 -5.89418e-05 -0.000117579)
(0.118124 0.000473254 -1.77545e-05)
(0.119279 1.61296e-05 -0.000449795)
(0.121044 -8.51563e-05 -0.000495842)
(0.120443 -0.00047882 -0.000398961)
(0.121382 -0.000134261 -0.000291536)
(0.114534 -0.00106136 -0.000384428)
(0.116734 -0.00050843 0.000455715)
(0.120705 -0.000358814 -0.000265678)
(0.121481 -0.000161115 0.000241239)
(0.120505 5.21751e-05 0.000259675)
(0.118738 -0.000379641 -0.000527726)
(0.111536 -0.000215291 0.000643832)
(0.118601 -0.000588217 0.000483406)
(0.113771 -0.000519701 -0.000308095)
(0.116947 0.000400093 4.83e-05)
(0.120754 -0.000436938 0.000524477)
(0.11682 0.000190883 0.000419495)
(0.113275 0.000394018 -0.00025397)
(0.11908 0.000136541 0.000249273)
(0.120077 0.000390987 -0.00021376)
(0.12168 -0.000312935 -6.31443e-05)
(0.113662 -0.000286652 -3.25585e-05)
(0.112852 -0.000681952 0.00019017)
(0.11948 -0.00037016 0.000305403)
(0.120937 6.12582e-05 -0.000638166)
(0.11409 5.26358e-05 0.000449196)
(0.12106 -0.000758124 0.000258411)
(0.116345 5.09166e-05 -0.000465343)
(0.114589 -0.000407703 0.000155215)
(0.118196 0.000216135 -0.000338017)
(0.119885 -0.000284729 2.56881e-05)
(0.11731 -0.000981235 -3.09846e-05)
(0.116205 0.000227717 0.000891453)
(0.117158 0.000269719 0.00033206)
(0.118889 -0.000175598 -0.000121099)
(0.117681 0.000520101 -0.000441217)
(0.116523 0.000398036 -0.000949113)
(0.113172 -0.00047604 0.000492772)
(0.117849 0.000340507 -0.000539625)
(0.118188 0.000148377 -0.000668833)
(0.115489 -0.00017296 -2.02875e-05)
(0.116977 -0.00107435 0.000260196)
(0.121118 5.94277e-05 -0.000159996)
(0.12142 0.000608836 0.000108473)
(0.118875 0.000509094 -0.00010874)
(0.114475 0.000130052 -5.37808e-05)
(0.121029 0.000263187 -0.000196925)
(0.12042 0.000364067 -0.000525686)
(0.1186 -0.000391033 -0.000350822)
(0.122186 0.000146797 0.000797063)
(0.121768 0.000113398 -0.000379736)
(0.120041 0.000223746 -0.000451588)
(0.121577 1.99268e-06 0.000102646)
(0.117352 0.000427119 0.000107577)
(0.118618 -0.000285071 -0.000654863)
(0.113068 0.000323688 -0.00153732)
(0.116925 -9.51576e-05 -0.000202896)
(0.120868 -0.000885075 0.000238486)
(0.1172 5.80287e-05 0.000346232)
(0.120707 0.000312986 -9.78027e-05)
(0.118201 0.00047405 -0.000684978)
(0.119176 -0.00019512 4.79616e-05)
(0.120008 0.00020403 0.000367851)
(0.121869 -1.68027e-05 -0.000670803)
(0.119177 0.000609478 0.00017141)
(0.113882 0.000243898 -9.46994e-06)
(0.117919 0.000140923 0.000160649)
(0.115219 0.00153339 -0.000367347)
(0.121476 -0.000230895 -0.000905931)
(0.118038 -0.000590183 -0.000286842)
(0.120767 2.5144e-05 -0.000419667)
(0.119261 0.000109949 -0.000253854)
(0.117025 -0.000119869 -0.000473491)
(0.113202 -2.71056e-05 1.22915e-05)
(0.114942 0.000128042 -0.000575038)
(0.114376 0.000276972 0.00022468)
(0.112948 -0.000317407 0.00011377)
(0.121779 -0.000381967 -0.000389964)
(0.113616 -0.000441156 -0.000551437)
(0.119738 -0.000400902 0.00020774)
(0.119152 0.000559588 -0.000275182)
(0.117961 2.76166e-05 -0.000229029)
(0.114771 -0.000172497 -0.000211003)
(0.121346 -0.00076988 5.40106e-06)
(0.118217 9.61803e-05 -0.000732144)
(0.116214 0.000103168 0.000630281)
(0.121077 0.000197682 -0.000451094)
(0.119623 -0.0001453 -8.79049e-05)
(0.115031 0.000454017 0.000421798)
(0.117442 0.000105862 -6.97311e-05)
(0.114265 0.000203826 -4.81769e-05)
(0.118995 0.000314761 -0.000316629)
(0.117884 0.000289535 -0.000167168)
(0.114737 0.00039781 0.000842225)
(0.118604 -6.43992e-05 -0.000218216)
(0.117544 0.00101231 0.000411609)
(0.112037 0.000122932 -0.00115586)
(0.112031 0.000344067 0.000290869)
(0.120313 -0.000545619 0.000227728)
(0.12143 0.000141647 -4.23451e-05)
(0.121898 0.000197364 -0.000131339)
(0.113431 0.000256266 0.000144515)
(0.114951 -2.23244e-05 0.000417345)
(0.120684 0.000258077 0.000322622)
(0.116156 -0.000224818 -0.00025945)
(0.11594 0.000634883 -0.00080458)
(0.120604 0.000308456 0.000382225)
(0.121146 -0.000471 -7.81931e-05)
(0.11778 -0.000761956 0.000115425)
(0.120952 -0.00088575 -0.000295454)
(0.121968 4.21488e-05 -0.000231761)
(0.114098 -0.000149671 -0.000237004)
(0.12196 -0.000968506 -0.000385069)
(0.112068 0.000285718 -0.000165709)
(0.113164 -5.25681e-05 -6.66874e-05)
(0.121423 -0.000433259 -0.000251373)
(0.120686 -0.000527783 -0.000131761)
(0.121767 0.000156529 -0.000678675)
(0.121936 0.000482256 -0.000963766)
(0.120649 -0.000110944 -0.000724092)
(0.115237 0.00111969 -0.000567372)
(0.116827 -0.00093266 0.000688766)
(0.118005 -3.08179e-05 -0.000206137)
(0.120019 -0.000910007 9.70596e-05)
(0.121441 0.000893041 0.000728861)
(0.121762 -0.000724123 0.000277931)
(0.118407 0.00016818 -0.000240428)
(0.11642 -0.000944334 0.000481319)
(0.118229 -0.000118303 -5.79638e-05)
(0.121032 -2.47582e-05 -0.000180023)
(0.120379 -3.76516e-05 -0.000953164)
(0.117118 0.000118825 -0.000248046)
(0.119443 -0.000257991 -5.93313e-05)
(0.117978 0.000607744 -0.000555754)
(0.117832 -0.000357281 -0.000327716)
(0.120088 -0.000307561 0.00015814)
(0.116789 -0.000935254 0.000820679)
(0.114241 -0.000162097 1.545e-05)
(0.118849 0.000711024 -0.000646499)
(0.120258 3.03544e-05 0.000103259)
(0.117396 0.000105686 -0.000181857)
(0.120099 0.000378923 0.00027976)
(0.120945 -0.000602397 0.000226964)
(0.118981 0.000142275 -0.000341109)
(0.115083 0.000301919 -0.000442868)
(0.118247 0.000392918 -0.000399893)
(0.117418 0.000385568 0.000372235)
(0.113182 0.000257429 -0.000453276)
(0.120614 -0.00086677 0.000220629)
(0.113145 0.000505967 0.000433352)
(0.119876 -8.69341e-05 -0.000487953)
(0.121585 -0.000846306 -0.000171198)
(0.113964 -0.000284439 0.000165146)
(0.11883 0.0002936 2.01071e-05)
(0.117665 0.000366069 0.000463696)
(0.113642 -0.000221358 8.72766e-05)
(0.119564 -0.000144597 -0.000132929)
(0.115068 2.51526e-05 -0.00017997)
(0.118157 -7.29927e-05 0.000609281)
(0.121122 0.000477457 0.000108249)
(0.119731 0.000109756 0.000183753)
(0.112864 0.000328431 -9.13628e-05)
(0.120063 0.000224404 1.84449e-05)
(0.114884 0.000143212 -0.000389059)
(0.120027 -0.000122693 -2.45185e-05)
(0.120197 0.000298317 6.5973e-05)
(0.120601 -0.000281095 -0.000481413)
(0.121267 -0.000246891 -0.00045778)
(0.113905 -9.52072e-05 -0.00054357)
(0.120306 -0.000942411 0.000157714)
(0.113248 3.76832e-06 -0.000509546)
(0.117758 3.14695e-05 -0.000417006)
(0.114011 0.000121536 -0.000305399)
(0.122133 8.92881e-06 -0.000410445)
(0.121269 0.000125023 -0.000426621)
(0.121974 -4.21929e-05 3.02284e-05)
(0.121505 -0.000366029 -0.000516012)
(0.119018 -6.40373e-05 -0.000450748)
(0.120581 -8.67166e-05 0.000217695)
(0.118149 0.000238246 -4.25519e-05)
(0.119155 0.000174442 -0.000250718)
(0.118567 0.000121402 -0.000362426)
(0.114831 6.83311e-05 9.59661e-05)
(0.12031 -7.76464e-05 -0.000372061)
(0.118774 -0.000321934 -0.000135192)
(0.119002 -0.000256773 -0.000250964)
(0.120892 9.24994e-05 9.87814e-05)
(0.120456 -1.519e-05 -0.000520257)
(0.120687 5.15611e-05 0.000168605)
(0.118009 -0.000678003 0.000120463)
(0.113211 -0.000104172 0.000679463)
(0.117874 0.000245483 0.000255266)
(0.120181 0.000136628 0.000284563)
(0.119621 -0.000297444 0.000134024)
(0.113948 -0.000550304 -0.000457654)
(0.121357 5.38405e-05 -0.000335219)
(0.121098 -0.000114866 -0.000756388)
(0.117218 0.000218486 -0.000496278)
(0.120199 -0.000351603 -0.000496332)
(0.120591 -0.000214439 -0.00104857)
(0.120054 -0.000286026 -0.00060178)
(0.120381 -0.000327806 -7.79926e-05)
(0.11354 -0.000214674 -0.000116484)
(0.119631 -0.000337605 8.9443e-05)
(0.12026 -0.000430864 0.000266642)
(0.111959 0.00014504 -6.63561e-05)
(0.119184 -0.00070896 2.81921e-05)
(0.119731 -0.000301538 -0.000209458)
(0.116186 0.000149393 0.000195295)
(0.112948 -0.000159148 9.45868e-05)
(0.112919 -0.000220218 0.000638368)
(0.117665 -0.000849506 0.000155482)
(0.112558 0.00037744 -0.000329509)
(0.118203 5.59849e-06 0.000192992)
(0.119083 -0.000139137 8.73756e-06)
(0.116437 0.000552427 0.000313602)
(0.120149 0.000566224 -3.68404e-05)
(0.113917 -0.000142429 0.000184081)
(0.119948 0.000398447 9.87991e-05)
(0.122107 0.000212092 1.35861e-05)
(0.118238 -0.000171895 9.64805e-05)
(0.119911 -0.000101231 0.000535229)
(0.117799 2.39601e-05 1.15564e-05)
(0.121382 0.000773362 -0.000158722)
(0.11934 0.000441742 -2.53026e-05)
(0.11916 -0.000128968 -0.000575252)
(0.122201 2.03732e-05 -0.000444108)
(0.118769 6.40267e-05 -0.000351517)
(0.113858 6.0971e-06 0.00019623)
(0.118394 -4.47248e-06 -0.000189317)
(0.121825 0.000259875 -0.000973743)
(0.121071 0.000284941 -0.000595036)
(0.120314 -9.81766e-05 0.000565164)
(0.121219 0.000136465 -2.92281e-05)
(0.118552 -0.000649168 0.000470466)
(0.120344 -0.000235577 0.00015552)
(0.11951 0.000120241 0.000296478)
(0.120678 0.000161163 -0.000243929)
(0.121018 -0.000522483 -0.000337258)
(0.112796 -0.000439893 -0.000246295)
(0.117908 -0.000369411 0.000197906)
(0.111682 -0.000220208 0.000162179)
(0.117696 0.00039536 0.000661585)
(0.117251 -5.54914e-05 -0.000592344)
(0.113785 -0.000414351 0.000627121)
(0.112871 -0.000441604 -0.000410028)
(0.118525 0.000334748 -0.000246384)
(0.119637 -0.000362608 -0.000119089)
(0.120988 3.867e-05 -0.000589895)
(0.114056 -8.73799e-05 0.000483023)
(0.119874 -0.000208965 0.000114437)
(0.11802 -8.58227e-05 0.000171594)
(0.118482 -0.000155492 -0.000493012)
(0.119542 4.99767e-05 -0.000548336)
(0.113719 0.000691296 0.00206337)
(0.118486 -2.84555e-05 -0.000534262)
(0.113565 0.000116749 0.000350645)
(0.117071 -0.000350564 -0.000353128)
(0.120479 -0.000196793 1.16033e-05)
(0.122369 0.0012327 0.000409467)
(0.120921 0.000200128 -0.000917019)
(0.119102 0.000612123 -0.00062583)
(0.112536 0.000194711 0.000997792)
(0.11997 -0.000234091 8.918e-05)
(0.119551 -1.41681e-05 -0.000387734)
(0.120691 -0.000221351 -0.000377254)
(0.112979 5.48484e-05 6.28659e-06)
(0.115203 -0.00014331 0.000367563)
(0.117584 0.000409596 0.000481952)
(0.114986 0.000401718 -0.000266274)
(0.112402 -0.000489057 -0.000106363)
(0.120415 -2.57497e-05 -0.000358549)
(0.114669 -6.1017e-05 -6.34415e-06)
(0.117085 0.000791231 0.000215571)
(0.113829 -0.000491401 -0.000859434)
(0.120103 0.000277604 5.14118e-05)
(0.114416 6.27225e-05 -0.000249497)
(0.12145 -0.00010654 0.000504651)
(0.120398 0.000176647 -0.000379876)
(0.121614 -0.000111018 0.000501884)
(0.121719 -0.00010168 -0.000370491)
(0.114381 -1.20016e-05 0.000185895)
(0.120904 0.000146667 0.00023216)
(0.121818 -0.000132648 -0.000163006)
(0.119067 -0.000378544 0.000281009)
(0.120112 0.00051617 -0.000167299)
(0.119508 -0.000430646 -0.000251126)
(0.121348 0.00038204 -7.57356e-05)
(0.120641 8.74925e-05 0.000544411)
(0.116528 7.82579e-05 -0.000415427)
(0.122452 -0.000122797 -0.00010809)
(0.121942 -0.000237644 -1.78436e-05)
(0.118943 -0.000172831 -7.09195e-05)
(0.117739 -0.000329268 -0.000775031)
(0.121245 -0.000404737 -0.000234734)
(0.119134 0.000237968 -3.71626e-05)
(0.112251 0.000612155 -0.000268792)
(0.112301 0.000392276 -6.56904e-05)
(0.118454 2.53383e-05 0.000158224)
(0.120801 4.63818e-05 0.000122151)
(0.121928 -0.000178699 -0.000215805)
(0.116641 -0.00025797 -8.17341e-05)
(0.120902 0.00040712 0.000242752)
(0.119903 -0.000122659 0.000321081)
(0.121443 0.00101964 0.000860941)
(0.118787 -3.11538e-05 -4.73257e-05)
(0.118274 0.000467888 -0.000349364)
(0.119319 -0.00158113 0.000820218)
(0.113606 -3.34701e-05 -0.000198542)
(0.117961 0.000107459 9.34216e-05)
(0.119357 2.20794e-05 -0.000175219)
(0.121311 3.85501e-05 -6.07734e-05)
(0.114937 -0.000290168 6.0595e-05)
(0.115446 0.000525149 -0.000546171)
(0.116399 -8.43052e-05 -0.000344672)
(0.116258 -0.000400026 -9.80252e-05)
(0.118501 -0.0001281 -0.000524262)
(0.11326 -8.38828e-05 -0.000438118)
(0.120692 0.000308661 -0.000783971)
(0.117311 0.000115977 -0.000241309)
(0.11988 6.83942e-05 0.000909426)
(0.117829 -0.000226771 -0.00010158)
(0.12194 -0.000237843 -0.000289363)
(0.11879 -0.000123137 -0.00077723)
(0.113297 0.000171097 0.000548059)
(0.119295 0.000826361 0.000125025)
(0.12202 -0.000158011 -0.000896466)
(0.114131 0.000322163 0.001031)
(0.120828 -6.31715e-05 -0.000711845)
(0.122424 -0.00104704 -0.00047697)
(0.118998 -0.000312879 3.73446e-05)
(0.117746 0.000253146 0.000104024)
(0.122078 -0.000194402 -0.000725231)
(0.116434 -1.99429e-06 -8.5151e-05)
(0.118706 -0.000393439 -1.48535e-05)
(0.118452 0.000184756 0.000201051)
(0.114341 -3.23535e-05 4.01615e-05)
(0.114688 -0.000104659 -0.00115296)
(0.117732 0.000220742 0.000349604)
(0.116571 0.000558259 0.000148046)
(0.120464 -8.59881e-05 -0.000295809)
(0.116196 -0.000367621 0.000306027)
(0.117624 0.000383558 0.000449768)
(0.121652 0.000136754 0.000303155)
(0.11784 0.000196818 -2.18949e-05)
(0.112798 0.000218662 0.000253837)
(0.11644 0.000233467 6.31691e-05)
(0.118858 0.000382808 -0.000214115)
(0.121887 -0.000179942 0.000193832)
(0.113196 0.000677953 0.000441695)
(0.113131 -7.78388e-05 0.000248467)
(0.121844 0.000242085 0.000838704)
(0.113362 0.000223408 6.50682e-05)
(0.119599 -8.0487e-05 -0.000101652)
(0.120566 0.000198022 -0.000237931)
(0.114704 -0.000154681 -0.000782406)
(0.118907 0.000243527 -0.000189522)
(0.121362 0.000382986 -0.00044116)
(0.118449 3.78142e-05 0.000640013)
(0.111842 2.48561e-05 0.000166713)
(0.121284 0.000137648 -6.93097e-05)
(0.118458 -5.91844e-05 -0.000352945)
(0.11256 0.000495415 -1.61357e-05)
(0.121475 0.000197981 -0.000146439)
(0.117431 -0.000132145 -0.000167305)
(0.117525 0.000444358 -0.000371635)
(0.120112 -0.000217194 5.47087e-06)
(0.112801 0.00079284 -0.00042858)
(0.117305 -2.4029e-05 -0.000954178)
(0.117028 -0.000510903 3.54786e-05)
(0.118389 8.56835e-05 -0.000452392)
(0.114579 -9.57298e-05 0.000414687)
(0.116242 -4.42809e-05 -5.5593e-05)
(0.120365 0.000490218 0.000317235)
(0.122421 -0.000705747 -0.00065923)
(0.122873 -0.000342186 0.000191665)
(0.121693 0.000300205 -0.000201105)
(0.121424 -0.000544984 -0.000193496)
(0.12016 0.000132191 -0.00122026)
(0.115879 -0.000219086 0.000338404)
(0.122438 0.000180308 -0.000912667)
(0.120373 -0.00010056 -9.52265e-05)
(0.119981 0.000634445 0.000223804)
(0.11486 0.000842244 -0.000273499)
(0.119148 -0.000169073 -0.000226403)
(0.119558 0.000313275 0.000535521)
(0.122752 0.000870265 5.67488e-05)
(0.113353 -4.14108e-05 0.000261241)
(0.112333 -0.000558236 0.000336239)
(0.121318 9.26526e-05 -0.000565649)
(0.116538 -0.000114291 -0.000330991)
(0.121201 8.3134e-05 -2.75819e-05)
(0.117245 2.41086e-05 -0.000375236)
(0.114663 -0.000177558 -0.000758771)
(0.119388 3.01485e-05 -0.000820758)
(0.12131 0.000360267 -0.000150558)
(0.118711 0.000237525 7.23367e-05)
(0.120561 0.000861228 -0.000271722)
(0.113965 8.99871e-05 -0.00156994)
(0.120734 0.00108444 0.000438644)
(0.120277 -0.000147963 -0.000465974)
(0.112587 0.00032129 -3.00314e-05)
(0.120411 -0.000161228 -0.000476582)
(0.120317 -0.000257581 5.58098e-05)
(0.120132 0.000430462 0.00141924)
(0.11421 -0.000612709 -0.000845315)
(0.113296 0.000259983 -0.000715757)
(0.117794 0.000320819 -0.000321604)
(0.118297 1.66859e-05 0.000886073)
(0.118778 -0.000188267 0.000161433)
(0.118182 0.00045721 0.00016801)
(0.117722 0.000429882 0.000622409)
(0.121055 0.000127698 -1.15797e-05)
(0.119019 -0.000184358 0.00016101)
(0.119322 0.000247604 0.000187494)
(0.114834 -0.00027288 0.00062049)
(0.121812 -0.000110491 -0.000947843)
(0.113703 -0.000200195 -3.33386e-05)
(0.118764 0.000739469 4.00089e-06)
(0.11802 0.000371926 -6.62036e-05)
(0.117904 -0.000830923 -0.000561323)
(0.119704 0.000428485 5.13407e-05)
(0.116753 -0.000338677 -0.000404787)
(0.114322 -0.000726374 -0.000452966)
(0.112883 -0.000140704 -0.000477561)
(0.114181 -0.00029146 -0.000220618)
(0.117826 -0.000491312 -0.000365836)
(0.120344 0.000652441 0.000278309)
(0.113519 0.000431507 0.001589)
(0.120634 -0.000196542 -9.20779e-05)
(0.118084 4.66632e-05 -0.000677944)
(0.121579 -0.000329565 -0.000411714)
(0.113437 -4.32105e-05 -0.000726974)
(0.116821 0.000411234 0.000563525)
(0.120601 0.000119048 -0.000625826)
(0.121546 -0.000751017 -3.91295e-05)
(0.120476 0.000313084 -0.00037559)
(0.121398 -0.00023607 -0.000209333)
(0.119177 7.5796e-05 0.000184926)
(0.118151 0.00055752 0.000142508)
(0.121716 -3.74253e-05 0.000357214)
(0.121438 0.000345912 -1.85079e-05)
(0.121739 0.000248706 7.47276e-05)
(0.115114 0.000916296 -0.000377743)
(0.121548 -0.000641005 -0.00070815)
(0.112956 -0.000306174 0.000387078)
(0.121766 0.000683171 -1.1796e-05)
(0.119157 0.000220348 -0.000214109)
(0.11799 4.15096e-05 -0.000462628)
(0.11407 0.000757468 2.46571e-05)
(0.118326 0.0011209 -0.000681814)
(0.111675 -0.000908232 -0.000476013)
(0.120571 8.60751e-05 -0.000446018)
(0.118378 0.000104966 -0.00024684)
(0.121012 -0.000143343 -0.000237529)
(0.117499 0.000357882 -0.000295524)
(0.117687 0.00109842 -0.00027912)
(0.113512 -0.000291043 0.000627054)
(0.12203 0.00018998 -2.80834e-05)
(0.114676 -0.00053466 0.000188964)
(0.112129 -0.000264697 -0.000332131)
(0.114476 -0.000223099 8.49998e-05)
(0.114889 0.00022134 0.000105882)
(0.114393 0.000716337 -8.57201e-05)
(0.11849 -0.000302491 0.000103661)
(0.113488 0.000126168 -7.36684e-05)
(0.119903 -0.00106134 0.00033343)
(0.120306 5.38729e-06 -0.000487901)
(0.112043 -6.53082e-05 -1.97719e-05)
(0.120054 0.000385443 -3.6472e-05)
(0.114073 0.000354764 -0.000707323)
(0.117593 0.000759095 -7.31048e-05)
(0.11878 0.000336174 -4.65125e-05)
(0.118084 -0.000181269 -0.00094238)
(0.120367 9.43217e-05 -0.000100924)
(0.122294 0.000205323 -0.0008038)
(0.120486 1.69518e-05 0.000407505)
(0.1197 3.62487e-05 -0.00020251)
(0.119291 -0.000166667 -0.00103619)
(0.120291 0.000409249 0.000232337)
(0.117376 0.000234499 5.44295e-05)
(0.117835 0.000323672 0.000136624)
(0.11263 0.000640724 -0.000777284)
(0.110773 0.00164508 0.0034774)
(0.121195 1.04876e-05 0.000122816)
(0.118604 4.42158e-05 -0.000197702)
(0.12026 -0.000278459 -0.000142206)
(0.120454 -3.91882e-05 0.000136523)
(0.112911 -0.000516885 -6.51999e-05)
(0.121076 -0.000120672 -0.000356113)
(0.121449 0.000526448 3.00115e-05)
(0.121217 5.60904e-05 0.000142747)
(0.121192 0.000173491 0.000382663)
(0.119799 0.000354715 0.000419789)
(0.119358 -0.000517917 -0.000255069)
(0.121255 -5.3542e-05 3.18748e-05)
(0.121833 -0.00014761 0.000432568)
(0.119584 0.000358049 0.000353638)
(0.121408 0.000186669 -0.000202158)
(0.120707 -0.000358486 -0.000460184)
(0.115326 -0.000318398 -0.000455371)
(0.121093 -0.000137612 0.000243122)
(0.115765 -3.86066e-05 0.000523994)
(0.118667 5.70986e-05 -4.81682e-05)
(0.118909 -0.000764451 -3.50642e-05)
(0.118312 -0.000511682 0.000141004)
(0.117493 0.000627842 2.94338e-05)
(0.120283 0.000324139 -0.00014309)
(0.117749 0.000403629 0.000301909)
(0.11934 0.000402451 -0.000435504)
(0.117584 0.00110828 -0.000552648)
(0.112982 0.00110921 -0.000738998)
(0.122243 0.000409768 -0.000316021)
(0.120099 0.000575776 -0.000176747)
(0.117196 -8.56033e-06 0.00064905)
(0.113441 -0.000511956 -2.86976e-05)
(0.120687 -0.000375544 -8.52444e-05)
(0.113002 -0.00060567 -0.000578091)
(0.121409 -0.0003211 4.46857e-05)
(0.120422 -6.24012e-05 0.000377711)
(0.117503 0.00109042 -0.0004489)
(0.120362 -0.000380784 0.000231947)
(0.121753 9.78735e-05 -0.000473417)
(0.119334 -0.000435257 -0.000113363)
(0.112882 -0.000140066 0.000199641)
(0.117746 -9.34331e-05 -5.70129e-05)
(0.115639 0.000530731 -0.000509585)
(0.118442 0.000115176 -0.000136545)
(0.113068 -0.000494392 -0.000896055)
(0.11989 -0.000128734 -0.00030757)
(0.120425 -0.000488685 0.00053881)
(0.116268 0.000572542 -0.000675804)
(0.118374 7.57045e-05 4.36015e-05)
(0.115795 8.84182e-06 -0.000253335)
(0.120632 4.90886e-06 -0.000401216)
(0.117317 -0.00065863 0.000156566)
(0.11841 0.000374797 0.000425621)
(0.113583 -0.000198377 3.11355e-05)
(0.121146 -2.45332e-05 -2.26351e-06)
(0.119235 -0.000420266 -0.000207121)
(0.12122 0.000105274 -4.10316e-05)
(0.115938 0.000532279 -0.000358075)
(0.118583 -7.50354e-05 -0.000319667)
(0.119409 0.000106839 -0.000316491)
(0.117405 -6.19159e-05 0.000279144)
(0.11892 -7.81242e-05 0.000198572)
(0.118533 -0.000170209 0.000522104)
(0.120907 -0.000400951 9.52669e-05)
(0.11847 -0.000219428 -0.000104411)
(0.114046 9.08936e-06 -0.000199328)
(0.11231 -0.000183574 -0.000612606)
(0.119997 -0.000602852 5.64975e-05)
(0.113057 0.000515914 -0.000954752)
(0.116382 -0.000669524 -0.0012186)
(0.118525 0.000277531 -0.00021378)
(0.118677 0.000274278 4.55933e-05)
(0.121738 0.000542973 -0.000261644)
(0.11294 -5.5763e-05 -7.18366e-05)
(0.11836 -0.000117618 -0.000686295)
(0.122082 6.88656e-05 -0.000381759)
(0.11408 0.000825252 -0.00257763)
(0.114341 0.00138924 9.51132e-05)
(0.117724 -2.55131e-06 -0.000715809)
(0.114398 -7.11729e-05 -1.98384e-05)
(0.119765 0.000517113 -0.000641726)
(0.114476 -0.000310212 8.53403e-05)
(0.12144 -0.000773567 -0.000315821)
(0.115963 0.000180658 0.000484582)
(0.117004 0.000387664 0.000484311)
(0.122378 0.000353474 0.000787427)
(0.112234 -0.000189481 0.000452285)
(0.116819 0.000124787 0.000396751)
(0.11676 1.18915e-05 0.000559649)
(0.121206 -7.96611e-05 -0.000706387)
(0.121384 5.42669e-05 0.000233875)
(0.121031 3.36378e-05 -0.000190566)
(0.113796 0.000686937 0.000330415)
(0.12006 5.99235e-05 -0.000405982)
(0.120807 0.000164511 0.000841452)
(0.116205 -0.000229083 -0.000138027)
(0.121108 0.000353778 -0.00011139)
(0.120496 0.000316926 0.000207293)
(0.120226 0.000368705 -5.0222e-06)
(0.121312 -9.3514e-05 -0.000573237)
(0.118726 6.12184e-05 -0.00018801)
(0.122385 1.26973e-05 0.000313635)
(0.12169 0.000697762 0.000793495)
(0.121367 9.24474e-06 -0.000333522)
(0.119327 0.000506287 0.000334067)
(0.117627 -0.000253593 -0.000411539)
(0.118904 0.000363161 6.02347e-05)
(0.11856 0.000154146 -0.000362222)
(0.11278 -0.000838257 -0.00023778)
(0.117636 -0.000520252 6.35561e-05)
(0.119426 -0.000157514 0.000467399)
(0.121193 -0.00025749 -0.000278863)
(0.12146 -0.000324389 -0.000624569)
(0.117979 -0.000439886 7.07637e-05)
(0.122454 0.00106932 -0.00012236)
(0.12046 -5.63038e-05 -2.47496e-05)
(0.116788 -0.000684979 0.000598734)
(0.120252 -6.48709e-05 -0.000396087)
(0.121154 4.84727e-05 -0.000247847)