/*--------------------------------*- C++ -*----------------------------------*\
| =========                 |                                                 |
| \\      /  F ield         | OpenFOAM: The Open Source CFD Toolbox           |
|  \\    /   O peration     | Version:  2212                                  |
|   \\  /    A nd           | Website:  www.openfoam.com                      |
|    \\/     M anipulation  |                                                 |
\*---------------------------------------------------------------------------*/
FoamFile
{
    version     2.0;
    format      ascii;
    arch        "LSB;label=32;scalar=64";
    class       surfaceVectorField;
    location    "0.034";
    object      Uf;
}
// * * * * * * * * * * * * * * * * * * * * * * * * * * * * * * * * * * * * * //

dimensions      [0 1 -1 0 0 0 0];

internalField   nonuniform List<vector> 
68568
(
(0.119766 0.000287606 -0.000128812)
(0.11908 0.000595873 -0.000163729)
(0.118791 0.00040962 -2.25995e-05)
(0.121169 0.00081681 -0.000324358)
(0.119264 -0.000372274 -0.000243621)
(0.119203 -0.000448483 -0.000448707)
(0.118162 -0.000376276 2.62523e-07)
(0.112917 -0.000179594 -0.0002082)
(0.120387 0.000225097 0.000260178)
(0.120101 -0.000453815 0.00072083)
(0.118956 -0.000290845 0.000184479)
(0.115779 -0.000584742 0.000744348)
(0.122227 -0.000189716 -0.000232194)
(0.121107 -3.67417e-05 -0.000387311)
(0.122165 -0.000117138 -0.000273462)
(0.122424 -0.000169674 -0.000291644)
(0.117264 -0.000229157 -0.000245275)
(0.11993 -0.000482303 -0.000288631)
(0.116691 -0.000218615 -0.000308922)
(0.119563 -0.000487612 -0.00034108)
(0.119762 -7.54965e-05 -3.89331e-05)
(0.118521 -3.02634e-05 0.000126388)
(0.119906 -3.60996e-05 0.000139643)
(0.114181 -3.48604e-05 -0.000267691)
(0.118519 -1.74433e-05 -0.000225374)
(0.114296 -0.000138234 7.92631e-05)
(0.11596 0.000136053 -0.000477015)
(0.118571 -1.13929e-05 -0.000283826)
(0.118536 0.000249203 0.000404255)
(0.12065 0.000149034 -2.50984e-05)
(0.119401 -4.1878e-05 -5.71831e-05)
(0.119826 -0.000174149 -0.000352997)
(0.118719 6.90631e-05 -0.000265177)
(0.118743 0.000230154 -0.000587571)
(0.120647 -0.000273601 -9.63708e-05)
(0.119749 -0.000469839 -0.000361446)
(0.121214 -0.000103488 -0.000591042)
(0.12142 -0.000452635 -0.000418136)
(0.121415 0.000481035 -2.62907e-05)
(0.120352 0.000338919 -0.000106573)
(0.121225 0.000307265 -0.000116108)
(0.1181 -0.000122211 -0.000496294)
(0.121686 -0.000446807 -0.000714874)
(0.121287 -0.000522342 -0.000640348)
(0.119305 -0.000186128 2.26192e-05)
(0.118371 -0.000379314 -3.64339e-05)
(0.113376 3.06914e-05 -0.000326114)
(0.121203 -0.000138079 -0.000168798)
(0.12112 -0.000130384 0.000229615)
(0.120357 -0.000117997 0.000130288)
(0.118467 -7.65453e-05 0.000145362)
(0.117178 -0.000309853 -5.27216e-05)
(0.118678 -0.00029597 -0.000166861)
(0.118068 -0.000260231 -6.00523e-05)
(0.112844 -0.000316571 -9.90761e-05)
(0.118653 -0.000399561 0.000750174)
(0.11442 -0.000321007 0.000448676)
(0.116059 -0.000366868 0.000683591)
(0.118882 -0.000291793 0.000280622)
(0.118165 0.000154092 0.0002425)
(0.119003 0.000279993 0.000257549)
(0.118614 0.000208437 0.000159373)
(0.120016 4.55497e-05 0.000143174)
(0.11477 0.00039751 0.000424096)
(0.114879 -0.000320771 0.000680329)
(0.118342 -6.47749e-05 0.000269975)
(0.118475 8.18296e-05 -0.000593051)
(0.116219 -0.000305591 -5.87028e-05)
(0.114991 0.000130968 -0.000678523)
(0.118907 -0.000143061 -0.000353872)
(0.119034 9.2366e-06 -9.95722e-05)
(0.12027 -0.000299975 -4.55678e-05)
(0.1199 -0.000453465 6.3255e-05)
(0.115132 -0.000146218 7.65582e-07)
(0.114255 -0.000187774 -0.000378513)
(0.115838 3.4761e-05 -0.000303247)
(0.114547 0.000258404 -0.000315693)
(0.105349 -0.000146365 -0.000462031)
(0.120178 -0.000417061 -0.00053455)
(0.121599 -0.000166225 -0.00060516)
(0.120637 -0.000262484 -0.000598246)
(0.121059 -0.000302388 -0.000710807)
(0.120792 0.000396954 -0.000236234)
(0.120782 0.000425052 -9.81357e-05)
(0.118601 0.000488238 -5.91545e-06)
(0.121488 0.000567335 -0.000245714)
(0.115904 0.000245645 -0.000230736)
(0.11625 -0.000133549 -0.000204951)
(0.118676 0.000183331 -0.000343463)
(0.119102 3.47136e-05 -2.18897e-05)
(0.113891 -2.35179e-05 8.69874e-05)
(0.117749 -0.000106447 -6.28709e-05)
(0.115616 0.000252863 -0.000418885)
(0.117838 -7.86239e-05 0.000232973)
(0.118472 3.23083e-05 -6.27886e-05)
(0.118496 -0.000332533 0.000163756)
(0.120478 -0.000206585 0.000709586)
(0.118817 -5.1995e-05 -0.000213189)
(0.120027 -0.000142614 -0.000105226)
(0.114856 -9.19839e-05 0.000300923)
(0.12178 0.000516871 0.000287222)
(0.119636 0.000610711 -0.000185447)
(0.121724 0.000574231 6.73059e-05)
(0.12021 0.000303915 -0.000591382)
(0.119429 0.000214115 0.000399766)
(0.113882 0.000444391 -0.000220366)
(0.115572 0.000420627 0.000131585)
(0.121047 0.000122865 0.000264622)
(0.120192 -5.85797e-05 0.000286584)
(0.121076 7.30014e-05 0.000277806)
(0.121709 -0.000270106 -0.000214949)
(0.120214 -5.60581e-05 -1.7979e-05)
(0.12183 -0.000221649 -0.000140889)
(0.119717 -0.000125888 -0.00019093)
(0.118112 -0.000243957 -0.000133767)
(0.118132 -9.96403e-05 -0.000234977)
(0.11489 0.000286938 4.013e-05)
(0.114454 -0.000300231 0.000335497)
(0.120847 0.000215468 -0.000460469)
(0.120223 2.56573e-05 -0.000302104)
(0.120907 -2.97484e-06 -0.000424834)
(0.121309 -1.19219e-05 -0.000326007)
(0.116023 -0.000114257 -0.000224216)
(0.114972 -0.000259595 9.44921e-05)
(0.119068 -0.000191196 4.02803e-05)
(0.119207 -2.92031e-05 0.000113087)
(0.116074 0.000280614 0.000171495)
(0.113961 0.000153022 0.000149656)
(0.113917 3.57359e-05 -0.000140844)
(0.106105 2.92001e-05 0.000150058)
(0.121183 0.000454038 -0.000177564)
(0.113784 2.15043e-05 -5.32928e-05)
(0.113948 -0.00043635 -0.000196931)
(0.111808 -0.000240691 4.84591e-05)
(0.105487 -0.000277593 -4.60151e-05)
(0.1217 -0.000408426 0.000306324)
(0.121635 -0.000578462 0.000176129)
(0.121806 -0.000183608 0.000439466)
(0.121095 -0.000489389 0.000305837)
(0.119872 -0.000304553 0.000331044)
(0.119899 -0.000287085 0.000525877)
(0.12129 -0.000322604 0.000581036)
(0.112671 0.000497325 -0.000404178)
(0.113875 -0.000282526 -1.31968e-05)
(0.106307 6.70723e-05 -0.000108826)
(0.117128 -6.96315e-05 -0.00013039)
(0.114801 -0.000108915 -0.000394214)
(0.106566 0.000112292 -0.000470718)
(0.115463 -0.000182904 0.000139498)
(0.115483 -0.000453281 -8.1438e-05)
(0.116424 -0.00037769 -7.20745e-05)
(0.105734 -0.000295307 0.000132184)
(0.121031 -0.000148796 0.000120566)
(0.119229 -0.000133419 9.62237e-06)
(0.120251 -0.00030077 -0.000470031)
(0.121267 -0.00080568 -0.00045313)
(0.120023 -0.000785085 -0.00075114)
(0.121407 -0.000563813 -0.000867024)
(0.120676 -0.000522072 0.000612205)
(0.121007 -0.00068257 0.000224281)
(0.120378 -0.00023393 0.000283362)
(0.121862 -0.000596161 -0.000245416)
(0.120681 -0.00065873 -2.84795e-05)
(0.120122 -0.000393487 -0.000366821)
(0.121782 -0.000254458 -0.000465267)
(0.118192 -1.23566e-05 -0.000334691)
(0.116655 0.000448208 -0.000494219)
(0.111919 -3.85642e-05 -0.000318736)
(0.119226 0.000331378 -0.000480453)
(0.119534 2.68418e-05 -0.000346207)
(0.117152 0.00019617 -0.000739337)
(0.11588 0.000106741 -0.000277231)
(0.118036 -0.000201248 0.000203806)
(0.117766 -2.99226e-05 5.09431e-05)
(0.119851 -1.4666e-05 -0.000251259)
(0.118793 -0.00021322 0.000126857)
(0.120951 -0.000125972 -0.000374516)
(0.120139 -0.000251641 -0.00047711)
(0.120338 8.16103e-05 -0.000396683)
(0.121789 0.000184842 -0.000762109)
(0.122175 -8.37739e-05 -0.000361202)
(0.116075 -0.000158172 -0.000526095)
(0.113938 7.18442e-05 -0.000239174)
(0.1146 4.3071e-05 -0.000142412)
(0.104976 6.64581e-05 -0.000293941)
(0.120403 0.000636937 0.000159731)
(0.119605 0.000504064 0.000188016)
(0.121199 0.000568372 0.000168795)
(0.120763 0.00036924 0.000160296)
(0.113102 -0.000347213 6.4454e-05)
(0.105865 -0.0001244 0.000307299)
(0.116933 -0.00015353 -0.00025296)
(0.11676 -0.000382248 -1.93945e-05)
(0.119745 -0.000196573 -0.000274482)
(0.119785 -0.000307789 -7.41821e-05)
(0.117301 0.000183229 0.000235742)
(0.117828 9.76113e-05 0.000195149)
(0.119709 -0.000164386 4.4867e-05)
(0.115667 -3.35167e-05 -0.000692931)
(0.114434 -5.66081e-05 -0.000340285)
(0.115876 8.90973e-05 -0.00018023)
(0.105871 0.000352403 -0.000300335)
(0.120286 0.000134469 0.00045972)
(0.119904 -0.000174357 0.00013834)
(0.118904 2.80571e-05 0.000412402)
(0.115061 4.41139e-05 0.000363365)
(0.120079 -0.00029679 0.000148126)
(0.118876 4.52388e-05 0.000426216)
(0.120044 -8.83946e-05 -5.14877e-06)
(0.11423 4.45157e-05 0.000232129)
(0.11384 -5.77272e-06 -0.000129789)
(0.113979 0.000441225 -0.000133011)
(0.106783 0.000126985 -0.000118173)
(0.118741 -0.000430573 -0.000515889)
(0.118431 -3.15476e-05 -0.000347147)
(0.118684 -0.000124721 -0.000190658)
(0.120416 0.000365982 9.76016e-05)
(0.119155 0.000411063 0.000187984)
(0.121198 0.000130831 -0.000124662)
(0.119783 0.000258166 -0.000182597)
(0.118466 -0.000134316 -0.000411977)
(0.11593 -0.000216256 -0.000529782)
(0.116012 -0.000202296 -0.000294827)
(0.10669 -0.000302584 -0.000229065)
(0.119949 -8.91492e-05 -9.46551e-05)
(0.120034 6.66608e-05 7.19083e-05)
(0.113669 5.14982e-05 -0.000191799)
(0.118253 8.41549e-05 -7.79203e-05)
(0.118549 0.000360198 4.10962e-05)
(0.120109 0.000408678 9.53655e-05)
(0.118704 0.000372981 0.000223829)
(0.121711 -8.8158e-05 -0.000593053)
(0.121952 -0.000177337 -0.0004856)
(0.121851 -0.000296381 -0.000415786)
(0.121247 -0.000193395 -0.000370336)
(0.117835 0.000310986 -0.00100201)
(0.119952 0.000201974 -0.000865347)
(0.1206 -0.000210126 -0.000708897)
(0.118603 -0.00040882 5.48273e-05)
(0.119825 -0.000296857 2.56507e-05)
(0.118583 -0.00013506 0.000174177)
(0.114434 -6.71351e-05 -0.000218238)
(0.116003 -0.00090489 -0.000448767)
(0.116497 0.000225297 -0.000350666)
(0.105924 -6.66735e-05 -0.000449343)
(0.121599 0.000291026 5.52981e-05)
(0.121918 0.000217063 -0.000287318)
(0.121475 3.78169e-05 -9.38934e-05)
(0.122041 7.79768e-05 -0.000406724)
(0.120773 0.000311588 -7.60536e-05)
(0.118972 0.000274708 2.59069e-06)
(0.12009 6.23047e-05 -0.000110593)
(0.119903 0.000175408 -0.000279877)
(0.116231 -8.02659e-05 -0.00100739)
(0.115786 0.000162295 -0.000425127)
(0.117253 -2.35861e-05 -0.000764565)
(0.109102 -0.000648983 -0.000748264)
(0.119274 -0.000262779 -0.000609762)
(0.119337 -0.000321734 -0.000827203)
(0.121082 -0.000283974 -0.00047081)
(0.120817 -0.000252278 -0.000577149)
(0.12038 -0.000195153 -0.000213338)
(0.118948 -0.000270304 -0.00034424)
(0.118907 5.4941e-05 -0.000116731)
(0.114725 9.73268e-05 -0.000542192)
(0.120559 0.000530697 0.000278989)
(0.120024 0.000553775 -1.9041e-06)
(0.118746 0.000311338 -0.00014546)
(0.114011 -1.54734e-05 -0.000662871)
(0.113598 8.31771e-05 -0.000471475)
(0.115208 0.000292427 -0.00069569)
(0.105265 0.000357764 -0.000264365)
(0.120899 -0.000538176 -0.000115856)
(0.120652 -0.000579112 0.000120901)
(0.121896 -0.000507372 5.20088e-05)
(0.116464 0.0010101 -0.000606313)
(0.119564 5.58059e-05 -0.00041965)
(0.119106 0.000181658 -0.000439599)
(0.118606 -0.00024496 0.000454857)
(0.119033 4.76948e-06 0.00021069)
(0.119486 6.88612e-05 0.000310603)
(0.113659 -0.000102264 0.000323802)
(0.116021 -0.000201797 -0.000132802)
(0.120748 1.32373e-05 2.99186e-05)
(0.118723 0.000265577 1.78532e-05)
(0.12075 0.000424854 -0.000101764)
(0.114254 0.000335251 -0.000284751)
(0.117832 -0.000144445 -6.81674e-05)
(0.118083 -3.0878e-05 4.7699e-05)
(0.111526 -4.9878e-05 -0.000272559)
(0.112569 4.38985e-05 0.000268398)
(0.112183 -0.000247434 0.000100851)
(0.105817 -0.000117262 0.000116927)
(0.121727 -4.52728e-06 0.000211776)
(0.120051 -5.29342e-05 -9.3173e-05)
(0.121681 -0.00021829 0.000167799)
(0.120957 -0.00046423 0.000214498)
(0.12096 -0.000448006 -0.000268529)
(0.120576 -3.02938e-05 -0.000128827)
(0.120436 -0.000119572 -0.000273201)
(0.114182 -0.000169152 3.42603e-05)
(0.118216 -0.000248193 -0.00012383)
(0.120034 -0.000267213 -0.000129994)
(0.120381 -0.000106316 -0.000185561)
(0.118219 3.07409e-05 0.00010466)
(0.121621 -0.000109508 -0.000124462)
(0.119876 -6.45157e-05 -0.000265922)
(0.120101 9.36518e-05 5.49413e-05)
(0.121612 -0.00017527 -3.67438e-05)
(0.121685 3.19211e-05 0.000187325)
(0.12115 -0.000122796 2.56072e-05)
(0.121906 -0.000103561 -0.000173966)
(0.120318 -0.000163652 -0.000254108)
(0.120098 -0.00026989 -0.00041398)
(0.121614 -0.000100598 -0.000598725)
(0.113957 0.00130014 -0.000904079)
(0.1168 0.00022582 -0.00127962)
(0.115839 0.000580763 -0.000865397)
(0.103857 0.000145188 -0.000420582)
(0.120493 -0.00018122 -0.000239455)
(0.120588 -0.000277301 -0.000284062)
(0.121708 -0.000220691 -0.000514975)
(0.119319 -0.000233112 0.000214676)
(0.120777 -0.000176787 9.60208e-05)
(0.114066 -7.4537e-05 -5.5656e-05)
(0.11623 -0.000222588 2.05996e-05)
(0.11585 -2.10389e-05 4.12584e-05)
(0.118929 -0.000274696 0.000234932)
(0.118723 -0.000332959 -4.82835e-05)
(0.115292 -0.000376873 -0.000907091)
(0.115842 -0.000521246 -0.000107266)
(0.105233 -0.000387062 -0.000134579)
(0.117031 0.000447538 -0.000774004)
(0.118657 0.000204026 -0.000904367)
(0.1129 -0.000277096 -0.000477764)
(0.115181 -0.000522449 -7.65961e-05)
(0.118166 -0.000604999 -0.000153567)
(0.114754 -0.000398045 -0.00037852)
(0.117975 -0.000427412 -0.000198976)
(0.119317 0.000536038 9.57301e-05)
(0.119125 0.000784388 -3.72608e-05)
(0.117636 0.00100904 0.000411076)
(0.114414 0.000609776 0.000319706)
(0.117625 0.000294897 -0.000214323)
(0.118412 -5.72217e-05 -0.000286993)
(0.120412 0.000244345 -8.41342e-05)
(0.120864 -0.000205985 -4.91708e-05)
(0.120513 -0.000159006 2.16532e-05)
(0.113886 -0.000149376 3.70106e-05)
(0.118382 7.76353e-05 0.000251404)
(0.117984 0.000345547 0.000180407)
(0.11934 7.4953e-05 0.000182877)
(0.113475 5.07246e-05 -0.000190147)
(0.11505 -0.000763138 0.000162951)
(0.115551 -0.000302964 7.65688e-06)
(0.11449 -0.00094097 -0.000284295)
(0.105594 -0.000637665 0.000191013)
(0.119969 0.000288048 0.00015321)
(0.12008 -3.93225e-05 0.000134991)
(0.11806 0.000166537 -0.000292184)
(0.120231 -0.000159714 -0.000178898)
(0.119947 0.000148135 0.000223543)
(0.118498 -0.000114958 0.000344298)
(0.11835 0.000520949 0.000170373)
(0.117031 -0.000331305 -0.000411069)
(0.113027 4.61921e-07 -0.000186114)
(0.113856 -3.54392e-05 -0.00024315)
(0.115519 -0.000333586 -0.00029594)
(0.114677 0.000107552 -0.000349629)
(0.105795 -4.84231e-05 5.64424e-05)
(0.116125 -4.83596e-05 -0.000273263)
(0.105477 -2.49153e-05 -0.000310798)
(0.12038 -0.000380588 -8.29064e-06)
(0.122037 -0.000163909 0.000275928)
(0.122134 -0.000274826 -6.91329e-05)
(0.106784 5.06905e-05 0.000232775)
(0.114671 -0.000582088 -0.000685447)
(0.11571 -0.000446509 -0.000295327)
(0.115267 -0.000763509 -0.000634688)
(0.10493 -0.000360593 -0.000911672)
(0.114521 0.000607312 -0.000151071)
(0.117789 0.000431746 -5.79511e-05)
(0.113908 -0.000249868 0.000644315)
(0.112849 7.03797e-05 0.000307404)
(0.114568 0.000335076 0.000619861)
(0.105637 -0.000191036 0.000309369)
(0.120571 -0.000963152 0.000264401)
(0.118504 -0.000986696 0.000497613)
(0.118859 -0.00083149 0.000373942)
(0.120615 -0.000896714 0.000154771)
(0.117212 -0.000286577 -0.000626369)
(0.11619 -0.000281753 -0.000272971)
(0.11547 -0.000147519 -0.0002611)
(0.105308 0.00011162 -0.000277025)
(0.119769 0.000272686 -0.000169648)
(0.118862 0.000216988 -0.000187416)
(0.119346 -0.000432557 -0.000171068)
(0.115091 8.97132e-05 -0.000361983)
(0.116124 -0.000438804 -0.000472116)
(0.116076 -0.00043545 -0.000595304)
(0.118678 -0.000494499 -0.000594788)
(0.120009 0.00011163 -0.000555468)
(0.119841 0.000170517 -0.000555475)
(0.118908 0.000178531 -0.000503291)
(0.113491 0.000422319 -0.000654603)
(0.115407 -4.69195e-05 6.84523e-05)
(0.113735 -0.000398014 0.000111874)
(0.114667 -0.0005079 0.0004369)
(0.105444 -0.000390708 -1.87415e-05)
(0.119631 0.000490116 0.000188221)
(0.115851 0.000408485 -0.000329663)
(0.115629 -0.000164409 -4.25854e-05)
(0.119205 -0.000697399 -7.27003e-05)
(0.115813 -0.000473553 3.52671e-05)
(0.118966 -0.000566323 0.000268475)
(0.120375 9.71208e-05 4.98222e-05)
(0.11906 3.05567e-06 -0.000165081)
(0.120243 1.14103e-05 -0.000180074)
(0.119703 9.62144e-05 0.000198321)
(0.119821 -0.000252738 -2.16327e-05)
(0.114291 -0.000272055 8.0308e-05)
(0.118641 -0.000403001 -0.000186239)
(0.119057 -0.000108819 -0.000417226)
(0.120305 -3.03231e-05 -0.000226361)
(0.119095 -0.000280214 -9.53379e-05)
(0.11947 -0.000347462 0.000300411)
(0.120937 -0.000199704 0.000200864)
(0.121578 -0.000356022 0.000154674)
(0.11987 1.98937e-05 -0.000566672)
(0.119787 -4.03193e-05 -0.000515691)
(0.121722 5.58698e-05 -0.000623119)
(0.118408 0.000235681 -0.000475293)
(0.120054 0.00017315 -0.000326593)
(0.120385 -0.000135437 -0.000666255)
(0.117066 -0.000728374 -0.000241984)
(0.121178 0.000178601 -0.000633227)
(0.119178 -0.000370632 0.000255678)
(0.120767 0.000110258 0.000397586)
(0.120676 -2.52436e-05 0.000178732)
(0.120839 -0.000278867 0.000187859)
(0.11917 7.62742e-05 9.08799e-05)
(0.119906 -0.000161801 0.000210309)
(0.113283 -4.95721e-05 3.3851e-05)
(0.114463 -9.36777e-05 -0.000550542)
(0.114522 -0.000294557 -0.000285)
(0.115127 -0.000665658 -0.000315041)
(0.118153 -0.000586124 -0.000340416)
(0.118513 -0.000494196 -0.000365655)
(0.11945 -0.000393462 0.000135753)
(0.119201 -0.000314548 -5.61643e-05)
(0.121248 -0.000237291 -0.000303883)
(0.121243 -0.000233452 2.28572e-05)
(0.120557 -8.01048e-05 -0.000283738)
(0.119082 -0.000295358 -0.00041192)
(0.118742 0.000144085 -0.000194154)
(0.120489 0.000263837 -7.56245e-05)
(0.120298 0.0003354 -0.000385242)
(0.121513 3.69646e-05 -0.000643959)
(0.120719 0.000138192 -0.000195167)
(0.12144 -9.59408e-05 -0.000592802)
(0.120367 -0.000405897 -3.62972e-05)
(0.11953 -0.00017678 -3.57967e-05)
(0.118399 -0.000818929 0.000179984)
(0.120784 -0.000569225 6.1275e-05)
(0.120008 -0.000142713 5.14016e-05)
(0.116773 -0.00015243 -0.000342803)
(0.120763 -0.000134732 -1.62964e-05)
(0.116568 6.96897e-05 -0.00065156)
(0.120887 -7.31412e-05 -3.91055e-05)
(0.121657 -0.000184361 -0.00040769)
(0.120553 -3.05372e-05 -0.000270533)
(0.120376 -1.73182e-05 0.000241978)
(0.113728 -1.79963e-05 -9.69636e-05)
(0.113991 -0.00022065 -0.000429931)
(0.106618 -9.98681e-05 -0.000288031)
(0.114524 -0.000593166 -0.000805125)
(0.105323 -0.000331783 -0.000200575)
(0.121723 0.000216792 0.000692368)
(0.119923 0.000234759 0.000201179)
(0.118839 -0.000470978 -0.000418814)
(0.113692 -0.000314749 -0.000306087)
(0.120074 -0.000102909 -0.000738887)
(0.119806 -0.000139489 -0.00053573)
(0.118693 -0.000270609 -0.000307145)
(0.113211 -0.000237102 -0.000368048)
(0.121378 0.000329413 0.00063223)
(0.12143 0.000121535 0.000657534)
(0.121515 0.000192851 0.00058245)
(0.120584 0.000318337 0.000625083)
(0.119864 0.000608514 0.000286609)
(0.119942 0.00038341 0.000210603)
(0.121103 0.000466663 0.00023052)
(0.113706 -0.000191143 -0.000372175)
(0.115365 -8.13706e-05 -0.000214869)
(0.10496 -0.000323988 -0.000415461)
(0.116231 0.000277889 -0.000346673)
(0.115145 -9.14724e-05 -0.000287958)
(0.114475 0.000265284 -0.000369085)
(0.105764 -6.578e-05 -0.000684644)
(0.121103 -9.35676e-05 5.14118e-05)
(0.119593 -0.000242025 -0.000396809)
(0.12116 -0.000387002 -0.000111648)
(0.118343 -9.65305e-05 -0.000273477)
(0.12009 -0.000239685 -0.000365882)
(0.114944 -0.000296579 -0.000501643)
(0.11555 -0.000204641 -0.0006103)
(0.105713 -0.000344792 -0.000379303)
(0.116297 -0.000311768 -0.000145544)
(0.114252 -5.73854e-05 -1.16759e-05)
(0.113877 -1.03522e-05 0.000216361)
(0.106702 -0.000115426 0.000106976)
(0.121444 -0.000576582 0.000159364)
(0.119992 -0.000393686 0.000384567)
(0.119819 -0.000370649 1.64472e-05)
(0.121369 -0.000327814 -6.65701e-05)
(0.115967 -0.000100949 -0.00120205)
(0.115751 6.7048e-05 -0.000786039)
(0.118429 -0.000201712 -0.000800914)
(0.106069 -0.000237631 -0.00107202)
(0.118526 0.000229607 0.000202892)
(0.118979 -0.000411823 0.000233431)
(0.118892 -0.000133898 0.000255423)
(0.113828 -0.000212113 0.000291975)
(0.116296 -0.000527163 -0.000409042)
(0.119256 -0.000253585 -0.00060158)
(0.119087 -1.63672e-05 -0.000757483)
(0.119706 -0.000118958 -9.40159e-05)
(0.121339 -0.000169283 7.0596e-05)
(0.120426 3.8646e-05 0.000340497)
(0.11685 0.000231429 -0.00104406)
(0.114632 0.000427539 -0.000732092)
(0.116356 0.000832493 -0.000793932)
(0.104557 -0.000292631 -0.000802181)
(0.122458 -6.5888e-05 6.39426e-05)
(0.122275 -0.000192131 2.16109e-05)
(0.120674 1.656e-05 -3.00339e-05)
(0.12231 3.23762e-05 2.98971e-05)
(0.120506 -7.55579e-05 -0.000459926)
(0.118052 -0.000135655 -0.000312727)
(0.117584 7.04682e-06 -0.000646279)
(0.12027 -0.000219376 -0.000199382)
(0.117015 -0.000977344 -0.000354407)
(0.117357 -0.00088622 -6.33737e-05)
(0.105847 -0.000316114 -0.000483713)
(0.115942 -0.000644975 0.000871567)
(0.114809 -0.000265773 0.000827422)
(0.11647 -0.000562448 0.00059328)
(0.104581 4.69031e-05 0.000166766)
(0.118836 -0.000323285 -4.8486e-05)
(0.114328 -0.000295031 -3.87003e-06)
(0.116429 -0.000298884 -0.000723717)
(0.12223 -0.000162395 -0.000205869)
(0.120856 -0.000144797 -0.000313867)
(0.11467 0.000256407 0.000268647)
(0.113882 0.000125266 0.000246307)
(0.115655 -0.000139008 -0.000109783)
(0.104815 -0.00012568 0.000196906)
(0.116846 -0.000193249 -0.000807035)
(0.116687 0.000343464 -0.000532257)
(0.105912 -0.000382771 -0.000899355)
(0.114049 -0.00018353 0.000273644)
(0.116382 -6.111e-05 0.000277727)
(0.114347 -0.000454969 8.43399e-05)
(0.106182 -0.000256536 9.91178e-05)
(0.114158 -0.000944199 -0.000283354)
(0.116653 -0.000732462 0.000304186)
(0.115217 -0.00102368 -0.000184098)
(0.104336 -0.000547132 -0.000310754)
(0.116831 0.000321392 -0.000474202)
(0.118175 0.000159848 2.62464e-05)
(0.118498 -7.82582e-05 -0.000263966)
(0.112688 9.86702e-05 -0.000165937)
(0.115026 0.000375228 0.000134592)
(0.114281 0.00023395 0.000274291)
(0.106136 7.34905e-05 0.000206191)
(0.121097 -0.000560674 1.77383e-05)
(0.120689 -0.000394526 0.000135779)
(0.121437 -0.00049333 -1.64497e-05)
(0.121047 -0.000469182 0.000177829)
(0.119946 -0.000306002 0.000225292)
(0.120083 -0.000219474 3.43712e-05)
(0.121746 -0.000309545 0.000255003)
(0.122014 -0.000312466 0.000271264)
(0.113035 0.000174876 -0.00100151)
(0.113144 0.000119591 -0.000393604)
(0.115009 0.000194602 -0.000622074)
(0.106853 -0.000235522 -0.000496613)
(0.115637 -0.00038896 0.000494849)
(0.116212 -0.00120724 -1.75254e-05)
(0.116339 -0.000582447 0.000195854)
(0.108837 -0.000459159 9.21277e-05)
(0.117773 0.000868306 -0.000222614)
(0.119422 0.000533669 -0.000428458)
(0.119446 0.000477311 -0.000630367)
(0.114532 0.000208464 -0.000698828)
(0.116083 1.05616e-05 8.2835e-05)
(0.113769 -7.21506e-05 -6.63764e-05)
(0.11319 -0.000238601 -0.000210946)
(0.106188 0.000132865 -9.13809e-05)
(0.120136 -4.12264e-05 0.000440668)
(0.114585 4.6671e-05 -1.69018e-06)
(0.120168 -0.000447395 -0.000377691)
(0.121391 -7.9846e-05 -0.000394235)
(0.120588 -0.000111213 -0.000217921)
(0.120477 -8.93378e-05 -0.000252214)
(0.118895 0.000401291 6.74184e-05)
(0.117803 0.000344724 0.000182029)
(0.114259 0.000461463 0.000305466)
(0.120786 0.000183442 -1.05529e-07)
(0.119936 0.00022427 0.000390572)
(0.12064 0.000147398 0.000345818)
(0.120618 0.000291738 0.000338132)
(0.120571 -0.000126558 -5.31385e-05)
(0.12046 -0.000402562 -0.000123318)
(0.114011 -0.000268861 -0.000128154)
(0.118961 -0.000171043 -0.000241795)
(0.117844 -0.000289945 -1.01508e-05)
(0.118934 -0.000308323 7.88262e-05)
(0.112282 -7.92337e-05 -0.000307812)
(0.119058 -1.43642e-05 -4.25273e-05)
(0.119352 0.00026145 6.47595e-05)
(0.113662 0.000169813 0.000167272)
(0.115486 -0.000488247 0.000600137)
(0.118829 -0.000470585 0.00041274)
(0.119023 -0.000729325 0.000567319)
(0.117216 1.44351e-05 0.000218211)
(0.118665 -0.000330145 -0.000104299)
(0.118801 -0.000257962 9.33835e-05)
(0.113466 -8.4115e-05 0.000229756)
(0.115523 0.000401247 -0.000122556)
(0.113024 0.000298144 -0.000471058)
(0.105105 0.000883163 -0.000466552)
(0.120042 -0.000129023 -4.80911e-05)
(0.121343 -4.75835e-05 -0.000143256)
(0.121857 0.000464607 -0.000214528)
(0.118525 -0.000177094 0.000267834)
(0.118941 -0.000154669 0.000480586)
(0.112444 -0.000471453 0.000616157)
(0.120302 0.00030968 0.000117268)
(0.121076 -1.89634e-05 0.000104638)
(0.120946 0.000258365 -5.50634e-05)
(0.121111 0.000294008 -2.4989e-05)
(0.115595 -5.66881e-05 -0.000114243)
(0.116302 -0.000151393 0.000147858)
(0.115768 -0.000366816 -9.54131e-06)
(0.104988 0.000111891 6.80394e-05)
(0.113932 3.24416e-05 0.000376301)
(0.113769 -0.000193072 0.000352922)
(0.115083 -0.000100772 0.000569351)
(0.105394 -0.00026067 0.000327838)
(0.119853 -0.000275906 -0.000279942)
(0.120699 -0.00018375 0.000212294)
(0.121531 -0.000359779 1.48491e-06)
(0.121231 -5.45186e-05 0.000195068)
(0.119901 -0.000362041 -0.000337432)
(0.121054 -2.24478e-07 -0.000431276)
(0.119509 0.000126488 -0.000343365)
(0.117553 -0.000204382 0.00069443)
(0.119577 -0.000254581 0.000159754)
(0.119172 -0.000158435 0.000314476)
(0.118041 -0.000227064 0.000705306)
(0.118294 -0.000130335 0.000172339)
(0.119789 -0.000364959 5.17138e-05)
(0.113968 -0.000107321 0.000279537)
(0.120151 -0.000238427 -0.000627488)
(0.120294 2.55318e-05 -0.00052217)
(0.118415 -5.93733e-05 -0.000268535)
(0.11365 0.000194562 -0.000504391)
(0.119453 -8.39099e-05 -0.000703101)
(0.116236 -0.000168674 -0.000669681)
(0.119334 0.000116514 -0.000558505)
(0.1161 0.000278944 0.000287709)
(0.119294 0.000407137 0.000428752)
(0.116909 0.000153075 0.000627208)
(0.119645 0.000285837 0.000296502)
(0.121105 0.000172015 -0.000507252)
(0.118707 0.000339048 -0.00052142)
(0.119249 -0.000100484 -0.000747878)
(0.11613 -1.53803e-05 -2.91368e-05)
(0.105857 -0.000137119 -0.000299746)
(0.115692 4.04777e-05 -5.8678e-05)
(0.118571 -0.000163436 -7.60326e-05)
(0.121575 0.000294345 5.18303e-05)
(0.12138 -1.17173e-05 3.73745e-05)
(0.120882 0.00012793 0.000224608)
(0.121463 4.30667e-05 0.000319183)
(0.12041 -0.000493923 2.15496e-05)
(0.12045 -0.000601267 -0.000122618)
(0.120253 -0.000486224 -6.07751e-05)
(0.120458 -0.000523636 -0.000250281)
(0.120495 -0.000502158 0.000134038)
(0.120236 -0.000587862 0.000118516)
(0.118555 -0.000509679 0.000319639)
(0.11755 -0.00116905 6.38087e-05)
(0.119648 -0.00114688 -0.000246805)
(0.118916 -0.00102979 -0.000485578)
(0.117666 -0.000114581 -0.000269893)
(0.117539 0.000196143 -0.000501494)
(0.113829 3.38909e-05 0.000207238)
(0.120321 0.000153654 -0.000425545)
(0.114528 -0.000117051 -0.000339216)
(0.117565 0.000566336 -0.000433823)
(0.117713 0.000596204 -0.000611394)
(0.118768 0.000157806 -0.000452771)
(0.113185 -4.39332e-05 -0.000408566)
(0.121059 0.000183154 -0.000309329)
(0.119584 0.000305708 -0.000337112)
(0.120174 9.87567e-05 -0.0004871)
(0.105982 1.73953e-05 -0.000172501)
(0.118745 0.000113315 -0.000222841)
(0.114235 -9.94878e-05 -0.000114029)
(0.116447 0.000169944 -0.000115989)
(0.119035 0.000208341 0.000220313)
(0.116134 0.000240376 -0.00013936)
(0.119315 0.000492586 -5.41863e-06)
(0.119559 3.12574e-05 -0.000281309)
(0.119045 3.04824e-05 -0.000402033)
(0.118628 6.25881e-05 -7.36134e-05)
(0.114952 0.000239896 -0.000358915)
(0.121224 -7.29765e-05 -0.00039648)
(0.119727 -0.000170702 -0.000561098)
(0.120769 -0.000269002 -0.000552617)
(0.119472 -0.000415507 -0.000416959)
(0.119192 -0.000565199 -0.000402279)
(0.121078 -0.000411448 -0.000246595)
(0.120226 -0.000439111 -0.000124131)
(0.120823 0.000165703 -0.000408702)
(0.121067 -0.000110945 -0.000317246)
(0.114972 -0.000658767 -0.000423428)
(0.115934 -0.000864911 -0.000460139)
(0.105069 -7.49656e-05 -0.000390907)
(0.118129 -0.000636641 0.000301095)
(0.119335 -0.000358069 2.48373e-05)
(0.121269 -0.000354399 -0.000180195)
(0.119214 -0.00018162 -0.00025181)
(0.121422 -0.000389064 -0.000173134)
(0.121001 -4.72951e-05 0.000170993)
(0.12079 7.4901e-05 -0.000113477)
(0.120123 0.000258076 0.00023036)
(0.1168 -0.000246863 -0.000475218)
(0.120371 -0.00027383 -0.000577749)
(0.111848 0.000177969 0.000161711)
(0.113745 -0.00024915 0.00065981)
(0.113448 -0.00040506 0.000302805)
(0.103621 -0.000457102 0.000370739)
(0.119949 -0.000411937 7.34069e-06)
(0.119201 -0.000475554 0.000270541)
(0.114862 -0.000394518 0.000797538)
(0.113704 -0.000965542 -0.000342223)
(0.106305 -0.000501369 -0.000211468)
(0.118443 0.00033971 -0.000173679)
(0.118655 0.000461267 0.000180621)
(0.103007 0.000128168 -0.00021743)
(0.119387 -0.00021002 0.000333243)
(0.121372 -0.000356162 0.000316578)
(0.114477 -0.000334183 0.000266568)
(0.116933 0.000314551 0.000293195)
(0.117617 -0.000309947 4.1444e-05)
(0.115179 0.000453026 -0.000219844)
(0.115298 0.000198715 -0.000276956)
(0.115707 0.000370544 -0.000548018)
(0.104925 3.22691e-05 -0.000115646)
(0.119232 -7.81328e-05 0.000133287)
(0.118627 -9.69932e-06 0.00014592)
(0.118139 -8.90686e-06 0.000215042)
(0.120007 0.000653616 -0.000268266)
(0.120828 0.000693566 -0.000238376)
(0.118148 7.17629e-05 -0.000179299)
(0.118957 1.92977e-05 -0.000327895)
(0.120975 -0.000559936 -0.000194379)
(0.120583 5.80494e-05 0.000253809)
(0.116021 -0.000510422 -3.32128e-05)
(0.115808 -0.000255881 -0.000104606)
(0.104336 -0.000276276 0.000102487)
(0.114614 -0.000865951 0.000170401)
(0.113365 -0.000571225 0.000521312)
(0.105927 -0.000551214 0.000143367)
(0.12031 -0.000643842 0.000313949)
(0.118698 -0.000157646 0.000496317)
(0.119726 -0.000473469 0.000564841)
(0.118514 -0.000309211 7.4315e-05)
(0.120704 0.000168156 -0.000629141)
(0.12149 4.73533e-05 -0.000606276)
(0.119417 0.000192535 -0.000450997)
(0.115342 0.000487396 0.000110118)
(0.116102 0.000167341 4.06337e-05)
(0.104209 0.000308423 -0.000446548)
(0.120894 -0.000653114 9.93673e-05)
(0.120842 -0.000694896 0.00032107)
(0.120647 -0.000506634 0.000272723)
(0.117677 -7.1553e-05 -0.000212419)
(0.115568 0.000111713 -0.000478822)
(0.106159 -1.61353e-05 -0.000378352)
(0.113919 -0.000214211 0.000209545)
(0.113906 -0.000479862 8.73483e-05)
(0.106649 -0.00028024 -4.49485e-05)
(0.118356 0.000210033 -0.000400781)
(0.118021 0.000175771 -0.000307424)
(0.119399 0.00029966 -0.000122017)
(0.113956 -0.000205609 -0.000326025)
(0.11866 -0.000302802 -0.000287817)
(0.120393 -0.000445157 5.57943e-05)
(0.118464 -0.00026582 0.000426445)
(0.119868 -0.000310483 4.75238e-05)
(0.117007 -0.00106932 0.000278428)
(0.118585 -0.000827877 5.33766e-05)
(0.118722 -0.00078575 -6.08171e-05)
(0.112201 -0.000802105 -0.000137163)
(0.114165 -0.000293104 0.00055296)
(0.11775 4.66673e-05 0.000518615)