/*--------------------------------*- C++ -*----------------------------------*\
| =========                 |                                                 |
| \\      /  F ield         | OpenFOAM: The Open Source CFD Toolbox           |
|  \\    /   O peration     | Version:  2212                                  |
|   \\  /    A nd           | Website:  www.openfoam.com                      |
|    \\/     M anipulation  |                                                 |
\*---------------------------------------------------------------------------*/
FoamFile
{
    version     2.0;
    format      ascii;
    arch        "LSB;label=32;scalar=64";
    class       volScalarField;
    location    "0.028";
    object      epsilon;
}
// * * * * * * * * * * * * * * * * * * * * * * * * * * * * * * * * * * * * * //

dimensions      [0 2 -3 0 0 0 0];

internalField   nonuniform List<scalar> 
31639
(
1.09211
1.08535
1.0944
1.09261
1.10184
1.08541
1.11463
1.10014
1.09403
1.08997
1.0962
1.09036
1.08393
1.08371
1.07752
1.11197
1.09551
1.10006
1.09157
1.08458
1.12871
1.09834
1.08996
1.09869
1.10443
1.0937
1.08136
0.920662
1.10554
1.09509
1.08896
1.10189
1.08847
1.10304
1.12737
1.09516
1.12257
1.09692
1.09018
1.13691
1.11559
1.11785
1.08394
1.0956
1.10027
1.08843
1.08465
1.0982
1.09218
1.09158
1.08805
1.12176
1.10099
1.13636
1.09504
1.09898
1.12527
1.08771
1.08369
1.12526
1.09411
1.09908
1.11782
1.08131
1.09306
1.08807
1.08501
1.08648
1.12299
1.08995
1.09118
1.06974
1.08479
1.08405
1.09947
1.13049
1.08728
1.0997
1.0807
1.09896
1.1006
1.13871
1.08867
1.09007
1.07621
1.0883
1.09139
1.0901
1.10919
1.09304
1.08644
1.09314
1.11745
1.0816
1.09565
1.08119
1.09346
1.08402
1.08718
1.12394
1.0946
1.08876
1.07527
1.12299
1.11639
1.09088
1.12308
1.12925
1.10785
1.1348
1.0698
1.11778
1.08861
1.10162
1.08139
1.128
1.11318
1.10947
1.10034
1.08532
1.09475
1.09038
1.08313
1.09287
1.09943
1.09389
1.08821
1.10327
1.10292
1.08355
1.08399
1.07711
1.07702
1.10077
1.09163
1.08614
1.12094
1.12541
1.08782
1.08686
1.08541
1.09076
1.09036
1.12178
1.13592
1.08622
1.09086
1.12525
1.11776
1.09096
1.12172
1.09708
1.09429
1.09158
1.12217
1.08972
1.09262
1.12386
1.10607
1.0995
1.08769
1.12793
1.12256
1.12712
1.12995
1.08089
1.12784
1.09238
1.08833
1.11416
1.06768
1.08038
1.12374
1.08409
1.08856
1.09302
1.08759
1.09378
1.08649
1.07643
1.08135
1.08594
1.06757
1.1343
1.0997
1.09231
1.06727
1.09264
1.13097
1.12024
1.10266
1.09561
1.08568
1.083
1.08256
1.09756
1.1065
1.08448
1.11787
1.09691
1.08943
1.09756
1.06802
1.07012
1.10411
1.08689
1.08013
1.07544
1.09275
1.13747
1.08584
1.10372
1.09244
1.09243
1.09919
1.08416
1.11944
1.10922
1.09913
1.09098
1.08409
1.10322
1.12404
1.10012
1.12553
1.11045
1.09394
1.10892
1.1235
1.09508
1.09151
1.09318
1.11104
1.13146
1.08517
1.08712
1.11055
1.08169
1.12576
1.12054
1.07978
1.08187
1.0775
1.10497
1.13002
1.0955
1.07573
1.07795
1.10566
1.08655
1.06951
1.13337
1.11189
1.09163
1.09578
1.1069
1.12045
1.08367
1.08188
1.10974
1.09197
1.0871
1.10067
1.08993
1.08317
1.09897
1.11197
1.10052
1.07151
1.07081
1.07391
1.0974
1.10298
1.10693
1.09338
1.09246
1.11814
1.10086
1.11403
1.08743
1.09833
1.09517
1.09487
1.10603
1.11538
1.13293
1.11883
1.13028
1.08169
1.11641
1.10419
1.0753
1.097
1.11588
1.0982
1.10112
1.13395
1.09126
1.11296
1.13611
1.08872
1.1071
1.08382
1.07686
1.12568
1.0962
1.0766
1.12208
1.13178
1.08674
1.09195
1.07485
1.12556
1.13211
1.08669
1.10881
1.09676
1.0932
1.0944
1.08079
1.08762
1.09056
1.11956
1.08418
1.13389
1.13605
1.09184
1.08572
1.08527
1.08992
1.09317
1.11477
1.07063
1.07779
1.09367
1.10385
1.09705
1.08349
1.0684
1.0949
1.08647
1.08417
1.07698
1.08692
1.07779
1.08959
1.08859
1.06639
1.12484
1.10647
1.09543
1.09891
1.10209
1.07811
1.08145
1.12301
1.07927
1.08476
1.12811
1.09676
1.11836
1.10126
1.08827
1.12527
1.08694
1.08495
1.1236
1.09328
1.12295
1.08893
1.09863
1.10142
1.13314
1.09165
1.11647
1.09149
1.08715
1.09371
1.10033
1.12531
1.07735
1.11728
1.0803
1.12514
1.08598
1.08189
1.08854
1.0875
1.0961
1.10222
1.08882
1.09552
1.08352
1.13832
1.08861
1.08209
1.07634
1.07937
1.09226
1.09633
1.09123
1.13127
1.10401
1.09149
1.08414
1.12671
1.09377
1.08798
1.08789
1.07056
1.07999
1.10459
1.08123
1.10998
1.09077
1.09085
1.12929
1.09688
1.09126
1.12568
1.11663
1.12104
1.11298
1.13608
1.08825
1.07211
1.11135
1.10448
1.12096
1.08336
1.08902
1.08488
1.08503
1.0963
1.09498
1.09179
1.11477
1.08635
1.08236
1.1228
1.08423
1.09703
1.08826
1.0943
1.09361
1.07526
1.09311
1.0909
1.09073
1.10192
1.11835
1.08833
1.1294
1.11657
1.08156
1.12867
1.14373
1.09943
1.08132
1.09082
1.12717
1.09213
1.11291
1.08014
1.09625
0.922079
1.0792
1.13617
1.07797
1.08586
1.09763
1.08211
1.10014
1.10546
1.09394
1.07796
1.08305
1.12873
1.13004
1.08313
1.12588
1.11949
1.08897
1.13076
1.09645
1.11123
1.09822
1.11387
1.08957
1.0865
1.08676
1.08426
1.13154
1.09133
1.093
1.09824
1.0975
1.08656
1.084
1.10471
1.10578
1.089
1.08836
1.08018
1.09506
1.08976
1.08512
1.12463
1.14159
1.09148
1.10385
1.08756
1.08414
1.10159
1.11228
1.08536
1.0929
1.10854
1.08652
1.11807
1.08414
1.10019
1.09636
1.13383
1.1155
1.11337
1.07671
1.07754
1.11997
1.09214
1.10563
1.08834
1.08906
1.08006
1.09869
1.12656
1.08779
1.08146
1.11353
1.08691
1.09858
1.07602
1.08266
0.930825
1.12027
1.08113
1.08555
1.12214
1.11973
1.08825
1.08024
1.0931
1.12592
1.1047
1.09036
1.08338
1.11259
1.12842
1.09061
1.08808
1.1245
1.12226
1.09244
1.12351
1.08547
1.09606
1.12377
1.08042
1.10992
1.10679
1.14312
1.09199
1.11379
1.11592
1.08648
1.08866
1.08427
1.08472
1.12152
1.09225
1.09406
1.09603
1.1427
1.12078
1.11458
1.07768
1.08578
1.09776
1.08271
1.08179
1.11179
1.08357
1.09884
1.10573
1.11427
1.08646
1.09451
1.1098
1.12609
1.12741
1.0888
1.0971
1.09205
1.08189
1.11172
1.08973
1.08692
1.11483
1.0915
1.11179
1.08131
1.08338
1.13423
1.08933
1.09145
0.918182
1.12213
1.13725
1.10659
1.08502
1.08678
1.08808
1.08296
1.08708
1.08598
1.08695
1.12711
1.08566
1.13598
1.08735
1.10113
1.1033
1.09282
1.08277
1.11314
1.12143
1.14109
1.10108
1.08563
1.09871
1.08956
1.1154
1.08276
1.12608
1.07836
1.093
1.09196
1.08777
1.07762
1.08653
1.11042
1.09963
1.09801
1.09683
1.12559
1.0813
1.11339
1.09264
1.11167
1.0851
1.11885
1.082
1.1193
1.08587
1.10884
1.10107
1.08839
1.08057
1.11093
1.07366
1.11523
1.14203
1.13643
1.13555
1.11438
1.09177
1.13685
1.06703
1.09544
1.13027
1.09361
1.12704
1.08918
1.07528
1.09094
1.09259
1.08527
1.08361
1.09554
1.08896
1.07649
1.10409
1.09756
1.11749
0.933365
1.09253
1.0839
1.09276
1.09214
1.12264
1.09156
1.09641
1.08672
1.08113
1.08304
1.086
1.09006
1.09263
1.09185
1.09391
1.09295
1.12401
1.08958
1.09843
1.0953
1.07158
1.07872
1.09727
1.09905
1.08854
1.09155
1.1123
1.13749
1.08787
1.09353
1.10537
1.13204
1.08111
1.11577
1.0737
1.10489
1.0774
1.10552
1.09217
1.10418
1.12647
1.08461
1.11681
1.10336
1.11789
1.08123
1.08161
1.07872
1.08757
1.07201
1.09403
1.10932
1.08428
1.12474
1.08013
1.09392
1.07692
1.12795
1.07927
1.08151
1.08199
1.11072
1.08883
1.08316
1.08586
1.11885
1.12562
1.07571
1.1149
1.09514
1.09637
1.09098
1.07908
1.12035
1.0742
1.08509
1.11026
1.11188
1.07185
1.11806
1.11567
1.12619
1.09729
1.11256
1.10007
1.09138
1.11877
1.07839
1.08026
1.0875
1.09645
1.08575
1.1286
1.08081
1.10162
1.10324
1.09063
1.08912
1.09515
1.09594
1.08101
1.10409
1.09616
1.10269
1.08225
1.10085
1.08695
1.07906
1.12096
1.06719
1.09859
1.08314
1.10611
1.09277
1.09348
1.09429
1.07006
1.10093
1.09082
1.09679
1.10061
1.11827
1.08429
1.08969
1.1313
1.09885
1.08412
1.09955
1.08176
1.08683
1.08037
1.08225
1.08346
1.08982
1.08527
1.0977
1.08712
1.10341
1.12285
1.08832
1.13828
1.08484
1.09891
1.0834
1.08954
1.0964
1.12938
1.09434
1.12221
1.08724
1.11596
1.08072
1.08199
1.08712
1.12181
1.0879
1.0932
1.10887
1.09605
1.10005
1.13136
1.09522
1.09338
1.08759
1.08171
1.08612
1.08096
1.11697
1.08702
1.10841
1.0999
1.0925
1.109
1.12093
1.10752
1.08907
1.10262
1.09072
1.10432
1.09887
1.07714
1.10399
1.08957
1.10417
1.13388
1.09526
1.08015
1.09961
1.1141
1.07724
1.08715
1.12352
1.12476
1.09547
1.09483
1.07055
1.10419
1.07903
1.09216
1.12508
1.09539
1.08022
1.08419
1.09512
1.07894
1.09554
1.07703
1.07209
1.09098
1.11184
1.08739
1.08564
1.10609
1.08445
1.1277
1.08035
1.08745
1.12308
1.08722
1.0976
1.08104
1.09824
1.09525
1.13443
1.13327
1.09513
1.11478
1.07673
1.08718
1.08248
1.09126
1.11313
1.08563
1.10187
1.10291
1.10583
1.07809
1.08661
1.09475
1.13402
1.09218
1.0929
1.08291
1.09263
1.13924
1.11107
1.0867
1.08595
1.10334
1.08082
1.11244
1.08573
1.10358
1.08867
1.07599
1.10512
1.12118
1.08679
1.11384
1.12205
1.10493
1.08191
1.10431
1.09745
1.09871
1.10749
1.13015
1.0886
1.11684
1.09435
1.10917
1.12242
1.10695
1.12433
1.08763
1.09855
1.08848
1.14028
1.11659
1.07835
1.09399
1.09715
1.08417
1.0973
1.07684
1.12701
1.12783
1.1007
1.08943
1.08907
1.09632
1.08479
1.10907
1.08636
1.0931
1.10091
1.08164
1.14067
1.09888
1.08538
1.08551
1.09821
1.10328
1.10695
1.08558
1.08814
1.12626
1.09414
1.11678
1.09269
1.09768
1.08151
1.13186
1.0816
1.10185
1.09611
1.08559
1.133
1.082
1.09517
1.08156
1.11871
1.10271
1.08794
1.0725
1.09778
1.09466
1.08776
1.08432
1.11198
1.10597
1.13371
1.13609
1.13133
1.11742
1.09057
1.12816
1.09347
1.08837
1.11109
1.08754
1.08278
1.08701
1.08941
1.09225
1.11304
1.09316
1.11352
1.11739
1.08281
1.08133
1.08347
1.08025
1.10347
1.10353
1.09934
1.08535
1.09858
1.09235
1.10365
1.09967
1.10162
1.09511
1.07963
1.08717
1.08834
1.08576
1.085
1.09337
1.08766
1.09077
1.13142
1.14294
1.08242
1.11909
1.11294
1.10475
1.1208
1.09356
1.09333
1.12859
1.1028
1.0829
1.09264
1.09043
1.07774
1.13523
1.08628
1.11195
1.09989
1.0876
1.09299
1.1353
1.11629
1.11692
1.09963
1.09626
1.09329
1.09972
1.09897
1.08302
1.09962
1.10015
1.09902
1.14831
1.11145
1.09297
1.10552
1.11392
1.09432
1.12269
1.09446
1.10518
1.10217
1.09517
1.08344
1.12833
1.09403
1.12504
1.0799
1.08881
1.10574
1.10576
1.09827
1.09795
1.10396
1.09166
1.10798
1.11445
1.0899
1.14365
1.07701
1.09005
1.09471
1.07979
1.09665
1.11765
1.11417
1.09159
1.12868
1.0827
1.10498
1.09419
1.08445
1.09231
1.12371
1.13385
1.12288
1.09962
1.13957
1.08043
1.08536
1.11829
1.098
1.08965
1.09698
1.10904
1.11004
1.08407
1.08823
1.09993
1.09805
1.11063
1.08643
1.10602
1.10065
1.11374
1.09117
1.10912
1.09355
1.10249
1.14049
1.13111
1.09586
1.09601
1.10511
1.149
1.08979
1.09132
1.08591
1.13289
1.10588
1.08882
1.10095
1.11339
1.13174
1.09967
1.12232
1.10869
1.0997
1.09282
1.09326
1.08746
1.13452
1.13173
1.08264
1.10991
1.1064
1.10923
1.1401
1.0804
1.08308
1.11469
1.0817
1.09042
1.09886
1.09022
1.09954
1.09249
1.08575
1.12812
1.09351
1.09022
1.13799
1.09236
1.08819
1.11017
1.08124
1.03071
1.08287
1.08372
1.09122
1.13972
1.08416
1.09146
1.13279
1.0929
1.07933
1.11401
1.09253
1.12659
1.12373
1.08736
1.09923
1.08832
1.09676
1.08411
1.07243
1.08055
1.07963
1.07746
1.10388
1.12127
1.08348
1.09759
1.09389
1.1091
1.11738
1.11923
1.09819
1.13509
1.09554
1.09872
1.09173
1.13615
1.08581
1.1457
1.08858
1.13934
1.10042
1.10383
1.10469
1.08835
1.1233
1.12007
1.09294
1.10372
1.111
1.0909
1.11607
1.07814
1.10295
1.08751
1.11858
1.12291
1.08267
1.08425
1.10015
1.10376
1.10851
1.09881
1.08881
1.08017
1.08845
1.09137
1.08561
1.09124
1.09031
1.12664
1.08082
1.09818
1.08158
1.08996
1.09844
1.13901
1.09799
1.09327
1.10309
1.09366
1.1006
1.08529
1.0803
1.08314
1.0896
1.08114
1.08916
1.10385
1.10646
1.07209
1.08647
1.0955
1.12745
1.09096
1.11764
1.0904
1.11831
1.12337
1.07574
1.11745
1.12369
1.09625
1.08717
1.08873
1.10018
1.08045
1.10513
1.13953
1.14207
1.12197
1.10411
1.09129
1.09964
1.09651
1.13863
1.10504
1.09309
1.08924
1.12553
1.12708
1.09364
1.10249
1.11037
1.09817
1.12981
1.11526
1.12064
1.0946
1.08173
1.12205
1.09649
1.09656
1.11786
1.13101
1.08808
1.10116
1.10242
1.08358
1.10379
1.08124
1.10343
1.07694
1.11356
1.09769
1.10512
1.08509
1.10251
1.09425
1.09119
1.07582
1.11461
1.07799
1.07777
1.08581
1.08144
1.08751
1.1189
0.972356
1.09024
1.11504
1.09451
1.09522
1.07953
1.12687
1.08661
1.09717
1.13601
1.10575
1.08879
1.12281
1.11329
1.08743
1.08293
1.08966
1.10439
1.12625
1.08376
1.10271
1.0956
1.09394
1.0854
1.12535
1.09381
1.08699
1.12506
1.11907
1.13498
1.10196
1.08034
1.10756
1.09283
1.08764
1.0865
1.0892
1.12343
1.12779
1.10599
1.10429
1.13323
1.10287
1.1087
1.13732
1.08865
1.10435
1.13142
1.0903
1.08003
1.14096
1.13964
1.08777
1.10188
1.11529
1.09812
1.11872
1.12163
1.12567
1.09507
1.12069
1.13271
1.09005
1.07442
1.08627
1.10933
1.09213
1.08996
1.09634
0.893888
1.10002
1.1154
1.07997
1.10368
1.07684
1.09911
1.08184
1.10961
1.08457
1.08388
1.08746
1.1319
1.11038
1.12662
1.1011
1.12006
1.09687
1.10596
1.09887
1.08381
1.09795
1.10717
1.09068
1.09774
1.08644
1.08363
1.12621
1.08538
1.09035
1.08949
1.07991
1.09789
1.11089
1.10444
1.08322
1.12146
1.11072
1.09079
1.08082
1.08021
1.10115
1.09936
1.12747
1.11048
1.0816
1.09667
1.09566
1.08027
1.1085
1.10102
1.1139
1.1261
1.12463
1.13538
1.07988
1.08632
1.08989
1.07663
1.1022
1.10442
1.15196
1.08595
1.10066
1.09782
1.06971
1.08723
1.08996
1.0973
1.09621
0.943796
1.11224
1.0989
1.09385
1.08708
1.10611
1.09786
1.09353
1.08743
1.10742
1.08148
1.1081
1.08129
1.08326
1.12756
1.0861
1.09414
1.10548
1.08456
1.10951
1.12532
1.08204
1.09279
1.1193
1.08048
1.08257
1.08208
1.07749
1.09685
1.0926
1.09509
1.09739
1.14745
1.15057
1.08553
1.118
1.1156
1.08805
1.12032
1.09599
1.08752
1.10938
1.10226
1.08119
1.1154
1.09889
1.09124
1.10507
1.08642
1.10412
1.12588
1.09401
1.13868
1.15113
0.96325
1.10408
1.12905
1.09173
1.09015
1.11968
1.10133
1.12943
1.12936
1.08042
1.09529
1.12224
1.13627
1.08337
1.12247
1.08137
1.09959
1.10851
1.07975
1.12809
1.12367
1.0859
1.1
1.13512
1.12482
1.10613
1.10621
1.09308
1.08112
1.14176
1.09827
1.1241
1.14458
1.11501
1.1111
1.11053
1.10352
1.11301
1.08464
1.12562
1.12516
1.08362
1.08844
1.08823
1.14312
1.13583
1.10086
1.08597
1.07774
1.08696
1.09654
1.07382
1.07879
1.11332
1.09031
1.10411
1.1143
1.1352
1.08096
1.08123
1.09282
1.08018
1.09114
1.12403
1.10278
1.12486
1.15039
1.11362
1.13302
1.11353
1.0862
1.0371
1.11793
1.09005
1.08596
1.09199
1.09395
1.15657
1.08958
1.10627
1.10126
1.12971
1.09504
1.12692
1.09153
1.11229
1.11291
1.10173
1.13053
1.10811
1.07908
1.08702
1.09359
1.09299
1.09936
1.12618
1.09599
0.960897
1.08821
1.09398
1.09202
1.10627
1.06728
1.09962
1.09976
1.09662
1.09537
1.08889
1.09707
1.09222
1.11908
1.09944
1.10136
1.08258
1.09481
1.08889
1.10348
1.10462
1.07798
1.09978
1.07156
1.07803
1.09632
1.10135
1.00649
1.07499
1.10417
1.09633
1.09062
1.08194
1.12348
1.1062
1.08925
1.08081
1.08937
1.0871
1.09105
1.08398
1.08762
1.11817
1.12434
1.0855
1.09165
1.09474
1.09061
1.11849
1.08563
1.14009
1.0868
1.09425
1.07707
1.09344
1.08989
1.07495
1.08535
1.11756
1.09181
1.09167
1.10219
1.11011
1.103
1.08123
1.08876
1.0846
1.08593
1.09734
1.11806
1.08771
1.11188
1.09431
1.09769
1.09831
1.12623
1.12454
1.0987
1.09339
1.09175
1.10379
1.1077
1.1212
1.09681
1.0907
1.12881
1.11067
1.10801
1.0903
1.09777
1.09633
1.05467
1.09805
0.984095
1.11277
1.08595
1.08873
1.09624
1.06993
1.09593
1.13722
1.10614
1.10078
1.11507
1.11481
1.09207
1.10118
1.0915
1.07197
1.12716
1.07524
1.09232
1.09815
1.08983
1.07954
1.09483
1.06039
1.09295
1.10706
1.10917
1.08652
1.13854
1.13705
1.10708
1.09432
1.11283
1.10669
1.09343
1.10584
1.1343
1.09827
1.10188
1.10361
1.13083
1.11684
1.10264
1.06822
1.0851
1.10303
1.08766
1.10215
1.09104
1.11581
1.08732
1.12533
1.08136
1.07456
1.08046
1.08124
1.08709
1.08148
1.11694
1.08439
1.08785
1.1153
1.0871
1.08285
1.1046
1.09639
1.10145
1.08788
1.10015
1.08326
1.08929
1.09543
1.08817
1.0796
1.13438
1.06991
1.12783
1.10162
1.09375
1.09111
1.08499
1.09482
1.06192
1.09005
1.12044
1.1019
1.09418
1.09323
1.08451
1.12971
1.12703
1.08321
1.14412
1.08145
1.08958
1.13205
1.08623
1.10328
1.10849
1.11419
1.10902
1.12538
1.10664
1.12833
1.09699
1.06612
1.14255
1.10088
1.09357
1.09049
1.08148
1.10275
1.08322
1.10031
1.11322
1.09968
1.08989
1.10827
1.11133
1.07706
1.09333
1.09035
1.11011
1.07507
1.0935
1.10316
1.11592
1.09775
1.0758
1.07777
1.09608
1.11976
1.08472
1.08805
1.08922
1.10311
1.15486
1.07828
1.10547
1.07182
1.08463
1.09591
1.11357
1.08971
1.09125
1.08454
1.07279
1.0972
1.12107
1.11206
1.09053
1.09069
1.0332
1.10362
1.09316
1.11586
1.08702
1.13168
1.08608
1.09396
1.08915
1.12049
1.09227
1.12067
1.09547
1.1041
1.10352
1.10888
1.11673
1.10149
1.09184
1.11682
1.10294
1.07257
1.13656
1.10117
1.09616
1.13562
1.10284
1.07578
1.10363
1.09236
1.10204
1.09645
1.07185
1.09743
1.12785
1.1249
0.928475
1.09075
1.07525
1.07984
1.0875
1.1108
1.11091
1.07695
1.09929
1.11617
1.08645
1.07656
1.1124
1.07363
1.07075
1.08398
1.12654
1.09532
1.098
1.13308
1.06829
1.07803
1.09015
1.0776
1.09202
1.09164
1.12337
1.09992
1.1201
1.08057
1.08126
1.052
1.07352
1.08989
1.111
1.08421
1.08578
1.07127
1.115
1.09664
1.09323
1.07525
1.09747
1.09368
1.10783
1.10265
1.13009
1.09305
1.11614
1.10368
1.09067
1.09133
1.11104
1.09221
1.09656
1.10112
1.09379
1.09104
1.06059
1.08516
1.12965
1.0872
1.0797
1.11655
1.08552
1.06986
1.0736
1.09763
1.13165
1.08862
1.08478
1.09171
1.09187
1.09477
1.13119
1.12896
1.09218
1.12316
1.08341
1.09513
1.11558
1.10053
1.08795
1.10058
1.11237
1.10575
1.10749
1.08283
1.08284
1.10388
1.09333
1.07589
1.09742
1.12614
1.07955
1.09699
1.07392
1.12107
1.11057
1.08977
0.91227
1.1011
1.07948
1.08652
1.0929
1.05733
1.08982
1.09856
1.11747
1.08689
1.11159
1.08853
1.0825
1.08037
1.07694
1.07248
1.08345
1.07763
1.10852
1.12288
1.0877
0.955807
1.09943
1.08687
1.07135
1.07561
1.09176
1.07995
1.10602
1.07359
1.12555
1.08514
1.10196
1.08657
1.06822
1.07251
1.10195
1.08987
1.09597
1.08734
1.10813
1.10219
1.11035
1.11309
1.11712
1.12078
1.12447
1.10448
1.09893
1.12739
1.09266
1.07301
1.08211
1.06324
1.09354
1.07711
1.08439
1.05717
1.09042
1.08179
1.07929
1.087
1.1414
1.07446
1.1039
1.07738
1.09427
1.08549
1.09186
1.09446
1.13459
1.10516
1.12508
1.08512
1.09264
1.12019
1.11229
1.09007
1.10401
1.09727
1.10175
1.11987
1.08669
1.11515
1.10661
0.958393
0.976078
1.06349
1.11205
1.09661
1.08783
1.11921
1.08802
1.0852
1.06727
1.08221
1.11733
1.08977
0.917292
1.08566
1.09954
1.1133
1.07852
1.12344
1.10955
1.10497
1.08815
1.07156
1.07257
1.09993
1.08261
1.02932
1.09303
1.08581
1.08661
1.09401
1.11339
1.07384
1.07802
1.08641
0.951944
1.12055
1.06767
1.12054
1.11376
1.07995
1.08748
1.10472
1.10534
1.10399
1.08288
1.10844
0.930994
1.13165
1.09187
1.12972
1.09839
1.10693
1.09852
1.08889
1.09361
1.11089
1.10659
1.09673
1.09642
1.10027
1.08874
1.08817
1.09016
1.07947
1.10787
1.0886
1.10754
1.06748
1.07549
1.07115
1.08821
1.08045
1.09314
1.08486
1.12142
1.07626
1.07639
1.13479
1.08461
1.08421
1.10116
1.12455
1.09205
1.10028
1.12058
0.927498
1.10935
1.08319
1.15216
1.09346
1.14993
1.1202
1.09311
1.09278
1.12597
1.09521
1.08575
0.974292
1.12991
1.08814
1.09017
1.1507
1.08638
1.14527
1.15663
1.09846
1.08859
1.1083
1.08289
1.09429
1.07425
1.09949
1.0594
1.11344
1.08957
1.08397
1.07331
1.11073
1.03894
1.10304
1.10788
1.08274
1.07138
1.09748
1.09696
1.08825
1.08156
1.08536
1.09196
1.08858
1.08138
1.08117
1.06671
1.07639
1.09507
1.09302
1.04603
1.03116
1.07813
1.09083
1.10471
1.06172
1.07145
1.10479
1.09099
1.03969
1.11258
1.09955
1.08084
1.02417
1.08454
1.09142
1.08817
1.12027
1.09427
1.12531
1.10563
1.09575
1.13234
1.08144
1.08376
1.08101
1.08822
1.11854
1.10126
1.08054
1.09463
1.09752
0.904469
1.08424
1.10029
1.09645
1.06984
1.07583
0.922833
1.08708
1.08335
1.10297
1.13258
1.11148
1.07754
1.07463
1.10462
1.12457
1.08646
1.09239
1.07994
1.12524
1.13466
1.10542
1.1067
1.08455
1.08416
1.09482
1.09431
1.08754
0.974277
1.0909
1.09001
1.09284
1.09996
1.08771
1.05388
1.11523
1.09516
1.08581
1.01469
1.00315
1.08691
1.09541
1.07935
1.13557
1.06871
1.06627
1.08057
1.07527
1.06534
1.08266
1.09465
1.08886
1.07741
1.08641
1.07567
1.08828
1.08758
1.09566
1.07434
1.07117
1.11289
1.10562
1.12712
1.10366
1.06477
1.08596
1.11783
1.1005
1.10144
1.1177
1.09409
1.08183
1.06627
1.06975
1.08387
1.08995
1.07438
1.12361
1.08851
1.11305
1.09479
1.06667
1.08768
1.07172
1.07852
1.07028
1.09774
1.11235
1.10545
1.11457
1.09777
0.939646
1.08804
1.09119
1.07514
1.08399
1.10487
1.10239
0.945475
1.09164
1.07888
0.97207
1.1104
1.1215
1.08179
1.07772
1.11587
0.917042
1.07574
1.12269
1.0852
1.09762
1.08576
1.13015
1.08595
1.11078
1.10665
1.11168
1.07604
1.08193
1.09149
1.09479
1.09304
1.09239
1.13536
1.13008
1.1021
1.09014
1.1029
1.08017
1.11981
1.0729
1.11532
1.00882
1.0876
1.10084
1.12202
1.1168
1.0802
1.11968
1.10626
1.0675
1.06318
1.08671
1.09902
1.10089
1.12299
1.07781
1.099
1.0373
1.08013
1.08633
1.08316
1.07161
1.03798
1.02216
1.08325
1.1127
1.08478
1.08556
1.07514
1.09901
1.00341
1.01795
1.07
1.00698
1.07123
1.06965
1.10677
1.06802
1.0871
1.0195
0.961686
1.12278
1.08987
0.954946
1.11477
1.10477
1.06319
1.09204
1.01813
1.12081
1.12669
1.09226
0.941009
1.09988
1.13541
1.07677
1.08903
1.12041
1.09219
0.973035
1.12866
1.09702
1.08778
1.09385
1.08334
1.08193
1.07326
1.07075
1.07753
1.07478
1.0801
1.06369
1.04212
1.07984
1.06092
1.07057
1.09579
1.1079
1.06247
1.06323
1.09176
1.09404
1.09649
1.09501
1.11935
1.07769
1.10737
1.08812
1.09315
1.06575
1.0859
1.11728
1.1008
1.10897
1.11664
1.03891
1.11028
1.02147
1.08122
1.10155
1.08438
1.06289
1.12209
1.07313
1.05057
1.11266
1.08241
1.07089
0.932207
1.00921
1.09131
1.10264
1.06858
1.03705
1.05156
1.1242
1.05788
1.05056
1.08676
1.11198
1.11129
1.03396
1.08696
1.03517
1.09183
1.07968
1.09139
1.09993
1.06011
1.04097
1.08962
1.11932
1.08681
1.10334
1.13345
1.00103
1.08453
1.10897
1.10204
1.12652
1.08791
1.0669
1.07722
0.92045
1.09029
1.10046
1.07741
1.07424
1.0694
1.07884
1.0826
1.10309
1.09151
1.09141
1.08525
1.09837
1.09551
1.1142
0.995797
1.10547
1.00335
1.07187
1.0932
1.05153
1.09344
1.11708
1.10143
1.09206
1.06727
1.02733
1.0488
0.932783
1.08149
1.0751
1.10334
1.08886
1.13032
1.07343
1.10248
1.03388
1.04859
1.05905
1.0206
1.08976
1.07371
1.06404
1.07422
1.06908
1.12773
1.10454
1.1285
1.00252
1.07948
0.925889
0.918309
1.09777
1.00988
1.12377
1.08446
1.12753
1.12003
1.05454
1.11784
1.10359
1.05486
0.9947
1.07538
1.12654
1.0743
1.08671
1.04143
1.0872
1.07148
1.05361
1.03849
1.11803
1.09332
1.07926
1.09681
1.08584
1.10104
1.07342
1.08094
1.08538
1.10484
1.07841
0.917705
0.916218
1.01897
1.08867
1.05384
1.08264
0.963346
1.13809
1.08504
1.09991
1.05168
1.13465
1.06228
1.05484
1.11625
1.14355
1.03887
1.1038
0.944961
1.03971
0.971813
1.08059
1.12363
1.10729
1.07219
1.10247
0.993444
1.1002
0.954572
1.07642
1.06645
1.09372
1.00837
1.13327
1.02925
1.0858
1.02358
1.02305
1.10074
1.0594
1.14168
1.05617
1.08755
1.05281
1.07488
1.08763
1.04439
1.09917
1.11692
1.06569
1.127
0.948538
1.11897
1.10366
1.05824
1.06194
1.08754
1.08599
1.03078
1.11607
1.08219
1.00425
1.07517
1.11674
0.960796
1.09598
0.956658
1.07859
1.10376
1.09085
1.01186
1.09381
1.09331
1.11476
1.08382
1.08874
1.11366
0.934053
1.06121
1.06075
1.11178
1.10733
1.00067
1.09357
1.032
1.03063
0.951487
0.91116
0.929353
1.10899
1.0448
1.10381
1.06815
1.08838
1.08378
1.09305
1.0405
0.925314
1.05425
1.08713
1.07728
1.0824
0.96509
1.13682
1.07251
1.0839
1.1004
1.04957
1.04195
1.08843
1.07267
1.0543
1.08356
1.0486
1.04691
1.05365
1.11428
1.00226
1.02107
1.0159
1.0755
1.02858
1.02119
1.03489
1.10305
1.01374
1.13035
1.1115
1.09675
0.960859
1.08674
1.07609
1.00565
1.07061
1.08577
1.0992
0.926081
1.08394
1.01688
1.08497
1.11341
1.0867
1.01618
1.1081
1.08275
1.07375
1.02219
1.01107
1.09256
1.08775
0.960752
0.957223
1.07731
0.965216
0.979708
1.05237
0.979634
1.09303
0.977908
1.01413
1.03276
1.05125
1.04011
1.01672
0.953883
1.07524
1.00971
1.11237
1.08953
1.09191
1.07107
1.04557
0.94815
1.0352
0.934857
0.945958
1.08789
1.08996
1.04413
1.10356
1.07505
1.08093
1.07846
0.950555
1.03897
1.12194
1.06989
1.10805
0.996656
1.10299
1.08489
1.11159
1.11207
1.06884
1.02194
1.03232
1.03478
1.08346
1.10632
1.09487
1.03048
0.994512
1.1344
1.0163
0.937785
0.979608
1.07017
1.03252
1.05543
1.02022
1.05316
1.06022
0.942052
1.11056
1.09827
0.990645
1.09656
1.03096
1.03727
1.09306
1.02773
1.1258
1.0524
1.0208
1.08926
0.980038
0.996589
1.0977
1.06671
0.960943
1.08834
1.06852
1.06154
1.07604
1.03182
1.0698
0.999471
1.04893
1.07482
1.04816
1.04184
1.07589
1.04801
0.971717
0.987202
0.944703
1.08001
1.08073
0.961726
1.08798
1.10097
0.990285
1.00122
1.10934
0.962731
1.03286
0.993769
1.00748
1.09473
1.03897
1.11752
1.08707
1.04642
1.0208
1.05182
1.03075
0.94953
0.980079
1.02627
0.958316
1.12571
1.02527
1.06082
0.99285
1.06028
1.10274
1.01827
0.967437
1.03219
0.987573
1.06475
1.0845
1.03377
0.937641
1.00526
0.987546
1.10261
1.1056
1.10373
1.10192
1.06658
1.08787
1.08511
1.11695
1.07682
1.10007
1.01024
1.08615
1.06088
1.03633
0.909216
1.11901
1.03664
1.08309
1.00278
1.08593
0.911245
0.939453
0.949895
1.07842
0.994297
0.998599
1.06547
1.01276
1.10602
0.991329
1.07967
1.11565
1.09764
1.09766
0.903935
1.03123
1.10794
0.993901
1.01132
1.00132
0.946548
1.02406
1.02056
1.00275
1.02293
1.02471
0.974582
0.986935
1.07679
1.06625
1.09185
1.05854
0.996109
1.01015
1.0008
1.064
1.04363
1.09211
0.971657
0.979412
0.95977
1.06597
0.980583
0.971594
1.10424
1.08872
1.01179
1.06083
0.916385
0.949783
1.03172
0.939634
1.0492
1.07203
1.08029
1.05534
1.09903
1.07766
1.04017
1.03686
0.992417
0.966544
0.964774
1.11777
0.99898
1.07131
1.02694
1.00606
1.02976
1.09701
1.09743
1.11559
1.10838
0.906919
0.978665
1.13309
1.06184
1.0148
1.10356
1.11037
1.11113
1.03937
1.00543
1.04047
0.939222
0.92162
1.04481
0.933959
1.02464
1.00281
0.966097
0.968395
1.02116
1.01388
1.09599
0.939242
0.93555
1.00285
0.977117
1.02182
0.9648
1.00776
0.986912
1.03562
0.975573
1.06515
1.07755
1.07011
1.04468
1.00123
1.03669
1.03408
1.05489
0.955
1.0172
1.05316
1.07527
1.01689
1.08542
0.964211
1.08312
0.909817
0.947017
0.933395
1.10644
1.06683
1.07549
1.10659
1.04692
1.01027
1.09282
1.04594
1.04217
0.973383
1.00889
1.07651
0.965252
1.07239
1.05462
0.909543
0.985107
0.992196
0.974225
0.915298
1.00759
1.00192
1.08114
0.953472
1.0598
1.05635
0.933258
0.985908
1.07591
0.984726
1.02857
1.00088
1.03633
0.916226
0.963127
1.00053
0.992143
0.960763
0.977807
0.962619
0.931256
1.06995
1.05366
0.965281
0.955426
1.03162
1.05299
0.997391
1.05426
1.06807
0.920655
0.94714
1.00878
0.919467
1.09465
1.05625
0.948451
0.968084
1.04331
0.938613
1.08311
1.09091
0.914021
1.09251
1.07322
1.04035
0.915722
0.967463
0.930863
1.01109
1.0814
1.10635
0.966456
0.936344
1.01045
0.96449
1.11082
0.999317
0.967123
0.926465
0.971637
0.950979
0.983125
0.988324
0.998771
1.0069
0.976542
0.987836
0.930801
1.08794
0.971402
0.918775
1.00017
0.986252
0.933792
1.06358
0.994036
1.0804
0.975359
1.06725
1.09066
1.03765
1.0118
0.970546
1.03547
1.10082
0.977942
0.989117
0.934629
1.04792
0.947428
0.909711
0.926758
1.05664
0.937973
0.931634
1.03222
1.05218
1.03476
1.05674
0.925908
0.931344
0.976382
1.0091
0.980494
1.08701
0.958906
1.08875
0.904405
0.911256
0.988785
0.952135
0.998436
1.00028
1.04469
0.968253
0.945429
0.974949
0.99293
1.07273
0.974245
0.943039
1.07548
0.961981
1.07483
0.915214
0.931511
0.981621
0.968782
0.978606
0.960028
0.98395
1.08357
1.10988
1.11055
1.08626
0.913342
0.931146
0.985456
1.02554
0.91966
0.927315
0.948484
0.916536
1.05253
1.07963
0.961665
1.04743
1.08422
0.927086
1.01599
0.993093
0.968999
1.0713
0.935708
1.03842
1.04221
1.06774
1.09192
0.985128
0.974749
1.07223
1.10191
1.03989
0.923569
1.07981
1.07072
1.02844
1.07769
0.961392
1.10937
1.05427
1.02653
0.912615
0.994294
1.08211
0.941022
0.966183
1.08082
0.94266
0.942426
1.0178
1.09811
0.994872
1.04535
0.962822
1.05542
1.00696
1.02643
1.13397
0.976103
0.949616
0.967017
0.946951
0.909911
1.04393
1.01675
1.0429
0.943835
0.977385
0.9573
1.09917
0.920547
1.034
1.03524
1.08372
0.93644
1.05551
0.952989
0.930829
1.03792
0.92561
0.957589
0.946199
0.918406
0.958886
0.982051
1.01724
1.08437
1.11082
0.999311
0.974629
1.11504
0.930191
0.918245
0.920187
1.06632
1.06653
1.03101
1.03602
1.04566
1.0188
0.930228
1.09113
0.914288
0.93539
1.05009
0.955249
0.928931
1.07956
0.919278
0.922728
1.0843
0.966244
0.967279
0.940945
0.999362
1.00437
0.940287
1.0794
1.05029
1.06513
0.921207
1.03295
0.951849
0.960323
1.08
0.924608
0.914514
1.08612
0.953094
0.945315
0.945673
0.922278
0.964185
1.02157
0.967073
1.07723
1.08176
0.966734
0.9773
0.970268
0.98923
1.05706
0.95512
1.06373
1.09007
0.994063
0.933034
0.917375
1.00002
0.908557
0.967127
1.06223
1.03354
0.930945
0.927503
0.97316
0.931184
0.928576
1.07879
1.06815
0.912891
0.964338
0.937853
0.93985
0.931657
0.948081
1.08231
0.916599
0.914379
0.913118
1.11786
0.925011
1.10665
0.99603
0.981206
0.926559
1.04775
0.901969
0.918368
0.942396
0.909032
1.04056
1.05069
0.902133
1.05047
0.938338
0.999853
0.93095
1.0702
1.09763
0.963176
0.928121
1.0698
0.953639
0.981771
0.933535
1.01004
1.00435
0.938212
0.998139
0.929961
1.01997
1.062
0.926534
0.983496
0.90592
1.08233
0.966124
1.01776
0.914749
0.97825
0.911154
0.938115
0.965355
1.07172
0.963839
1.09621
1.07721
0.927604
1.00842
0.917707
0.926462
1.0594
1.06162
1.01705
0.946338
0.943684
0.911937
0.901311
1.07504
0.962198
0.91919
1.05479
0.976918
1.00333
0.916848
0.916649
1.02968
1.03623
0.941961
0.94309
1.08102
0.945229
1.06426
0.997221
1.06095
0.911712
0.932423
1.01974
0.957194
0.93425
0.960754
0.952153
0.979398
0.981402
0.934597
0.931087
1.0576
0.990065
0.926743
0.968125
1.02119
0.945848
1.04836
1.01423
0.98179
0.973292
0.931812
1.00548
0.908838
0.901592
0.923507
0.966839
1.01064
0.957205
0.940134
1.0582
0.931664
1.05844
0.987176
1.06602
0.981575
1.08105
0.921699
1.0871
0.949525
0.957336
1.0706
0.959659
0.906958
0.924328
0.938197
1.04126
1.03787
0.962377
1.03322
1.02633
0.918997
0.898552
0.945695
0.995026
0.916786
0.942341
0.939896
1.03743
0.929273
0.93808
1.04881
1.04957
0.994043
0.91067
1.00209
0.965828
0.953585
0.999252
0.949864
0.92249
0.954693
0.940229
0.952184
1.04795
0.951617
1.0945
0.965807
0.929123
1.09406
1.00866
0.914888
0.918169
1.0906
0.949989
0.966084
1.03698
0.93963
0.935069
1.07314
1.08538
0.912539
0.961471
1.08013
0.965107
1.03199
0.921332
0.916189
0.991773
0.991395
1.09879
0.971802
0.93356
0.988459
0.978252
0.931337
1.07847
0.943447
0.907924
0.906796
0.937337
0.907592
0.932772
0.930328
0.937113
0.931567
1.00628
1.00064
0.993305
1.03581
0.915683
0.914608
1.05397
0.946351
0.915741
0.905889
0.934894
0.970298
0.947482
0.954712
0.926729
1.03119
1.01956
1.02444
1.02326
0.946956
0.924167
0.949967
0.983894
1.08153
0.971541
0.931937
0.963103
0.911324
0.921312