/*--------------------------------*- C++ -*----------------------------------*\
| =========                 |                                                 |
| \\      /  F ield         | OpenFOAM: The Open Source CFD Toolbox           |
|  \\    /   O peration     | Version:  2212                                  |
|   \\  /    A nd           | Website:  www.openfoam.com                      |
|    \\/     M anipulation  |                                                 |
\*---------------------------------------------------------------------------*/
FoamFile
{
    version     2.0;
    format      ascii;
    arch        "LSB;label=32;scalar=64";
    class       volScalarField;
    location    "0.028";
    object      k;
}
// * * * * * * * * * * * * * * * * * * * * * * * * * * * * * * * * * * * * * //

dimensions      [0 2 -2 0 0 0 0];

internalField   nonuniform List<scalar> 
31639
(
0.0268755
0.0262639
0.0267136
0.0276253
0.0265748
0.0259956
0.0262459
0.0271127
0.0268634
0.027245
0.0272801
0.0271496
0.0264868
0.0273869
0.0259182
0.0258628
0.0269911
0.0262596
0.0256046
0.0263296
0.0244401
0.0273788
0.0274842
0.0257818
0.0256157
0.026718
0.0263164
0.0229369
0.0262026
0.0275487
0.0272574
0.0260519
0.0273984
0.0256572
0.0249807
0.0274953
0.0239487
0.027764
0.0273307
0.0236768
0.0249375
0.024753
0.0270887
0.0273334
0.0274416
0.0272668
0.0259669
0.0262512
0.0269346
0.0275411
0.0271716
0.0238105
0.0277395
0.0243796
0.0259892
0.0268509
0.0245754
0.0264433
0.0262534
0.0245167
0.0266035
0.0272218
0.0256614
0.0261589
0.0268247
0.0275118
0.0265113
0.0264547
0.0253067
0.0274855
0.0274866
0.025251
0.0269797
0.0263644
0.027639
0.0249359
0.0272415
0.0263078
0.0260402
0.027282
0.0255469
0.0236282
0.0273782
0.0267219
0.0266555
0.0272026
0.0275218
0.0273641
0.0249815
0.0276883
0.0265639
0.0265402
0.0246695
0.0261362
0.0252082
0.0259827
0.0263701
0.0263644
0.0265439
0.024612
0.0276504
0.0272067
0.0260131
0.0243357
0.0245651
0.0273348
0.0242762
0.0241264
0.0253908
0.0243841
0.0267152
0.0246692
0.0261731
0.0259784
0.0263893
0.0243023
0.0263728
0.0263398
0.0273946
0.026232
0.0271116
0.0271485
0.0269484
0.0268006
0.0266214
0.0274727
0.026368
0.0254824
0.0252596
0.0270441
0.0271803
0.0269484
0.0270229
0.0260931
0.0270864
0.0264545
0.0245536
0.0242511
0.0270758
0.0264006
0.0263446
0.0272629
0.0272745
0.0241477
0.0239619
0.0274738
0.0272105
0.0247818
0.0245805
0.0272878
0.0255264
0.0266319
0.0256625
0.0270411
0.0249362
0.027516
0.0264838
0.0253263
0.0248908
0.0257488
0.0272676
0.025105
0.0255041
0.024451
0.024869
0.0260409
0.02492
0.027518
0.0270977
0.0241778
0.025212
0.0257927
0.0249649
0.0264928
0.0276127
0.027245
0.0265819
0.0275842
0.0265777
0.0263176
0.0260787
0.0261183
0.0256304
0.0238871
0.0268387
0.0276369
0.0257467
0.0274815
0.0248412
0.0244339
0.0279115
0.0272204
0.0268331
0.0261942
0.0263432
0.0260608
0.026123
0.0269979
0.0243599
0.0260834
0.0273717
0.0276737
0.0265766
0.0266668
0.0266965
0.0263525
0.0260046
0.025858
0.0271832
0.0239544
0.0262286
0.0262217
0.0267682
0.0272366
0.0270431
0.0273096
0.025026
0.0257906
0.0272936
0.0272926
0.0268733
0.0263038
0.0243913
0.0264966
0.0244461
0.0266308
0.0271771
0.0257198
0.0248469
0.0270598
0.0267992
0.0276992
0.0249878
0.0246078
0.026835
0.0269579
0.024505
0.0272466
0.0256297
0.0242409
0.0260323
0.0267055
0.0261689
0.0258098
0.0257852
0.0270407
0.0258964
0.0257429
0.0246288
0.0262443
0.0256878
0.0250719
0.02587
0.0275589
0.0273883
0.0260601
0.0250122
0.0269508
0.0268303
0.0264921
0.0275935
0.0272416
0.0270041
0.0273315
0.026014
0.026432
0.0241174
0.0256375
0.0269998
0.02574
0.0267382
0.0258842
0.0266801
0.0276836
0.0275834
0.0265553
0.0245549
0.0262612
0.0254056
0.0272148
0.0263497
0.0273957
0.0276267
0.0260338
0.0247544
0.0255768
0.0249623
0.0244776
0.0270695
0.0251457
0.0276008
0.0259892
0.0257756
0.0250805
0.0277575
0.0260035
0.026073
0.0273345
0.0267424
0.0256837
0.0262741
0.0249769
0.0263114
0.0259835
0.0249471
0.0261366
0.0259008
0.0234329
0.0241863
0.0271242
0.0274966
0.0268538
0.0244609
0.0251713
0.0269902
0.0251382
0.0251266
0.0274615
0.0275368
0.0258741
0.027265
0.0275214
0.0248901
0.0275019
0.0242651
0.0244791
0.0272581
0.0270463
0.0271546
0.0275001
0.0270476
0.0250425
0.0260139
0.0260288
0.0273468
0.0277149
0.0277143
0.0260817
0.0255936
0.0268117
0.0270219
0.0267522
0.0256775
0.0262882
0.0259193
0.0262745
0.0270615
0.025707
0.0248878
0.0270753
0.0278293
0.0260603
0.0276228
0.0272033
0.0261767
0.0249376
0.0260909
0.0261693
0.0244509
0.0275687
0.0250504
0.0267794
0.0272528
0.0241311
0.0263225
0.0261873
0.0245596
0.0266269
0.0250737
0.0262995
0.0276627
0.0270451
0.0241674
0.0267777
0.0250046
0.0267969
0.0272079
0.0274021
0.0274069
0.0251348
0.0268363
0.0243499
0.0259434
0.0242891
0.0273712
0.0270264
0.0273027
0.0271843
0.0253602
0.0276639
0.0262987
0.0268307
0.0261266
0.0254148
0.0263476
0.0268426
0.0265788
0.0268609
0.0267036
0.0270834
0.0262485
0.024898
0.0265283
0.0271223
0.0268967
0.0241297
0.0273918
0.027148
0.0262488
0.0265274
0.0267869
0.0266941
0.0273058
0.024429
0.0268044
0.0273503
0.0242088
0.0266184
0.0267409
0.0251146
0.0244494
0.0245998
0.0261228
0.02466
0.0262646
0.0260773
0.0259949
0.0276747
0.0247966
0.0270626
0.0274313
0.0262701
0.0269666
0.026107
0.0273637
0.0263576
0.0267466
0.0275016
0.0262306
0.0246208
0.026321
0.0275414
0.0272301
0.0270175
0.0275875
0.0258038
0.0268141
0.0270994
0.0275718
0.0276868
0.0249047
0.0261652
0.0237871
0.0264821
0.0260311
0.0248849
0.0245361
0.0260794
0.0268833
0.0271887
0.024641
0.0269618
0.0258842
0.0261395
0.0271326
0.0214957
0.0260117
0.0244189
0.025832
0.0271832
0.0277772
0.0268959
0.0264305
0.0239806
0.0269904
0.0262632
0.026976
0.0244973
0.0248806
0.0261509
0.0247475
0.0249993
0.0267529
0.0244873
0.0260128
0.0244904
0.0270226
0.0246878
0.0274958
0.0271229
0.0271538
0.0272771
0.0257098
0.0272231
0.0273916
0.0267175
0.0272334
0.0264115
0.027086
0.0278868
0.0259573
0.027334
0.0274934
0.0261493
0.0253536
0.0275282
0.0263462
0.0239194
0.0243621
0.0264311
0.0274985
0.0274295
0.0260485
0.0278106
0.0279873
0.0269579
0.0265751
0.0263209
0.0263832
0.0250727
0.0261191
0.0269091
0.0275861
0.0255994
0.0253197
0.0251771
0.0255919
0.0260911
0.0238303
0.0270022
0.0258113
0.0268374
0.0263302
0.0270138
0.0264627
0.024922
0.0266634
0.0272739
0.0252674
0.027106
0.0277498
0.0262045
0.0260682
0.0231181
0.0253474
0.0261879
0.0263798
0.0249868
0.024827
0.0264327
0.0252752
0.0269637
0.0256425
0.0263443
0.027273
0.0262576
0.024377
0.0259038
0.026457
0.0273723
0.0246654
0.0237033
0.0272501
0.024515
0.0265641
0.0277126
0.0246543
0.0262839
0.0276221
0.0266162
0.0246834
0.0272993
0.0266209
0.0245712
0.0271523
0.0265707
0.0259568
0.0270706
0.0240548
0.0256209
0.0263732
0.0260888
0.026107
0.0268737
0.0277894
0.027212
0.0269275
0.0275105
0.0271535
0.0269297
0.025634
0.0268759
0.0275423
0.0281233
0.0253249
0.0264182
0.0266707
0.0281516
0.0250244
0.0240602
0.0274626
0.0251498
0.0276798
0.0258144
0.0247471
0.0264436
0.0272334
0.0266905
0.026876
0.0242316
0.0270209
0.0265135
0.0243087
0.0274363
0.027146
0.022547
0.0249163
0.0252696
0.0262274
0.0264341
0.0264143
0.0262095
0.0263474
0.0271335
0.0263805
0.0262756
0.0250207
0.0274763
0.0245235
0.0263368
0.0263435
0.0260392
0.0277371
0.0263
0.0253878
0.0243077
0.0250441
0.0263083
0.0273098
0.0249179
0.0275426
0.02656
0.0270577
0.0248416
0.0258282
0.02707
0.027587
0.0272672
0.0268954
0.0264569
0.0265259
0.0276794
0.0276238
0.0274378
0.0255788
0.0271599
0.0248121
0.0274511
0.027402
0.026113
0.0250772
0.0258799
0.0236968
0.0272738
0.0267156
0.0277838
0.0262923
0.0256554
0.0246766
0.0271356
0.0243324
0.0239676
0.0252781
0.025698
0.0248538
0.0263047
0.0246898
0.0266384
0.0268493
0.0238274
0.0275896
0.0249658
0.0254721
0.0257918
0.0257838
0.0270673
0.0273455
0.0275463
0.0274481
0.0261275
0.0262932
0.0261099
0.0261189
0.0242351
0.0199321
0.0274527
0.0261008
0.0270677
0.0272274
0.0246402
0.0273351
0.0275838
0.026987
0.0270126
0.0269591
0.0265991
0.0274568
0.0276222
0.0264653
0.0272853
0.0272593
0.0251411
0.0272577
0.0259322
0.0271506
0.0256141
0.026149
0.0255586
0.0277761
0.0260113
0.0264748
0.0265073
0.0251023
0.0274937
0.0266466
0.0259738
0.0248755
0.0268816
0.0241025
0.0270487
0.0271811
0.0257165
0.0277012
0.027653
0.0276297
0.0246341
0.0262896
0.0266088
0.0266086
0.0250238
0.0269174
0.0271067
0.0256399
0.0263355
0.0254939
0.0269525
0.0261402
0.0261313
0.0241513
0.0269829
0.0267904
0.0271597
0.0257515
0.0262301
0.026538
0.0261816
0.0258275
0.026593
0.0270374
0.0260698
0.0241146
0.0242262
0.02597
0.0238897
0.0246342
0.0267003
0.0266374
0.0270398
0.0240673
0.0259648
0.0273572
0.0249962
0.0243059
0.0263398
0.0250534
0.0272214
0.025396
0.0275127
0.0257011
0.0258588
0.0275121
0.0241883
0.0258567
0.0259391
0.0271461
0.0274697
0.0273174
0.0251952
0.0268818
0.0275049
0.0259519
0.027521
0.0270879
0.0269751
0.0274681
0.0263479
0.0279048
0.0276705
0.0278156
0.0267905
0.0260091
0.0264977
0.026209
0.0245676
0.0257697
0.0269278
0.0271635
0.0277222
0.0261564
0.0276378
0.0271995
0.025575
0.0272626
0.0272763
0.0270667
0.0271901
0.0247775
0.0258717
0.0273356
0.0240663
0.0263933
0.0261108
0.026305
0.025999
0.0274564
0.0268741
0.027113
0.0262515
0.0269529
0.0264891
0.0273693
0.0265133
0.0262095
0.0249355
0.0272593
0.0252145
0.025895
0.0263765
0.0257918
0.0265995
0.0276156
0.0249069
0.0275975
0.0249252
0.0265223
0.026333
0.0260233
0.026158
0.0274417
0.0246993
0.0270389
0.0273007
0.0276334
0.0266109
0.02678
0.0239291
0.0274646
0.0272343
0.0269316
0.0269625
0.027187
0.0262887
0.0269004
0.0264529
0.0249879
0.0263474
0.0275089
0.0241779
0.0253636
0.0281429
0.0271911
0.0256752
0.0259472
0.0267526
0.0256917
0.0260129
0.0251334
0.0271183
0.0276469
0.0240533
0.0266
0.0272317
0.0272241
0.0277614
0.0258595
0.0271987
0.025196
0.025084
0.0275944
0.0273146
0.0260417
0.0248861
0.0269186
0.0272873
0.0256178
0.0274153
0.0271511
0.0272586
0.0269026
0.0271262
0.0265859
0.0264707
0.0259319
0.0257248
0.0243807
0.0265782
0.0264516
0.0249254
0.0272916
0.0243581
0.0258321
0.0262031
0.0249283
0.0261356
0.0258819
0.0268266
0.0266356
0.0272366
0.0248505
0.0249656
0.0260967
0.0246409
0.025642
0.0272265
0.0260468
0.027347
0.0266893
0.0262552
0.0275069
0.0260191
0.0266595
0.0261085
0.0261621
0.0268431
0.0253916
0.0264945
0.0271313
0.0273371
0.0277042
0.0248734
0.0244873
0.0262598
0.027282
0.0250566
0.0258976
0.0270135
0.0262726
0.0280239
0.0261903
0.0258787
0.0272101
0.0246652
0.0272766
0.0277207
0.0250129
0.0256869
0.0261017
0.0259824
0.0276244
0.0274796
0.0269917
0.0252765
0.0271827
0.02464
0.0261175
0.0274831
0.0259849
0.0279373
0.0243341
0.0262699
0.0268694
0.0264124
0.0245823
0.0243606
0.0271745
0.0274811
0.0260139
0.0273911
0.0268509
0.0260914
0.0248393
0.0254902
0.0268031
0.026336
0.026307
0.0276476
0.0272547
0.0280009
0.0274012
0.0267558
0.0268389
0.0269433
0.0250783
0.0273027
0.0268701
0.0264709
0.0267513
0.0276084
0.0263613
0.0274143
0.0261249
0.0240099
0.027674
0.025884
0.0274485
0.0259491
0.0271195
0.0251543
0.0268593
0.0280353
0.0263826
0.026363
0.0247037
0.0270322
0.0275272
0.0266714
0.0246801
0.0281779
0.0263715
0.0265827
0.0275155
0.0273104
0.0270908
0.0261553
0.0265618
0.0279256
0.0251396
0.0253306
0.0250847
0.0255482
0.0266595
0.0244818
0.0275682
0.0272797
0.0278708
0.0260705
0.0261953
0.0264343
0.0273678
0.026466
0.0267903
0.0274211
0.0277224
0.0266509
0.0271583
0.0263335
0.0260105
0.0268832
0.0259887
0.0277853
0.0276598
0.0275495
0.0277076
0.0274163
0.0257277
0.0279369
0.0266754
0.0267404
0.0259499
0.0266572
0.0276704
0.0263248
0.0270938
0.0259757
0.0263192
0.0269817
0.0253707
0.024827
0.0261014
0.0264241
0.027822
0.0258976
0.0244024
0.0267433
0.0272298
0.0256142
0.0259303
0.0264043
0.0275853
0.0274859
0.025887
0.0258315
0.026346
0.0273391
0.0260184
0.0265885
0.0265054
0.0246008
0.0261841
0.026108
0.0270794
0.0274039
0.026477
0.027567
0.0271414
0.0263412
0.0267705
0.0247867
0.0252048
0.0246139
0.0276371
0.026648
0.0277343
0.028447
0.027115
0.0245325
0.0271366
0.0261337
0.0270688
0.026916
0.0270234
0.0245951
0.0276847
0.024945
0.0263527
0.0266071
0.0264606
0.0279816
0.0263136
0.0270971
0.0249592
0.0262309
0.0266985
0.0274613
0.0255436
0.0256041
0.0268362
0.0273059
0.0268966
0.0268312
0.0276165
0.0249126
0.0265242
0.0261767
0.0256671
0.0271037
0.0277471
0.0276027
0.0272271
0.0277025
0.0251374
0.0250359
0.0250825
0.0278147
0.0247811
0.0269609
0.0267139
0.0248949
0.0260088
0.027164
0.0274536
0.0256686
0.026009
0.0259046
0.0264745
0.0276318
0.0266938
0.0248874
0.0264066
0.0278254
0.0274832
0.0279251
0.0275181
0.0282776
0.0276087
0.0273723
0.0254019
0.0247317
0.0265604
0.0256188
0.0276499
0.0250248
0.0266695
0.0262576
0.0274965
0.0253311
0.0271076
0.0271414
0.0268515
0.0262509
0.0249849
0.0273179
0.0260832
0.0278686
0.0265548
0.0279989
0.0276019
0.0264956
0.0247202
0.0249344
0.0261211
0.0269439
0.0258809
0.028082
0.0252052
0.0273258
0.0269558
0.0261944
0.0267914
0.0272859
0.0275369
0.0274844
0.0277132
0.0266822
0.0268133
0.0245932
0.0257923
0.0274743
0.0253494
0.0269397
0.0261235
0.024984
0.0262538
0.0261065
0.0261787
0.0269327
0.0272364
0.0251531
0.0260996
0.0265361
0.0249374
0.025823
0.0260432
0.0263356
0.0270205
0.025112
0.0250103
0.0262485
0.0260542
0.027423
0.0278187
0.0273723
0.0258062
0.0259614
0.0264352
0.0256862
0.0276052
0.0250091
0.0263423
0.0263378
0.0276375
0.0272681
0.026576
0.0267844
0.0274084
0.0250822
0.0265814
0.0275974
0.0259096
0.023353
0.0263673
0.0250407
0.0267297
0.024452
0.0277246
0.0277533
0.0276107
0.0266356
0.025124
0.024716
0.027267
0.0277849
0.0277149
0.0265211
0.0268366
0.0268522
0.0278129
0.0273444
0.0244846
0.0266838
0.0265759
0.026823
0.0261206
0.0271398
0.024262
0.0276689
0.0272665
0.026554
0.0265859
0.0269959
0.0263546
0.0275999
0.0269155
0.0252126
0.0262006
0.0271352
0.0260704
0.0266001
0.0269257
0.0245047
0.0250526
0.0274187
0.0277877
0.0273012
0.0277138
0.0270296
0.0272002
0.0267349
0.0265295
0.0267666
0.027328
0.0260338
0.0265028
0.0256069
0.0263819
0.0273565
0.0242683
0.0266539
0.0243985
0.027256
0.0244653
0.0246937
0.0260598
0.0240478
0.026706
0.0268551
0.0272467
0.0272736
0.0257569
0.0255441
0.0280356
0.0258595
0.0252412
0.0265621
0.0256634
0.0274708
0.026979
0.0267328
0.0251137
0.0274214
0.0274648
0.027489
0.0247539
0.0256095
0.0264743
0.0274207
0.0279854
0.0247988
0.0246895
0.0274252
0.0268655
0.0276646
0.0262766
0.024207
0.0269662
0.0273418
0.0247374
0.0243863
0.0273473
0.0250729
0.0250188
0.0273863
0.0277984
0.0268987
0.0280789
0.0260861
0.0262425
0.0274709
0.0257612
0.0273776
0.0259306
0.0269241
0.0273708
0.0259958
0.0247339
0.0270081
0.0271616
0.0259501
0.0261976
0.0264598
0.0255877
0.024202
0.0266153
0.0271375
0.0275246
0.0259176
0.0269682
0.0246322
0.0270198
0.0277703
0.024577
0.0275339
0.0265549
0.023646
0.0246925
0.0265017
0.0262641
0.0271352
0.0260718
0.0251565
0.0272249
0.0277986
0.0275711
0.0268561
0.0274272
0.0247013
0.0274519
0.0263443
0.0247736
0.0248883
0.023591
0.0247735
0.0268756
0.0262175
0.026768
0.0264233
0.025175
0.0254828
0.0241865
0.0242239
0.0280906
0.0278701
0.0251986
0.0276166
0.0274647
0.0252098
0.0262071
0.0267341
0.0256245
0.0257978
0.0273719
0.0254886
0.0243122
0.0274844
0.027881
0.0258552
0.0275371
0.0264203
0.0254753
0.0250714
0.0263988
0.0247128
0.024927
0.026585
0.0267453
0.0261817
0.0276521
0.0274415
0.0262467
0.0276128
0.0199042
0.0264135
0.0246105
0.0263572
0.0276772
0.0260679
0.0257462
0.0261373
0.0249106
0.0267311
0.026222
0.025668
0.0248769
0.0239646
0.0239633
0.0260281
0.0247528
0.0263898
0.0247013
0.0261652
0.0273455
0.0268838
0.0263136
0.0266038
0.0270306
0.0262761
0.027081
0.0245051
0.0264779
0.0275882
0.0275287
0.0259921
0.0279745
0.0253456
0.027367
0.0260953
0.0245737
0.0273458
0.0275764
0.0268185
0.026962
0.0275952
0.026859
0.0240513
0.0241075
0.0260109
0.0277261
0.0267397
0.0271177
0.0259352
0.0261395
0.0253596
0.0245377
0.0244998
0.0246171
0.0269114
0.0266008
0.0275095
0.0257825
0.0260507
0.0278964
0.0247118
0.0264128
0.0276845
0.0275745
0.0254405
0.0259069
0.0271338
0.0277055
0.0275645
0.0227565
0.0267878
0.0272449
0.0268537
0.0264608
0.0280933
0.0273412
0.0275295
0.0265737
0.0257022
0.0263672
0.0276814
0.0269659
0.0262992
0.0247549
0.0273144
0.027321
0.0276254
0.0270817
0.0243692
0.0237699
0.0260676
0.0270836
0.0265889
0.0265208
0.0270253
0.0270583
0.0271062
0.0259289
0.0270879
0.0264759
0.0273222
0.0250227
0.0249846
0.025834
0.0278004
0.0249406
0.0272563
0.0248245
0.0262267
0.0263745
0.0278015
0.0263085
0.0271612
0.0276579
0.0273842
0.026686
0.0272992
0.026462
0.0259948
0.0241571
0.0276662
0.0237073
0.0247088
0.0230181
0.0240694
0.0244056
0.0260638
0.0265419
0.0249039
0.0259218
0.0236924
0.0252029
0.0259101
0.027473
0.0243642
0.0248486
0.0270817
0.0243895
0.0260856
0.0272329
0.0269815
0.0262372
0.0249821
0.0244784
0.0258643
0.0277008
0.0256533
0.0248302
0.0268824
0.0259859
0.0266886
0.0261687
0.0251429
0.027631
0.0242093
0.0248131
0.0264414
0.0276749
0.0260038
0.0263243
0.0265247
0.0264224
0.0240505
0.0252333
0.0259453
0.0275674
0.0269461
0.0246773
0.0239742
0.0263522
0.0275836
0.0260762
0.0262853
0.0258136
0.0257874
0.0261495
0.0246086
0.0274706
0.0258063
0.024659
0.0238805
0.026999
0.0262929
0.0276326
0.0265424
0.0272082
0.024694
0.0262966
0.0241396
0.0239527
0.0275485
0.025132
0.0263982
0.0263669
0.0262234
0.0247297
0.0275334
0.0271673
0.0275429
0.0268279
0.0233663
0.0263968
0.024028
0.0277547
0.024969
0.0275626
0.0237493
0.0267195
0.0273172
0.0259972
0.0260954
0.023969
0.0256662
0.0262439
0.0272457
0.0269469
0.0274662
0.0276202
0.0246852
0.0275851
0.0240733
0.0266149
0.0267768
0.027293
0.0273921
0.026114
0.0277396
0.0262154
0.0256463
0.025647
0.0266159
0.0275536
0.025453
0.025251
0.0275302
0.0270976
0.0261956
0.0279728
0.026737
0.0268734
0.02731
0.0271872
0.0275753
0.0260194
0.0257435
0.0273743
0.0272444
0.0239088
0.0260508
0.0255814
0.0276666
0.0266365
0.0271654
0.0248714
0.0247299
0.0264525
0.0270215
0.0272884
0.0275503
0.0273334
0.0265085
0.026901
0.0249431
0.0268706
0.026356
0.0274112
0.0275471
0.0274563
0.0265486
0.0274683
0.0254005
0.0274341
0.0254771
0.0259694
0.0260049
0.0264506
0.0258264
0.0270567
0.0246118
0.0273223
0.0273324
0.0263556
0.0247839
0.0278647
0.0268917
0.0273867
0.0262207
0.026411
0.0272018
0.0245411
0.0274398
0.0264612
0.0266051
0.0254426
0.0255637
0.0256858
0.0245724
0.0258474
0.0277169
0.0265753
0.0240518
0.0270635
0.0244543
0.0267458
0.0266596
0.0241599
0.02434
0.0257705
0.0265708
0.0272244
0.0259108
0.0266603
0.0263232
0.0239737
0.0259127
0.0274344
0.0274555
0.027459
0.0267742
0.0268563
0.0248597
0.0247006
0.0276871
0.0262889
0.026837
0.0272597
0.0279321
0.0264959
0.0265885
0.0240985
0.0269854
0.0273587
0.0258901
0.0275282
0.027269
0.0267781
0.0254594
0.027061
0.0260993
0.0240501
0.026441
0.0251286
0.0246873
0.0268004
0.0264701
0.0275351
0.0274494
0.026641
0.0276216
0.0238777
0.0259219
0.0277646
0.0277664
0.0244432
0.0267896
0.0250123
0.0255366
0.0273834
0.0259057
0.0268168
0.0278933
0.026959
0.0240005
0.0272109
0.0247015
0.0272459
0.0268362
0.0265816
0.0272278
0.0265706
0.027254
0.0247206
0.027395
0.0274582
0.0250589
0.0267489
0.0262499
0.0262344
0.0272707
0.0263487
0.0271755
0.0276769
0.0274687
0.0263515
0.0275677
0.0263568
0.0268803
0.0254838
0.0254657
0.0246036
0.0241146
0.0267388
0.0268617
0.0262556
0.0275738
0.0257202
0.0275259
0.0242266
0.0277873
0.0276598
0.0269383
0.0274201
0.0253877
0.0242034
0.0261928
0.0247187
0.0271271
0.0264518
0.0242023
0.026059
0.0277677
0.0272444
0.0243682
0.0255092
0.0240272
0.0278921
0.024641
0.0272834
0.0252173
0.0249571
0.02756
0.0275843
0.0274574
0.0269574
0.0245727
0.0267656
0.0277435
0.0250695
0.0275162
0.0269767
0.0277591
0.0241154
0.0269121
0.0258992
0.0269298
0.0260963
0.0259441
0.0259151
0.0259722
0.0262661
0.0261634
0.0268382
0.0261022
0.0276663
0.0252331
0.026156
0.0265011
0.0271121
0.0277415
0.0249522
0.0269895
0.0247792
0.0258809
0.0274241
0.0276077
0.0264556
0.0267259
0.027059
0.0258
0.0261136
0.0262711
0.0246108
0.0243822
0.0267194
0.0272413
0.0256849
0.0260724
0.0272937
0.0248369
0.0266191
0.0249564
0.0268544
0.0275747
0.0264105
0.0244973
0.027284
0.0245415
0.0268397
0.0276102
0.0240569
0.0279082
0.0250929
0.0259314
0.0261337
0.0244752
0.0257216
0.0256333
0.0240172
0.0275347
0.0276825
0.0237132
0.0258441
0.0268357
0.0268126
0.0267224
0.0278429
0.027433
0.0259491
0.0254956
0.0243786
0.0239566
0.0230662
0.0276485
0.0270278
0.0268246
0.026877
0.0245449
0.0245899
0.0260351
0.0274706
0.0239594
0.0267693
0.0261703
0.0263863
0.0267649
0.0255184
0.0271084
0.0257539
0.0264221
0.0278424
0.0234232
0.0263039
0.0272285
0.0272775
0.026799
0.0272246
0.0266521
0.0245951
0.0278412
0.0282913
0.0262313
0.0263904
0.025269
0.026116
0.026938
0.0273393
0.0264055
0.0261534
0.0258328
0.0242968
0.0260121
0.0276104
0.0267847
0.0279089
0.0266152
0.0265419
0.0277987
0.0248881
0.0272168
0.0245514
0.0277585
0.0269772
0.0258888
0.0280671
0.0257698
0.0263532
0.0278066
0.0260502
0.0276404
0.0268341
0.0270782
0.0247228
0.026363
0.0261158
0.0254591
0.027143
0.0256891
0.0258396
0.0277513
0.0248269
0.0274266
0.0263494
0.0274642
0.0259563
0.0267186
0.0248207
0.0251944
0.0278381
0.0248006
0.0262736
0.0272518
0.0245788
0.0263309
0.0272427
0.0257905
0.024887
0.0256097
0.026208
0.0258594
0.0271857
0.0263382
0.0275216
0.0265879
0.027405
0.0241446
0.0251586
0.0276644
0.026015
0.0245219
0.024969
0.0264417
0.0225065
0.0243426
0.0262413
0.0261176
0.0276175
0.0255139
0.0272181
0.0274905
0.0276262
0.0271879
0.0274974
0.0258382
0.0255019
0.0270355
0.0260176
0.025622
0.0274353
0.0261329
0.0242464
0.0243739
0.0261397
0.0229397
0.0270826
0.0271404
0.0255332
0.0270735
0.0271945
0.026998
0.0280377
0.0261149
0.024765
0.0257686
0.026103
0.0271918
0.0255511
0.0267336
0.0276823
0.0261294
0.0258791
0.0264935
0.0276776
0.0271458
0.0283479
0.0275819
0.0265514
0.0268181
0.0252082
0.0260666
0.0275809
0.0254258
0.0275733
0.0255848
0.0271002
0.0239064
0.027061
0.0262299
0.0271633
0.0258463
0.0268498
0.0261931
0.0270985
0.023889
0.0253578
0.0261934
0.0259035
0.0264711
0.0264798
0.026401
0.0275108
0.0267818
0.0244954
0.0256763
0.0246509
0.0265554
0.0263962
0.0248643
0.0281561
0.0263791
0.0263523
0.0272229
0.0254221
0.0249815
0.0274809
0.0248645
0.0242514
0.0241658
0.0242684
0.0244779
0.0257347
0.0275556
0.027202
0.0261972
0.0265655
0.0270978
0.0260875
0.0270295
0.0242849
0.0273373
0.0204924
0.0271604
0.0244839
0.0244919
0.0271998
0.0244214
0.0264496
0.0269576
0.0272257
0.0255232
0.026508
0.0259794
0.0261511
0.0250032
0.0270183
0.0265833
0.0272356
0.0264026
0.0247507
0.0267969
0.0260251
0.0261106
0.0243198
0.0252239
0.025112
0.0241792
0.0244078
0.0262437
0.0260536
0.0249611
0.0259554
0.0275025
0.027365
0.0276988
0.0203782
0.0244914
0.0274825
0.0246883
0.0272339
0.024252
0.0274556
0.0272995
0.0273183
0.0246778
0.0263341
0.0276585
0.0276143
0.0268494
0.0274797
0.0262558
0.0266656
0.0260907
0.0244712
0.0267036
0.0258221
0.0261335
0.0261919
0.0248883
0.0260836
0.0273135
0.0255254
0.0254362
0.0245744
0.0268614
0.026875
0.0241006
0.026239
0.0262516
0.0270097
0.0248538
0.0265063
0.0264547
0.0280824
0.0220144
0.0265234
0.0261039
0.0244094
0.0272977
0.0251858
0.0251004
0.0268308
0.0275118
0.0241936
0.0273558
0.0266731
0.0247357
0.0243392
0.0274802
0.0274939
0.0244255
0.0263227
0.0242103
0.0253041
0.0275936
0.025887
0.0269002
0.0272542
0.0275392
0.0257664
0.0258143
0.0258091
0.026389
0.0266068
0.0256545
0.0271426
0.0246181
0.0251421
0.0265011
0.0262476
0.0268415
0.0258863
0.0269355
0.0271075
0.026327
0.0274335
0.0269118
0.0260245
0.0254772
0.0269434
0.0258789
0.0254135
0.0267282
0.0276299
0.0270473
0.0265807
0.0248835
0.0268459
0.0255894
0.0245189
0.0259192
0.0265399
0.0245548
0.0268576
0.0254908
0.0235428
0.0242615
0.0269871
0.0230948
0.0260359
0.0272012
0.0267355
0.0246839
0.026868
0.0282162
0.0247035
0.0243777
0.0249308
0.0272389
0.0262261
0.0260728
0.0274227
0.0244472
0.0270508
0.0262447
0.0275918
0.027771
0.0207649
0.0263314
0.0271213
0.0273324
0.02631
0.0258974
0.0225173
0.0266995
0.0274661
0.0256554
0.0243198
0.0262324
0.0271226
0.0266387
0.0243643
0.0265721
0.0270482
0.0273569
0.0260449
0.0265214
0.0241355
0.0245854
0.024518
0.0263708
0.0259333
0.026703
0.0276278
0.0273404
0.023498
0.0272568
0.027362
0.0267889
0.0259054
0.0272066
0.0255504
0.0248921
0.0258136
0.0264996
0.0255399
0.024207
0.0268199
0.0260315
0.0271674
0.0251391
0.0236192
0.0256638
0.0274047
0.0269946
0.0255115
0.0259628
0.0272882
0.0273397
0.0256493
0.0258853
0.0271002
0.0275663
0.0269588
0.0275997
0.0269059
0.0266598
0.0242059
0.0262051
0.0247546
0.0271313
0.0269665
0.025679
0.0245891
0.0277375
0.024356
0.0258927
0.0248534
0.0262143
0.0237337
0.0265707
0.026192
0.0262317
0.0262947
0.0253143
0.027422
0.0248045
0.0269635
0.0261356
0.0260993
0.0240215
0.0270971
0.0265904
0.0246906
0.0254067
0.0262789
0.0262055
0.0267495
0.0220718
0.026656
0.0259622
0.0262668
0.0255097
0.0256429
0.0255823
0.0222429
0.0273692
0.026225
0.0171518
0.0247579
0.0268054
0.0273023
0.0269636
0.0250359
0.0225067
0.0271529
0.0246939
0.0270554
0.0275533
0.0266662
0.0250982
0.0272513
0.0243356
0.023886
0.0239786
0.0267448
0.0260686
0.0258264
0.027621
0.0269876
0.0266084
0.0252265
0.0237795
0.0277868
0.0264109
0.0278809
0.0271008
0.0247097
0.0259415
0.026637
0.024735
0.0262525
0.0257382
0.026387
0.0284977
0.0264337
0.0261522
0.0245047
0.0264621
0.0258408
0.0269706
0.0260059
0.0243339
0.0249538
0.0266749
0.0269931
0.0249198
0.0269986
0.0254005
0.0267694
0.0253708
0.0252436
0.0224334
0.0274983
0.0271263
0.0267033
0.0275014
0.0259624
0.0250436
0.0241449
0.022622
0.0266172
0.0244074
0.0261818
0.0258571
0.027338
0.0260539
0.0271399
0.0255485
0.0178441
0.0247733
0.0271971
0.0188034
0.0263446
0.0277767
0.0267382
0.027555
0.0245976
0.0248612
0.0251887
0.0276163
0.0222659
0.0277144
0.02474
0.0232067
0.0270584
0.0249237
0.0272774
0.0183466
0.0238211
0.0266859
0.0271835
0.0275375
0.0268125
0.0273205
0.0267207
0.0266519
0.0271284
0.0269548
0.0260137
0.0257679
0.0224087
0.0271653
0.0257169
0.0256244
0.0275417
0.0275715
0.0268687
0.0246005
0.0273811
0.0268277
0.0259461
0.0249744
0.0242332
0.0268827
0.0275362
0.0271623
0.0273298
0.0266475
0.0263909
0.0243909
0.0271331
0.0262949
0.0264818
0.0260898
0.0242574
0.023091
0.0257424
0.0280516
0.0267892
0.0265046
0.024954
0.0256259
0.0254359
0.0246213
0.0273163
0.0259457
0.0209933
0.0218685
0.0236825
0.0247993
0.0269852
0.0262468
0.0265772
0.0256218
0.0235781
0.0266485
0.0272064
0.0237843
0.0279526
0.024307
0.0275096
0.0253313
0.0271286
0.0272366
0.0263769
0.0268698
0.0258932
0.0250311
0.0250995
0.0256166
0.0268703
0.026444
0.0250468
0.025437
0.026525
0.0242997
0.0262641
0.0250946
0.027212
0.0255682
0.0260706
0.0215428
0.0272556
0.027667
0.0263696
0.0269072
0.0257132
0.0260338
0.0271943
0.0267159
0.0265964
0.0276496
0.0264042
0.0244565
0.0242205
0.0281404
0.0245232
0.0244493
0.0241488
0.0269522
0.0275883
0.0264704
0.0276018
0.0281475
0.0275532
0.0267547
0.0257565
0.0246317
0.0265838
0.0235097
0.0265836
0.0265008
0.0259015
0.0257389
0.0251349
0.0262856
0.0276803
0.0237533
0.0255765
0.0264342
0.0239823
0.0272805
0.0230826
0.0236646
0.0244448
0.0273311
0.0248492
0.0244529
0.0250276
0.0241043
0.0263397
0.022222
0.0226149
0.0262487
0.0246809
0.0237825
0.0261083
0.0246977
0.0253809
0.0263875
0.0252918
0.0243774
0.0266604
0.0251372
0.0255651
0.0243718
0.0257586
0.0257374
0.0228995
0.0274435
0.0261561
0.0266489
0.0255766
0.0247031
0.0243355
0.0260614
0.0259768
0.0274319
0.0264043
0.0270759
0.0254395
0.0262618
0.0272239
0.027274
0.0223141
0.0227736
0.0242157
0.0271449
0.0243029
0.0262381
0.0214155
0.0253859
0.0264412
0.0257071
0.0261489
0.0251687
0.0257568
0.0257711
0.0275491
0.024827
0.0258472
0.0278141
0.0241199
0.0260017
0.0246143
0.0268896
0.0250177
0.0243291
0.0262785
0.0245008
0.022227
0.023196
0.0244012
0.0253934
0.022863
0.0275428
0.0251699
0.0238705
0.0258618
0.0271403
0.0259428
0.0232134
0.0277446
0.0265418
0.0243122
0.025852
0.0260298
0.0247777
0.026011
0.0261788
0.0260782
0.0242772
0.0238503
0.0259578
0.0248585
0.0230234
0.0236866
0.0240289
0.0264224
0.0240583
0.0269991
0.0259375
0.0262283
0.0251073
0.0272469
0.0244646
0.0262963
0.0252379
0.0182467
0.0274403
0.0232065
0.0263086
0.0272016
0.027357
0.0223258
0.0271019
0.0274477
0.0246371
0.0264502
0.0259173
0.0251351
0.0222782
0.0261526
0.0250259
0.0271404
0.0278416
0.0253765
0.0275302
0.024767
0.0249149
0.0238987
0.0224374
0.022988
0.0274683
0.022806
0.0270666
0.0250368
0.0235267
0.0255718
0.0274146
0.022894
0.0192342
0.0247576
0.0266255
0.0272413
0.0264027
0.0176958
0.0254009
0.0270262
0.0265269
0.0277022
0.0256083
0.0230908
0.027409
0.0230695
0.0265322
0.0255008
0.0253538
0.0252478
0.0267121
0.0244936
0.024443
0.0227053
0.0247132
0.0268352
0.0261779
0.0260266
0.0239605
0.0247561
0.0253157
0.0245331
0.0265896
0.0237805
0.0242053
0.0263712
0.0271875
0.0237818
0.0270298
0.0250706
0.027964
0.023428
0.0273806
0.0257556
0.0263979
0.0263575
0.0251785
0.024537
0.0279288
0.0261122
0.0260911
0.0258943
0.0241491
0.0268669
0.0274241
0.0239958
0.0244204
0.0252777
0.0232361
0.0250306
0.0263898
0.0221885
0.0275399
0.0224838
0.0253512
0.0262788
0.0230773
0.0251946
0.0258394
0.0244147
0.0259298
0.0244866
0.026106
0.0234098
0.0265768
0.023499
0.0253355
0.0207437
0.0260078
0.0235735
0.0242065
0.0265703
0.0241542
0.0249056
0.0277445
0.0263316
0.0264734
0.0272272
0.0227743
0.0261901
0.0247837
0.0260774
0.0261327
0.0254327
0.027246
0.0263502
0.0240637
0.023909
0.026919
0.0260115
0.0261896
0.0225241
0.0272316
0.0279635
0.0268305
0.0260952
0.0243792
0.0246303
0.0254934
0.0239276
0.0240574
0.0266759
0.0257296
0.0251688
0.0255437
0.0254729
0.0258501
0.0233457
0.024821
0.0242079
0.0223617
0.0275362
0.025778
0.0246665
0.0271341
0.0258437
0.025178
0.02663
0.0227788
0.0243182
0.0232352
0.0236532
0.0276125
0.0265287
0.0217291
0.0271727
0.0232115
0.0258716
0.0261197
0.0257409
0.0271222
0.0252875
0.0261257
0.0255225
0.0252735
0.0251124
0.0269276
0.0232726
0.023782
0.0251686
0.0224703
0.0251763
0.0229746
0.0244972
0.0273332
0.025929
0.0215031
0.0217414
0.0241118
0.023494
0.0250685
0.0242218
0.0253666
0.0263982
0.0221451
0.0262467
0.0254914
0.0251004
0.0232169
0.025771
0.0228885
0.0212729
0.0242431
0.0240161
0.0239475
0.0248785
0.0248696
0.0253817
0.0237379
0.0269682
0.0239128
0.0256617
0.0242555
0.0258142
0.0248652
0.0235058
0.0263147
0.025508
0.0223669
0.0242754