/*--------------------------------*- C++ -*----------------------------------*\
| =========                 |                                                 |
| \\      /  F ield         | OpenFOAM: The Open Source CFD Toolbox           |
|  \\    /   O peration     | Version:  2212                                  |
|   \\  /    A nd           | Website:  www.openfoam.com                      |
|    \\/     M anipulation  |                                                 |
\*---------------------------------------------------------------------------*/
FoamFile
{
    version     2.0;
    format      ascii;
    arch        "LSB;label=32;scalar=64";
    class       volScalarField;
    location    "0.028";
    object      nut;
}
// * * * * * * * * * * * * * * * * * * * * * * * * * * * * * * * * * * * * * //

dimensions      [0 2 -1 0 0 0 0];

internalField   nonuniform List<scalar> 
31639
(
5.95235e-05
5.7199e-05
5.86852e-05
6.28624e-05
5.76852e-05
5.60338e-05
5.56206e-05
6.0137e-05
5.93652e-05
6.1292e-05
6.11004e-05
6.08413e-05
5.82506e-05
6.22898e-05
5.61082e-05
5.41376e-05
5.98504e-05
5.64161e-05
5.4054e-05
5.75269e-05
4.76286e-05
6.14236e-05
6.2373e-05
5.44495e-05
5.34708e-05
5.87424e-05
5.76398e-05
5.14295e-05
5.58931e-05
6.23725e-05
6.14041e-05
5.54352e-05
6.2069e-05
5.37117e-05
4.98179e-05
6.21277e-05
4.59824e-05
6.3246e-05
6.16659e-05
4.43775e-05
5.01699e-05
4.93308e-05
6.0928e-05
6.13726e-05
6.15971e-05
6.14763e-05
5.59491e-05
5.64756e-05
5.97818e-05
6.25387e-05
6.10692e-05
4.54862e-05
6.29007e-05
4.7074e-05
5.55135e-05
5.90433e-05
4.83043e-05
5.78577e-05
5.7241e-05
4.80743e-05
5.8218e-05
6.068e-05
5.30191e-05
5.69547e-05
5.92473e-05
6.26069e-05
5.83003e-05
5.79729e-05
5.13263e-05
6.23795e-05
6.23143e-05
5.36442e-05
6.0391e-05
5.77069e-05
6.25323e-05
4.95023e-05
6.14272e-05
5.66419e-05
5.64708e-05
6.09556e-05
5.33691e-05
4.41255e-05
6.19666e-05
5.89554e-05
5.94183e-05
6.11949e-05
6.24623e-05
6.18212e-05
5.0638e-05
6.31248e-05
5.84545e-05
5.7993e-05
4.9016e-05
5.68411e-05
5.2198e-05
5.61965e-05
5.72353e-05
5.77084e-05
5.8327e-05
4.85057e-05
6.28623e-05
6.11875e-05
5.66381e-05
4.74629e-05
4.86478e-05
6.16448e-05
4.72273e-05
4.63912e-05
5.23738e-05
4.71563e-05
6.0042e-05
4.90004e-05
5.66344e-05
5.51357e-05
5.79582e-05
4.71228e-05
5.62329e-05
5.62796e-05
6.13824e-05
5.70623e-05
6.04279e-05
6.08354e-05
6.0343e-05
5.91513e-05
5.80143e-05
6.20969e-05
5.75023e-05
5.29713e-05
5.2066e-05
6.0749e-05
6.13374e-05
6.068e-05
6.10217e-05
5.5667e-05
6.04879e-05
5.79902e-05
4.84049e-05
4.70323e-05
6.06527e-05
5.77156e-05
5.7548e-05
6.13277e-05
6.14028e-05
4.67828e-05
4.54923e-05
6.25403e-05
6.10864e-05
4.91201e-05
4.86493e-05
6.14289e-05
5.22804e-05
5.81842e-05
5.4164e-05
6.02886e-05
4.98704e-05
6.25316e-05
5.7774e-05
5.13661e-05
5.04124e-05
5.42701e-05
6.15224e-05
5.02898e-05
5.21495e-05
4.77381e-05
4.92605e-05
5.64643e-05
4.9555e-05
6.2388e-05
6.0722e-05
4.72206e-05
5.35814e-05
5.54193e-05
4.99156e-05
5.82684e-05
6.30388e-05
6.11209e-05
5.84724e-05
6.26086e-05
5.8513e-05
5.79091e-05
5.66039e-05
5.65363e-05
5.53802e-05
4.52731e-05
5.8951e-05
6.29326e-05
5.58996e-05
6.22079e-05
4.91061e-05
4.7964e-05
6.35869e-05
6.08659e-05
5.96875e-05
5.702e-05
5.76937e-05
5.56919e-05
5.55053e-05
6.049e-05
4.7775e-05
5.58215e-05
6.18939e-05
6.27984e-05
5.95198e-05
5.98072e-05
5.80951e-05
5.75044e-05
5.63465e-05
5.59561e-05
6.08586e-05
4.54018e-05
5.70202e-05
5.60669e-05
5.90316e-05
6.11158e-05
5.98804e-05
6.19126e-05
5.03528e-05
5.39693e-05
6.09982e-05
6.14491e-05
5.9954e-05
5.64437e-05
4.76357e-05
5.74357e-05
4.77864e-05
5.74792e-05
6.07652e-05
5.36882e-05
4.94554e-05
6.01788e-05
5.92188e-05
6.31664e-05
5.05788e-05
4.8167e-05
5.97238e-05
6.01644e-05
4.86644e-05
6.1768e-05
5.2515e-05
4.71966e-05
5.64847e-05
5.93292e-05
5.72002e-05
5.42578e-05
5.2954e-05
6.0071e-05
5.61075e-05
5.533e-05
4.93748e-05
5.70508e-05
5.5528e-05
4.99166e-05
5.41719e-05
6.26169e-05
6.16099e-05
5.52187e-05
5.02524e-05
6.03236e-05
5.98844e-05
5.69183e-05
6.27549e-05
6.1438e-05
5.9627e-05
6.16838e-05
5.62289e-05
5.72157e-05
4.7077e-05
5.37519e-05
6.12304e-05
5.56861e-05
5.99152e-05
5.49477e-05
5.80829e-05
6.23116e-05
6.26277e-05
5.80949e-05
4.85316e-05
5.63815e-05
5.21438e-05
6.12988e-05
5.68931e-05
6.16772e-05
6.27392e-05
5.51507e-05
4.94452e-05
5.19675e-05
5.01243e-05
4.77081e-05
6.0968e-05
5.09736e-05
6.20929e-05
5.65325e-05
5.45072e-05
5.07337e-05
6.31423e-05
5.52675e-05
5.39548e-05
6.16222e-05
5.78316e-05
5.22561e-05
5.70666e-05
5.07142e-05
5.74876e-05
5.64258e-05
4.97587e-05
5.60856e-05
5.6081e-05
4.40427e-05
4.65178e-05
6.09302e-05
6.2316e-05
6.0382e-05
4.78429e-05
5.0369e-05
6.03325e-05
5.12925e-05
5.18085e-05
6.20853e-05
6.23584e-05
5.57479e-05
6.15143e-05
6.25077e-05
4.98023e-05
6.27864e-05
4.67343e-05
4.74717e-05
6.12452e-05
6.06375e-05
6.11495e-05
6.24477e-05
6.02301e-05
5.06305e-05
5.68868e-05
5.65743e-05
6.15417e-05
6.26266e-05
6.3012e-05
5.65055e-05
5.51788e-05
5.90905e-05
6.04862e-05
5.94103e-05
5.50984e-05
5.72224e-05
5.60992e-05
5.70227e-05
6.05454e-05
5.57736e-05
4.95596e-05
5.9628e-05
6.363e-05
5.56213e-05
6.23103e-05
6.17764e-05
5.70251e-05
4.98387e-05
5.67663e-05
5.68189e-05
4.76962e-05
6.23682e-05
5.04999e-05
5.86075e-05
6.14227e-05
4.65739e-05
5.73708e-05
5.68871e-05
4.8314e-05
5.83647e-05
5.0387e-05
5.71661e-05
6.26875e-05
5.97676e-05
4.63896e-05
5.9116e-05
5.04004e-05
5.92097e-05
6.12833e-05
6.17884e-05
6.1438e-05
5.05264e-05
6.01631e-05
4.77611e-05
5.60727e-05
4.71909e-05
6.20884e-05
6.07626e-05
6.16328e-05
6.11578e-05
5.28077e-05
6.24886e-05
5.71683e-05
5.91404e-05
5.66982e-05
5.10682e-05
5.73918e-05
5.99278e-05
5.90697e-05
6.01605e-05
5.87564e-05
6.02157e-05
5.68245e-05
4.93179e-05
5.73708e-05
6.06562e-05
6.0056e-05
4.65087e-05
6.1739e-05
6.09675e-05
5.70005e-05
5.91589e-05
5.97951e-05
5.80592e-05
6.20632e-05
4.83881e-05
5.92819e-05
6.17166e-05
4.67073e-05
5.81362e-05
5.89748e-05
5.04291e-05
4.81805e-05
4.8583e-05
5.51818e-05
4.81746e-05
5.70502e-05
5.70859e-05
5.47228e-05
6.24094e-05
4.9367e-05
6.08425e-05
6.21868e-05
5.72513e-05
6.03189e-05
5.59535e-05
6.1544e-05
5.72681e-05
5.77557e-05
6.26594e-05
5.72119e-05
4.85896e-05
5.75075e-05
6.22298e-05
6.13209e-05
6.00339e-05
6.26336e-05
5.57306e-05
5.91977e-05
6.05866e-05
6.27271e-05
6.26095e-05
4.99147e-05
5.6615e-05
4.50899e-05
5.65277e-05
5.63865e-05
4.93798e-05
4.73731e-05
5.56762e-05
6.01527e-05
6.09911e-05
4.84807e-05
5.99056e-05
5.41815e-05
5.69319e-05
6.04387e-05
4.50999e-05
5.64261e-05
4.72335e-05
5.57124e-05
6.12447e-05
6.3265e-05
6.01647e-05
5.71484e-05
4.68188e-05
5.99329e-05
5.75881e-05
6.04712e-05
4.78509e-05
4.93027e-05
5.68244e-05
4.89565e-05
5.02431e-05
5.91519e-05
4.77258e-05
5.55425e-05
4.85771e-05
5.98425e-05
4.92461e-05
6.2448e-05
6.09376e-05
6.10622e-05
6.17593e-05
5.25736e-05
6.11171e-05
6.17812e-05
5.84972e-05
6.08194e-05
5.77799e-05
6.09117e-05
6.33569e-05
5.48393e-05
6.17477e-05
6.25068e-05
5.6973e-05
5.28302e-05
6.25844e-05
5.75707e-05
4.57862e-05
4.67909e-05
5.76043e-05
6.16524e-05
6.22623e-05
5.63278e-05
6.31894e-05
6.33798e-05
6.02616e-05
5.81585e-05
5.62458e-05
5.76579e-05
5.0603e-05
5.66338e-05
5.92343e-05
6.24695e-05
5.20179e-05
5.17241e-05
5.12406e-05
5.47455e-05
5.68585e-05
4.56344e-05
6.00845e-05
5.42316e-05
5.95605e-05
5.72928e-05
6.08088e-05
5.73635e-05
4.96199e-05
5.88209e-05
6.19052e-05
5.16012e-05
6.08383e-05
6.30857e-05
5.74346e-05
5.64902e-05
5.16749e-05
5.16162e-05
5.7091e-05
5.76951e-05
5.00745e-05
4.95424e-05
5.77824e-05
5.32244e-05
5.98605e-05
5.25598e-05
5.65419e-05
6.1396e-05
5.72763e-05
4.80691e-05
5.3518e-05
5.77636e-05
6.1973e-05
4.86923e-05
4.50577e-05
6.1176e-05
4.81429e-05
5.85081e-05
6.3061e-05
4.86799e-05
5.75478e-05
6.18675e-05
5.76061e-05
4.79692e-05
6.14227e-05
5.72643e-05
4.86922e-05
6.10706e-05
5.83658e-05
5.59252e-05
6.08025e-05
4.6434e-05
5.40888e-05
5.72176e-05
5.58893e-05
5.36814e-05
5.79935e-05
6.23578e-05
6.18406e-05
6.01022e-05
6.20485e-05
6.12889e-05
6.03345e-05
5.31926e-05
5.99945e-05
6.21311e-05
6.43762e-05
5.18021e-05
5.78142e-05
5.84913e-05
6.42693e-05
5.00492e-05
4.62127e-05
6.23416e-05
5.18877e-05
6.31434e-05
5.54349e-05
4.95786e-05
5.77518e-05
6.14114e-05
5.75104e-05
5.95591e-05
4.75314e-05
6.07704e-05
5.83977e-05
4.68881e-05
6.21921e-05
6.07641e-05
4.98301e-05
4.97929e-05
5.05339e-05
5.59455e-05
5.79609e-05
5.778e-05
5.68199e-05
5.76904e-05
6.09527e-05
5.7675e-05
5.71664e-05
4.99892e-05
6.25838e-05
4.7647e-05
5.74116e-05
5.6722e-05
5.53103e-05
6.33599e-05
5.74934e-05
5.21124e-05
4.74197e-05
4.94691e-05
5.65731e-05
6.18297e-05
5.0861e-05
6.26619e-05
5.69205e-05
6.08547e-05
4.93212e-05
5.56758e-05
6.0339e-05
6.27256e-05
6.15155e-05
6.04134e-05
5.798e-05
5.70289e-05
6.27059e-05
6.25465e-05
6.17734e-05
5.23146e-05
6.13976e-05
4.97648e-05
6.20703e-05
6.07902e-05
5.65568e-05
5.0586e-05
5.57112e-05
4.51518e-05
6.16535e-05
5.793e-05
6.30975e-05
5.71631e-05
5.48212e-05
4.93317e-05
6.17238e-05
4.77803e-05
4.52703e-05
5.06046e-05
5.23398e-05
4.9888e-05
5.70398e-05
4.82586e-05
5.98526e-05
5.92268e-05
4.52077e-05
6.26428e-05
4.97731e-05
5.36133e-05
5.56783e-05
5.4845e-05
6.035e-05
6.20121e-05
6.30227e-05
6.18929e-05
5.64192e-05
5.77988e-05
5.55712e-05
5.59401e-05
4.7303e-05
3.83087e-05
6.20835e-05
5.65666e-05
6.0342e-05
6.1091e-05
4.86733e-05
6.16081e-05
6.24565e-05
6.03163e-05
6.07429e-05
6.03963e-05
5.8634e-05
6.22429e-05
6.28472e-05
5.77345e-05
6.12515e-05
6.11886e-05
5.06103e-05
6.13705e-05
5.50998e-05
6.05715e-05
5.5103e-05
5.70483e-05
5.35802e-05
6.31783e-05
5.59402e-05
5.77916e-05
5.68531e-05
4.98566e-05
6.25361e-05
5.84379e-05
5.49295e-05
4.91954e-05
6.01564e-05
4.68588e-05
6.13272e-05
6.01808e-05
5.52445e-05
6.24704e-05
6.3014e-05
6.22234e-05
4.84837e-05
5.73504e-05
5.70574e-05
5.77522e-05
5.04142e-05
6.03105e-05
6.11398e-05
5.48489e-05
5.73945e-05
5.45656e-05
5.97597e-05
5.54376e-05
5.66789e-05
4.66736e-05
6.06659e-05
5.90496e-05
6.16468e-05
5.29123e-05
5.73738e-05
5.86069e-05
5.70177e-05
5.4051e-05
5.8454e-05
6.07408e-05
5.63305e-05
4.67769e-05
4.69271e-05
5.6428e-05
4.60709e-05
4.98711e-05
5.85215e-05
5.85343e-05
6.09812e-05
4.6531e-05
5.64844e-05
6.20756e-05
5.06485e-05
4.78201e-05
5.8255e-05
5.05254e-05
5.97763e-05
5.15419e-05
6.20854e-05
5.34345e-05
5.47061e-05
6.24187e-05
4.70668e-05
5.57976e-05
5.6056e-05
6.09853e-05
6.19383e-05
6.1857e-05
5.06216e-05
6.0174e-05
6.18063e-05
5.49427e-05
6.25017e-05
6.06342e-05
5.9799e-05
6.19601e-05
5.77969e-05
6.34742e-05
6.28638e-05
6.31487e-05
5.96866e-05
5.53053e-05
5.81367e-05
5.72926e-05
4.84594e-05
5.6004e-05
5.94031e-05
6.13098e-05
6.25314e-05
5.63469e-05
6.28694e-05
6.08462e-05
5.50127e-05
6.07595e-05
6.13845e-05
6.01158e-05
6.0455e-05
4.94098e-05
5.55579e-05
6.17156e-05
4.60771e-05
5.70548e-05
5.65984e-05
5.66373e-05
5.62374e-05
6.24262e-05
6.01642e-05
6.11321e-05
5.72452e-05
5.99928e-05
5.81888e-05
6.14165e-05
5.81963e-05
5.60302e-05
4.98375e-05
6.14494e-05
5.02682e-05
5.56297e-05
5.69791e-05
5.52606e-05
5.84446e-05
6.26012e-05
4.94358e-05
6.26371e-05
4.98251e-05
5.8229e-05
5.59236e-05
5.63969e-05
5.69156e-05
6.23431e-05
4.89432e-05
6.04825e-05
6.13606e-05
6.19768e-05
5.81476e-05
5.86747e-05
4.55503e-05
6.1985e-05
6.10526e-05
6.0021e-05
6.04856e-05
6.12473e-05
5.75399e-05
5.83062e-05
5.79367e-05
5.06994e-05
5.68022e-05
6.23403e-05
4.74405e-05
5.16517e-05
6.43617e-05
6.10999e-05
5.38075e-05
5.55532e-05
5.83284e-05
5.40605e-05
5.65389e-05
5.14969e-05
6.07454e-05
6.23016e-05
4.59225e-05
5.81421e-05
6.17886e-05
6.06613e-05
6.22588e-05
5.58692e-05
6.1242e-05
5.08536e-05
5.0347e-05
6.25581e-05
6.13318e-05
5.70132e-05
5.04792e-05
6.04386e-05
6.13585e-05
5.24977e-05
6.17533e-05
6.14196e-05
6.16798e-05
5.94797e-05
6.13799e-05
5.80657e-05
5.85527e-05
5.64519e-05
5.45922e-05
4.81162e-05
5.84667e-05
5.80044e-05
5.05518e-05
6.18145e-05
4.73517e-05
5.55902e-05
5.68251e-05
4.97987e-05
5.65442e-05
5.49274e-05
5.99144e-05
5.81397e-05
6.09587e-05
4.8993e-05
4.94985e-05
5.59688e-05
4.90192e-05
5.49589e-05
6.13654e-05
5.64066e-05
6.16786e-05
5.75935e-05
5.71468e-05
6.18008e-05
5.52443e-05
5.7844e-05
5.69049e-05
5.66908e-05
5.92374e-05
5.11684e-05
5.78443e-05
6.06186e-05
6.2109e-05
6.3221e-05
4.88765e-05
4.85715e-05
5.71101e-05
6.16857e-05
5.12123e-05
5.58479e-05
5.90376e-05
5.72172e-05
6.40466e-05
5.67059e-05
5.60167e-05
6.02966e-05
4.88357e-05
6.16137e-05
6.2091e-05
5.01831e-05
5.37441e-05
5.66745e-05
5.50186e-05
6.25809e-05
6.18559e-05
5.92054e-05
5.08796e-05
6.10889e-05
4.89256e-05
5.60983e-05
6.12882e-05
5.41416e-05
6.34577e-05
4.74001e-05
5.71055e-05
5.91478e-05
5.7682e-05
4.76951e-05
4.78324e-05
6.16323e-05
6.21296e-05
5.55121e-05
6.22822e-05
5.91336e-05
5.68965e-05
4.9271e-05
5.18493e-05
5.87415e-05
5.72985e-05
5.71913e-05
6.27511e-05
6.16282e-05
6.3625e-05
6.22024e-05
5.89412e-05
5.88867e-05
6.04036e-05
4.96224e-05
6.10526e-05
5.9869e-05
5.80961e-05
5.86469e-05
6.21783e-05
5.65e-05
6.2307e-05
5.64503e-05
4.60662e-05
6.29965e-05
5.39931e-05
6.20561e-05
5.52093e-05
6.12035e-05
5.03123e-05
6.00293e-05
6.4199e-05
5.71511e-05
5.76191e-05
4.84772e-05
6.07822e-05
6.22707e-05
5.91947e-05
4.90026e-05
6.48034e-05
5.75317e-05
5.92987e-05
6.20698e-05
6.13225e-05
6.07233e-05
5.67813e-05
5.71033e-05
6.34604e-05
5.01712e-05
5.08301e-05
5.00579e-05
5.25708e-05
5.86537e-05
4.78142e-05
6.2554e-05
6.15385e-05
6.29202e-05
5.62467e-05
5.7036e-05
5.78554e-05
6.18774e-05
5.77163e-05
5.80344e-05
6.19055e-05
6.21166e-05
5.7209e-05
6.13048e-05
5.77168e-05
5.61984e-05
6.02119e-05
5.50868e-05
6.29636e-05
6.26336e-05
6.29361e-05
6.28939e-05
6.19297e-05
5.39777e-05
6.3876e-05
5.81344e-05
5.87656e-05
5.61357e-05
5.88269e-05
6.33154e-05
5.7443e-05
6.08911e-05
5.55407e-05
5.73186e-05
6.00685e-05
5.12015e-05
4.85362e-05
5.66467e-05
5.61533e-05
6.25959e-05
5.46383e-05
4.78167e-05
5.88617e-05
6.10352e-05
5.23204e-05
5.48733e-05
5.79433e-05
6.2679e-05
6.23537e-05
5.59617e-05
5.29e-05
5.75085e-05
6.0496e-05
5.5393e-05
5.85009e-05
5.7849e-05
4.79769e-05
5.52767e-05
5.49245e-05
6.00169e-05
6.1653e-05
5.77089e-05
6.2193e-05
6.03285e-05
5.76607e-05
5.86561e-05
5.02604e-05
5.20239e-05
4.74837e-05
6.185e-05
5.8474e-05
6.26194e-05
6.5382e-05
6.04667e-05
4.82464e-05
6.05556e-05
5.56176e-05
5.98316e-05
5.95367e-05
6.0662e-05
4.82507e-05
6.30511e-05
4.97785e-05
5.78775e-05
5.85173e-05
5.6989e-05
6.37271e-05
5.67406e-05
6.01874e-05
5.07865e-05
5.67262e-05
5.79011e-05
6.09006e-05
5.38791e-05
5.15904e-05
6.01817e-05
6.15613e-05
5.94753e-05
6.00042e-05
6.25914e-05
4.99775e-05
5.68295e-05
5.6495e-05
5.2532e-05
6.10649e-05
6.27082e-05
6.26691e-05
6.15226e-05
6.3232e-05
5.06091e-05
4.97522e-05
5.04257e-05
6.33212e-05
4.84999e-05
6.05501e-05
5.91757e-05
4.98777e-05
5.54476e-05
6.09459e-05
6.18362e-05
5.34689e-05
5.48469e-05
5.57106e-05
5.79664e-05
6.24736e-05
5.84038e-05
5.01915e-05
5.77652e-05
6.30035e-05
6.17628e-05
6.30156e-05
6.24582e-05
6.48857e-05
6.27333e-05
6.11631e-05
5.09193e-05
4.86686e-05
5.79373e-05
5.38946e-05
6.22622e-05
4.90531e-05
5.87397e-05
5.68591e-05
6.26621e-05
5.09758e-05
5.98018e-05
6.08907e-05
5.89404e-05
5.57037e-05
4.96422e-05
6.10763e-05
5.45567e-05
6.30465e-05
5.77106e-05
6.45619e-05
6.27188e-05
5.81002e-05
4.84769e-05
4.94422e-05
5.67206e-05
5.88676e-05
5.44866e-05
6.39847e-05
5.0151e-05
6.22019e-05
6.03791e-05
5.53995e-05
5.97211e-05
6.14502e-05
6.21054e-05
6.2359e-05
6.28645e-05
5.86498e-05
5.95955e-05
4.82524e-05
5.47519e-05
6.23134e-05
5.08205e-05
5.97946e-05
5.64416e-05
5.06033e-05
5.73723e-05
5.95115e-05
5.69592e-05
6.02396e-05
6.11828e-05
4.99608e-05
5.65478e-05
5.80643e-05
4.94077e-05
5.49132e-05
5.65558e-05
5.60325e-05
6.01443e-05
5.03777e-05
5.00981e-05
5.70264e-05
5.55789e-05
6.21893e-05
6.35046e-05
6.21998e-05
5.58885e-05
5.61377e-05
5.82547e-05
5.51112e-05
6.21297e-05
5.02033e-05
5.76409e-05
5.68804e-05
6.28443e-05
6.03367e-05
5.68882e-05
5.76882e-05
6.15647e-05
4.98822e-05
5.80461e-05
6.23866e-05
5.53412e-05
4.32011e-05
5.76262e-05
4.92563e-05
5.90701e-05
4.72301e-05
6.28656e-05
6.28013e-05
6.21095e-05
5.86679e-05
5.0574e-05
4.90854e-05
6.12235e-05
6.29508e-05
6.22234e-05
5.80287e-05
5.80771e-05
6.01906e-05
6.31219e-05
6.18792e-05
4.8235e-05
5.70683e-05
5.87111e-05
5.9721e-05
5.58157e-05
6.00597e-05
4.77921e-05
6.27054e-05
6.14537e-05
5.87501e-05
5.84433e-05
6.00989e-05
5.75813e-05
6.28255e-05
5.97995e-05
5.07801e-05
5.71624e-05
6.03443e-05
5.65561e-05
5.8425e-05
5.94021e-05
4.74479e-05
5.14458e-05
6.18883e-05
6.29995e-05
6.1337e-05
6.2807e-05
6.05865e-05
6.16373e-05
5.93907e-05
5.81342e-05
5.96413e-05
6.17118e-05
5.52597e-05
5.71336e-05
5.50458e-05
5.76552e-05
6.14821e-05
4.70136e-05
5.86078e-05
4.79365e-05
6.13172e-05
4.81706e-05
4.8853e-05
5.68171e-05
4.65762e-05
5.71234e-05
5.92091e-05
6.14573e-05
6.14907e-05
5.42704e-05
5.43526e-05
6.40104e-05
5.28151e-05
5.0208e-05
5.65958e-05
5.36859e-05
6.22363e-05
5.95723e-05
5.86566e-05
4.98519e-05
6.12411e-05
6.21072e-05
6.24365e-05
4.89975e-05
5.2371e-05
5.76788e-05
6.13794e-05
6.34798e-05
5.04006e-05
4.85582e-05
6.06969e-05
5.79649e-05
6.29267e-05
5.74462e-05
4.70016e-05
5.96865e-05
6.1357e-05
4.92678e-05
4.73223e-05
6.18598e-05
5.13809e-05
5.1101e-05
6.2294e-05
6.30078e-05
6.0226e-05
6.43073e-05
5.68684e-05
5.56596e-05
6.18738e-05
5.4046e-05
6.21679e-05
5.48887e-05
5.96222e-05
6.17899e-05
5.65337e-05
4.93976e-05
6.08996e-05
6.16069e-05
5.58169e-05
5.71164e-05
5.79403e-05
5.26637e-05
5.4215e-05
5.84769e-05
5.94421e-05
6.22966e-05
5.51986e-05
6.06334e-05
4.8459e-05
6.04691e-05
6.32598e-05
4.78541e-05
6.1705e-05
5.82888e-05
4.48179e-05
4.92909e-05
5.81283e-05
5.73281e-05
6.0816e-05
5.53942e-05
5.05716e-05
6.15517e-05
6.30706e-05
6.24455e-05
5.93382e-05
6.23757e-05
4.87972e-05
6.20076e-05
5.7463e-05
4.90955e-05
4.9817e-05
4.41314e-05
5.01245e-05
6.01726e-05
5.58544e-05
5.90091e-05
5.77737e-05
5.24995e-05
5.36573e-05
4.68642e-05
4.68277e-05
6.42118e-05
6.33046e-05
5.04283e-05
6.22384e-05
6.12318e-05
5.02919e-05
5.67795e-05
5.8246e-05
5.22313e-05
5.49366e-05
6.24335e-05
5.12463e-05
4.66794e-05
6.24995e-05
6.34926e-05
5.39447e-05
6.21481e-05
5.61559e-05
5.20756e-05
5.0256e-05
5.72755e-05
4.90459e-05
4.93701e-05
5.83539e-05
5.9919e-05
5.67941e-05
6.20352e-05
6.2056e-05
5.68824e-05
6.2592e-05
3.98884e-05
5.70809e-05
4.88713e-05
5.7893e-05
6.24661e-05
5.67942e-05
5.42785e-05
5.68332e-05
5.03315e-05
5.9295e-05
5.70945e-05
5.45268e-05
4.92069e-05
4.65491e-05
4.58729e-05
5.53732e-05
4.92321e-05
5.71426e-05
4.96527e-05
5.60715e-05
6.20957e-05
5.92435e-05
5.62846e-05
5.84026e-05
5.99039e-05
5.7195e-05
6.091e-05
4.79883e-05
5.81338e-05
6.28237e-05
6.26025e-05
5.63038e-05
6.41515e-05
5.20446e-05
6.10314e-05
5.65787e-05
4.84616e-05
6.05926e-05
6.27446e-05
5.98907e-05
6.0567e-05
6.22391e-05
5.90582e-05
4.61756e-05
4.71017e-05
5.62974e-05
6.30874e-05
5.87327e-05
6.12657e-05
5.46114e-05
5.58524e-05
5.19611e-05
4.81206e-05
4.80352e-05
4.8037e-05
6.03586e-05
5.86241e-05
6.24921e-05
5.55682e-05
5.54141e-05
6.34164e-05
4.77106e-05
5.7818e-05
6.26703e-05
6.23342e-05
5.4454e-05
5.55589e-05
6.07927e-05
6.29577e-05
6.23806e-05
4.93829e-05
5.80653e-05
6.07931e-05
5.93325e-05
5.79679e-05
6.42172e-05
6.12819e-05
6.23746e-05
5.84446e-05
5.36874e-05
5.78563e-05
6.22357e-05
6.05245e-05
5.74638e-05
4.89132e-05
6.18239e-05
6.13991e-05
6.21312e-05
6.08615e-05
4.81718e-05
4.51877e-05
5.65201e-05
6.04118e-05
5.6846e-05
5.85866e-05
6.07192e-05
6.08955e-05
6.13716e-05
5.51651e-05
6.04409e-05
5.76093e-05
6.12226e-05
4.91111e-05
4.88286e-05
5.53328e-05
6.22166e-05
5.0182e-05
6.1451e-05
4.95066e-05
5.64838e-05
5.75672e-05
6.27043e-05
5.65136e-05
6.14101e-05
6.17235e-05
6.14169e-05
5.87339e-05
6.06948e-05
5.80085e-05
5.50809e-05
4.66485e-05
6.2968e-05
4.44228e-05
4.77336e-05
4.95044e-05
4.72251e-05
4.74796e-05
5.60017e-05
5.81594e-05
4.9852e-05
5.49104e-05
4.473e-05
5.06187e-05
5.59224e-05
6.20192e-05
4.76058e-05
4.89062e-05
6.09284e-05
4.76953e-05
5.66332e-05
6.07016e-05
5.91066e-05
5.73794e-05
4.97916e-05
4.79919e-05
5.54439e-05
6.27823e-05
5.21782e-05
4.93311e-05
5.87994e-05
5.49393e-05
5.86467e-05
5.70076e-05
4.98309e-05
6.25644e-05
4.69249e-05
4.84124e-05
5.64327e-05
6.20385e-05
5.48006e-05
5.65167e-05
5.68912e-05
5.79299e-05
4.62485e-05
5.09304e-05
5.59094e-05
6.28389e-05
6.00503e-05
4.79453e-05
4.55426e-05
5.67735e-05
6.30561e-05
5.67828e-05
5.7208e-05
5.46909e-05
5.57345e-05
5.70468e-05
4.89547e-05
6.22913e-05
5.42852e-05
4.91123e-05
4.52127e-05
6.06914e-05
5.75442e-05
6.28832e-05
5.86985e-05
6.10605e-05
4.88258e-05
5.64359e-05
4.66236e-05
4.48856e-05
6.13343e-05
5.01718e-05
5.63231e-05
5.76039e-05
5.96764e-05
4.92339e-05
6.25916e-05
6.11676e-05
6.25233e-05
5.92134e-05
4.24865e-05
5.75554e-05
4.69696e-05
6.29542e-05
4.96679e-05
6.24384e-05
4.50453e-05
5.88656e-05
6.03804e-05
5.46561e-05
5.56282e-05
4.57364e-05
5.35034e-05
5.74441e-05
6.14607e-05
5.97595e-05
6.21186e-05
6.24534e-05
4.86978e-05
6.24866e-05
5.42795e-05
5.85841e-05
5.89862e-05
6.13928e-05
6.10421e-05
5.75058e-05
6.298e-05
5.62414e-05
5.39803e-05
5.40449e-05
5.85515e-05
6.22821e-05
5.33839e-05
5.12786e-05
6.2043e-05
6.00033e-05
5.70479e-05
6.43242e-05
5.90861e-05
5.89012e-05
6.07678e-05
6.1711e-05
6.22265e-05
5.68617e-05
5.53284e-05
6.15165e-05
6.06558e-05
5.11153e-05
5.6817e-05
5.33399e-05
6.28366e-05
5.85498e-05
6.13862e-05
4.9554e-05
4.9757e-05
5.78158e-05
6.08013e-05
6.15208e-05
6.28386e-05
6.16287e-05
5.8343e-05
5.98827e-05
5.00769e-05
5.77961e-05
5.75931e-05
6.19464e-05
6.23857e-05
6.22096e-05
5.67144e-05
6.25494e-05
5.0932e-05
6.2327e-05
5.33858e-05
5.63534e-05
5.56622e-05
5.77735e-05
5.58445e-05
6.07046e-05
4.87818e-05
6.15364e-05
6.15896e-05
5.67194e-05
4.97986e-05
6.33546e-05
6.01951e-05
6.19997e-05
5.70506e-05
5.78113e-05
6.06873e-05
4.84804e-05
6.23005e-05
5.66766e-05
5.82148e-05
5.30746e-05
5.35507e-05
5.27228e-05
4.83239e-05
5.47265e-05
6.32348e-05
5.82204e-05
4.71686e-05
5.95097e-05
4.80033e-05
5.86979e-05
5.86471e-05
4.65384e-05
4.80063e-05
5.39443e-05
5.82781e-05
6.0764e-05
5.51143e-05
6.06534e-05
5.67937e-05
5.25623e-05
5.4308e-05
6.23769e-05
6.23134e-05
6.19024e-05
6.03005e-05
5.92314e-05
4.89091e-05
4.96417e-05
6.26756e-05
5.57808e-05
5.81448e-05
6.12399e-05
6.37662e-05
5.78862e-05
5.93536e-05
4.63699e-05
6.09525e-05
6.16711e-05
5.4935e-05
6.25806e-05
6.19928e-05
5.89462e-05
5.50139e-05
6.03021e-05
5.53771e-05
4.69328e-05
5.79109e-05
4.9915e-05
4.82404e-05
5.83909e-05
5.76245e-05
6.13178e-05
6.12753e-05
5.84189e-05
6.20939e-05
4.52374e-05
5.50641e-05
6.29638e-05
6.2873e-05
4.75512e-05
5.7834e-05
5.10642e-05
5.49425e-05
6.21943e-05
5.47576e-05
5.95063e-05
6.35333e-05
5.99531e-05
4.64614e-05
6.12872e-05
4.87988e-05
6.17836e-05
6.03191e-05
5.8857e-05
6.17087e-05
5.84496e-05
6.18139e-05
4.92418e-05
6.22872e-05
6.2376e-05
5.06726e-05
5.92361e-05
5.72705e-05
5.60761e-05
6.10481e-05
5.67279e-05
6.10964e-05
6.26649e-05
6.26878e-05
5.73732e-05
6.24394e-05
5.74557e-05
6.02346e-05
5.1524e-05
5.45517e-05
4.83056e-05
4.75087e-05
5.88314e-05
5.95168e-05
5.71823e-05
6.2502e-05
5.6066e-05
6.25575e-05
4.71455e-05
6.30658e-05
6.29292e-05
5.97409e-05
6.23946e-05
5.13481e-05
4.678e-05
5.70022e-05
4.80646e-05
6.12409e-05
5.77953e-05
4.65686e-05
5.62644e-05
6.28977e-05
6.02649e-05
4.79656e-05
5.28076e-05
4.61688e-05
6.327e-05
4.84313e-05
6.10714e-05
5.36822e-05
4.90633e-05
6.20961e-05
6.26208e-05
6.22213e-05
6.04755e-05
4.92799e-05
5.95224e-05
6.29577e-05
5.08104e-05
6.19662e-05
6.00949e-05
6.25763e-05
4.70967e-05
6.05201e-05
5.52157e-05
5.98609e-05
5.52118e-05
5.63486e-05
5.5275e-05
5.50329e-05
5.56418e-05
5.61213e-05
6.02583e-05
5.68945e-05
6.285e-05
5.1175e-05
5.67636e-05
5.80924e-05
6.0737e-05
6.27891e-05
4.85214e-05
6.07996e-05
4.99885e-05
5.62443e-05
6.24059e-05
6.25932e-05
5.65669e-05
5.89926e-05
6.03868e-05
5.52377e-05
5.72084e-05
5.66126e-05
4.86249e-05
4.81127e-05
5.89194e-05
6.12342e-05
5.74662e-05
5.5435e-05
6.13315e-05
4.9754e-05
5.86667e-05
4.95313e-05
5.97602e-05
6.25554e-05
5.76378e-05
4.82025e-05
6.13383e-05
4.83691e-05
5.91828e-05
6.21402e-05
4.71999e-05
6.32153e-05
5.07452e-05
5.49432e-05
5.62968e-05
4.8274e-05
5.39864e-05
5.51346e-05
4.56766e-05
6.19654e-05
6.29186e-05
4.45645e-05
5.45073e-05
6.02482e-05
5.8627e-05
5.88337e-05
6.33103e-05
6.17732e-05
5.65399e-05
5.33085e-05
4.7425e-05
4.59178e-05
5.15733e-05
6.30757e-05
6.11442e-05
5.99725e-05
5.97827e-05
4.88124e-05
4.89867e-05
5.66458e-05
6.17829e-05
4.62873e-05
5.93616e-05
5.72565e-05
5.63296e-05
6.0051e-05
5.47346e-05
6.10141e-05
5.29887e-05
5.73635e-05
6.35409e-05
4.35787e-05
5.82899e-05
6.18956e-05
6.14279e-05
5.99823e-05
6.1085e-05
5.8563e-05
4.84637e-05
6.34245e-05
6.43116e-05
5.73098e-05
5.79703e-05
5.46269e-05
5.71803e-05
5.99228e-05
6.05487e-05
5.78784e-05
5.66964e-05
5.60644e-05
4.76501e-05
5.55303e-05
6.27592e-05
6.00493e-05
6.38758e-05
5.82922e-05
5.72311e-05
6.30745e-05
4.93301e-05
6.09923e-05
4.86049e-05
6.28331e-05
6.00544e-05
5.52728e-05
6.3813e-05
5.47215e-05
5.70006e-05
6.31982e-05
5.58379e-05
6.30221e-05
6.11035e-05
6.08119e-05
4.86963e-05
5.75334e-05
5.68517e-05
5.22459e-05
6.1083e-05
5.55154e-05
5.59721e-05
6.31469e-05
4.90204e-05
6.21887e-05
5.76031e-05
6.21827e-05
5.55341e-05
5.86874e-05
4.90155e-05
5.06028e-05
6.38596e-05
4.9286e-05
5.7344e-05
6.10334e-05
4.87376e-05
5.66986e-05
6.1395e-05
5.43928e-05
5.01116e-05
5.33822e-05
5.58176e-05
5.55797e-05
6.14266e-05
5.6558e-05
6.23504e-05
5.91348e-05
6.15924e-05
4.65899e-05
5.27682e-05
6.27891e-05
5.67174e-05
4.82746e-05
5.05238e-05
5.77414e-05
4.99729e-05
4.84342e-05
5.74113e-05
5.65029e-05
6.28103e-05
5.54101e-05
6.11793e-05
6.19134e-05
6.14679e-05
6.12079e-05
6.12181e-05
5.51982e-05
5.40705e-05
6.08888e-05
5.65697e-05
5.50909e-05
6.25247e-05
5.70356e-05
4.77306e-05
4.76168e-05
5.65373e-05
4.95506e-05
6.00422e-05
6.09953e-05
5.47676e-05
6.13305e-05
6.0965e-05
6.07436e-05
6.39678e-05
5.71718e-05
4.90403e-05
5.5073e-05
5.56492e-05
6.12433e-05
5.50047e-05
5.99726e-05
6.25872e-05
5.63802e-05
5.49975e-05
5.8097e-05
6.22167e-05
6.01712e-05
6.51364e-05
6.15124e-05
5.67959e-05
5.77535e-05
5.08606e-05
5.5367e-05
6.23004e-05
5.16078e-05
6.26231e-05
5.49039e-05
6.10827e-05
4.83773e-05
6.02696e-05
5.74875e-05
6.12382e-05
5.68718e-05
5.9502e-05
5.70788e-05
6.1234e-05
4.72505e-05
5.07023e-05
5.74692e-05
5.47052e-05
5.8535e-05
5.76697e-05
5.77908e-05
6.23851e-05
5.89822e-05
4.75962e-05
5.36886e-05
4.86097e-05
5.84886e-05
5.73917e-05
4.96709e-05
6.4146e-05
5.74524e-05
5.66118e-05
6.07853e-05
5.27936e-05
5.01548e-05
6.25458e-05
4.98961e-05
4.78323e-05
5.48407e-05
5.43051e-05
5.07054e-05
5.35989e-05
6.2317e-05
6.12183e-05
5.51873e-05
5.83768e-05
6.08978e-05
5.73897e-05
6.07585e-05
4.75047e-05
6.17191e-05
4.12021e-05
6.11536e-05
4.90675e-05
4.84924e-05
6.17369e-05
4.77785e-05
5.6746e-05
5.91912e-05
6.1307e-05
5.47134e-05
5.89617e-05
5.52248e-05
5.68526e-05
5.46619e-05
6.01074e-05
5.85744e-05
6.1439e-05
5.73479e-05
4.95187e-05
6.01827e-05
5.65459e-05
5.64787e-05
5.59179e-05
5.11016e-05
5.3158e-05
4.69569e-05
4.81401e-05
5.7397e-05
5.61766e-05
5.07595e-05
5.48534e-05
6.16627e-05
6.22377e-05
6.22948e-05
4.01445e-05
4.77043e-05
6.22567e-05
4.85574e-05
6.07721e-05
4.78209e-05
6.17588e-05
6.15984e-05
6.14169e-05
4.93383e-05
5.64017e-05
6.2777e-05
6.25945e-05
5.89676e-05
6.24231e-05
5.70157e-05
5.87026e-05
5.67547e-05
4.8648e-05
5.89541e-05
5.41833e-05
5.75808e-05
5.74078e-05
5.20458e-05
5.62681e-05
6.21429e-05
5.36426e-05
5.36752e-05
4.84663e-05
6.03367e-05
6.03909e-05
4.60661e-05
5.71294e-05
5.72059e-05
5.96251e-05
4.94365e-05
5.79022e-05
5.72459e-05
6.33386e-05
4.70264e-05
5.70733e-05
5.6617e-05
4.65417e-05
6.13325e-05
4.96457e-05
5.06182e-05
5.92712e-05
6.23372e-05
4.67859e-05
6.14959e-05
5.89737e-05
5.65201e-05
4.7186e-05
6.24589e-05
6.24054e-05
4.66623e-05
5.74013e-05
4.60614e-05
4.98228e-05
6.23841e-05
5.5404e-05
5.87618e-05
6.17339e-05
6.23755e-05
5.56219e-05
5.45468e-05
5.65886e-05
5.62887e-05
5.8475e-05
5.46453e-05
6.17761e-05
4.91071e-05
5.47594e-05
5.73028e-05
5.59665e-05
5.98866e-05
5.62911e-05
5.94969e-05
6.02878e-05
5.73213e-05
6.26256e-05
6.00558e-05
5.58214e-05
5.36641e-05
6.04183e-05
5.57494e-05
5.44909e-05
5.97328e-05
6.27421e-05
6.02364e-05
6.07903e-05
5.40428e-05
6.01626e-05
5.40262e-05
4.89773e-05
5.69477e-05
5.91654e-05
4.91178e-05
5.95051e-05
5.6248e-05
4.48363e-05
4.81796e-05
6.06451e-05
4.68705e-05
5.62526e-05
6.10136e-05
5.91186e-05
4.89491e-05
5.93727e-05
6.3675e-05
4.96761e-05
4.8811e-05
4.94013e-05
6.17474e-05
5.71188e-05
5.65965e-05
6.21939e-05
4.80893e-05
5.98013e-05
5.73699e-05
6.25942e-05
6.32433e-05
4.2905e-05
5.75527e-05
6.01671e-05
6.13212e-05
5.82326e-05
5.61064e-05
4.94482e-05
5.90184e-05
6.26709e-05
5.37076e-05
4.69995e-05
5.57208e-05
6.1443e-05
5.94301e-05
4.83656e-05
5.65079e-05
6.06049e-05
6.16594e-05
5.65316e-05
5.62587e-05
4.62054e-05
4.92121e-05
4.88861e-05
5.77088e-05
5.58299e-05
5.86164e-05
6.27762e-05
6.18595e-05
5.10062e-05
6.12923e-05
6.18166e-05
5.91013e-05
5.49094e-05
6.12463e-05
5.57504e-05
5.00032e-05
5.47594e-05
5.82057e-05
5.78559e-05
5.25728e-05
5.95612e-05
5.56757e-05
6.15429e-05
5.00871e-05
4.69798e-05
5.55927e-05
6.25519e-05
6.09929e-05
5.49828e-05
5.60342e-05
6.12234e-05
6.17815e-05
5.49557e-05
5.55075e-05
6.14483e-05
6.28434e-05
6.01426e-05
6.25718e-05
6.06451e-05
5.97173e-05
4.73839e-05
5.58996e-05
4.89307e-05
6.00271e-05
6.1466e-05
5.46494e-05
4.86803e-05
6.29202e-05
4.84725e-05
5.39848e-05
5.08112e-05
5.71688e-05
4.75453e-05
5.93973e-05
5.6964e-05
5.68185e-05
5.79191e-05
5.13284e-05
6.21742e-05
4.97493e-05
5.97671e-05
5.76342e-05
5.63636e-05
4.84574e-05
6.12714e-05
5.94559e-05
4.99815e-05
5.22274e-05
5.62236e-05
5.54522e-05
5.86628e-05
4.6661e-05
5.87743e-05
5.55937e-05
5.77555e-05
5.40295e-05
5.35631e-05
5.34304e-05
4.7095e-05
6.17573e-05
5.73718e-05
2.72374e-05
4.9681e-05
5.76621e-05
6.20148e-05
6.07146e-05
5.05538e-05
4.9714e-05
6.16833e-05
4.88835e-05
6.07073e-05
6.22496e-05
5.89428e-05
5.01642e-05
6.1547e-05
4.79842e-05
4.64e-05
4.65488e-05
5.98263e-05
5.65302e-05
5.49984e-05
6.27178e-05
5.99704e-05
5.83312e-05
5.04457e-05
4.50336e-05
6.30521e-05
5.75873e-05
6.34336e-05
6.11947e-05
4.90719e-05
5.6451e-05
5.72548e-05
5.45827e-05
5.70314e-05
5.41596e-05
5.58498e-05
6.54466e-05
5.82175e-05
5.4975e-05
4.88523e-05
5.90366e-05
5.65257e-05
6.02436e-05
5.53837e-05
4.84083e-05
4.99045e-05
5.94164e-05
5.96691e-05
5.38799e-05
6.07364e-05
5.34526e-05