/*--------------------------------*- C++ -*----------------------------------*\
| =========                 |                                                 |
| \\      /  F ield         | OpenFOAM: The Open Source CFD Toolbox           |
|  \\    /   O peration     | Version:  2212                                  |
|   \\  /    A nd           | Website:  www.openfoam.com                      |
|    \\/     M anipulation  |                                                 |
\*---------------------------------------------------------------------------*/
FoamFile
{
    version     2.0;
    format      ascii;
    arch        "LSB;label=32;scalar=64";
    class       volScalarField;
    location    "0.028";
    object      p;
}
// * * * * * * * * * * * * * * * * * * * * * * * * * * * * * * * * * * * * * //

dimensions      [0 2 -2 0 0 0 0];

internalField   nonuniform List<scalar> 
31639
(
0.0143717
0.0100238
0.0164535
0.00735465
0.010109
0.0141172
0.0157779
0.0150424
0.0107034
0.00913117
0.0156895
0.0101955
0.010592
0.0137708
0.0119985
0.0168127
0.0194821
0.0199383
0.00327912
0.0152972
0.0111241
0.00860563
0.0117271
0.00725639
0.0125764
0.0148864
0.0144825
0.0456703
0.0151266
0.0150874
0.00811352
0.0215257
0.0107407
0.00583459
0.0261711
0.0150356
0.00865281
0.0156648
0.015656
0.0128229
0.0102665
0.0146717
0.0114851
0.0159463
0.0164152
0.00687163
0.0102754
0.00813433
0.0175721
0.00738924
0.00682261
0.00548917
0.0265951
0.0162707
0.00533707
0.0199148
0.00876308
0.01456
0.0100379
0.00699873
0.00769806
0.0147161
0.0121907
0.0149886
0.0264127
0.00432551
0.00265829
0.00839538
0.0103824
0.00650192
0.00927623
0.0196242
0.00903685
0.00388522
0.026751
0.0212902
0.00926745
0.0085923
0.00995242
0.00940325
0.0143229
0.013734
0.0135325
0.00755716
0.0133881
0.0124268
0.0115273
0.0081235
0.00260881
0.0108186
0.00614989
0.0195227
0.00720944
0.00959104
0.00459395
0.014471
0.00782946
0.00553501
0.0104884
0.0138977
0.0247146
0.0247125
0.0126037
0.00959239
0.00533192
0.00666876
0.0140735
0.00708531
0.00818471
0.0127348
0.0157271
0.0137408
0.0146736
0.00864814
0.00385812
0.0153261
0.026246
0.0162282
0.0248379
0.00773142
0.0217314
0.00670225
0.00347864
0.00737531
0.0140258
0.0137531
0.00993988
0.00748083
0.00912439
0.0110537
0.0260083
0.00115246
0.0166261
0.00391825
0.00469251
0.00836886
0.00875317
0.00958834
0.00687582
0.00767645
0.00761771
0.0112984
0.0123096
0.00705269
0.0102958
0.0133989
0.0250133
0.00872985
0.0129417
0.026708
0.00784039
0.0179518
0.00562207
0.00505193
0.0065595
0.00503133
0.00369375
0.00921871
0.0175253
0.00831029
0.00458341
0.019672
0.00881613
0.0146363
0.020907
0.0209795
0.0163002
0.0183058
0.00576193
0.00401144
0.0186669
0.0137841
0.0186508
0.0106986
0.0132926
0.00897358
0.0120336
0.0216455
0.00839809
0.0126711
0.0105269
0.0173008
0.0147223
0.0153258
0.0153933
0.015008
0.0180493
0.0126647
0.0137956
0.0170691
0.0173756
0.00910427
0.0176479
0.00539969
0.00613147
0.00639096
0.00615657
0.00976776
0.00629039
0.0155343
0.0130631
0.0197599
0.017323
0.0183267
0.00894243
0.0074786
0.00312892
0.00530348
0.0220617
0.00604061
0.00601499
0.0128292
0.0248613
0.0132991
0.016004
0.0134099
0.0134635
0.0133985
0.0187513
0.0100651
0.0104154
0.012795
0.013541
0.0187698
0.01633
0.00933301
0.0168721
0.0164833
0.0116901
0.0214129
0.00565646
0.0155039
0.0196772
0.0170537
0.0175358
0.00300588
0.00277449
0.0178584
0.0147019
0.00532314
0.00757473
0.016097
0.018699
0.0175849
0.00777727
0.0201573
0.00596663
0.0208624
0.0170231
0.00303846
0.000879533
0.00687879
0.0174493
0.0200302
0.00972871
0.010418
0.0145627
0.00450793
0.0143891
0.0166419
0.00696678
0.00560468
0.00975123
0.0137789
0.00988223
0.0133552
0.00221869
0.0253181
0.015863
0.0142021
0.0324125
0.00661858
0.0144775
0.0179274
0.0086372
0.0169118
0.00616196
0.0188289
0.00837943
0.00688459
0.0210907
0.0216827
0.0215566
0.0286094
0.0154543
0.0154914
0.0188605
0.0180022
0.00343815
0.0173535
0.01933
0.00156045
0.00559249
0.00562471
0.0163651
0.00483898
0.0195745
0.00261881
0.00770889
0.00888557
0.00826072
0.0187697
0.00596975
0.00537544
0.0119641
0.00481216
0.0136544
0.00318521
0.0115518
0.0188853
0.00798971
0.031597
0.0253045
0.0112222
0.0103294
0.0145193
0.00278712
0.0218346
0.0169294
0.0166411
0.0159908
0.00669292
0.0244169
0.00497241
0.0131549
0.0178617
0.0160438
0.0180332
0.00580936
0.00672227
0.00697294
0.00734692
0.019087
0.00549953
0.019747
0.0262887
0.0269106
0.00834158
0.018303
0.0206128
0.00469038
0.00230467
0.0200697
0.00421995
0.00602058
0.018615
0.00510453
0.0164367
0.0162554
0.0244708
0.00918126
0.0187918
0.00917605
0.0173786
0.00532897
0.00701049
0.00596052
0.0120116
0.012208
0.0179912
0.0197501
0.012143
0.0314946
0.00344393
0.00842238
0.00761098
0.00408144
0.0121351
0.0129962
0.0180416
0.0117941
0.0220696
0.0138232
0.00649951
0.00438464
0.00731512
0.0253553
0.0211919
0.0177257
0.0221446
0.0167744
0.00548987
0.00820513
0.00547824
0.00504391
0.00478891
0.00589047
0.0101452
0.000555443
0.0202076
0.00301077
0.0224154
0.00596508
0.0187292
0.0052018
0.0191811
0.0203312
0.0153438
0.00735863
0.0297144
0.0199356
0.015661
0.0150048
0.00502265
0.017663
0.00274622
0.00780194
0.00788793
0.0081763
0.0154062
0.0067623
0.00792159
0.0175385
0.032572
0.0161223
0.0177195
0.0129743
0.0138598
0.0124223
0.0103316
0.00996591
0.024446
0.011839
0.00106289
0.017624
0.0321427
0.0114381
0.0239327
0.0138125
0.0164512
0.00721728
0.00596596
0.0187643
0.00681827
0.0149767
0.0149964
0.0182693
0.00448739
0.00553029
0.019521
0.0082793
0.00292873
0.00351502
0.0135045
0.00469015
0.00839633
0.00884397
0.020446
0.0200129
0.0216312
0.0203935
0.0177808
0.00865881
0.0182037
0.00820745
0.0194079
0.0217862
0.00675145
0.0178394
0.00751282
0.0146698
0.0209693
0.0138816
0.00375856
0.0171666
0.0477172
0.00372557
0.0112136
0.0076098
0.016667
0.0021536
0.00579444
0.00691302
0.00575736
0.018206
0.00148205
0.0115698
0.023534
0.0103823
0.0120462
0.00699282
0.0255834
0.00450386
0.00951616
0.0244629
0.0314621
0.01142
0.0163465
0.0133127
0.0088802
0.00688519
0.00527973
0.021461
0.00249892
0.0141712
0.0136263
0.0128933
0.00388993
0.00589618
0.0206245
0.0233054
0.00301124
0.00341416
0.00382962
0.00225038
0.0275033
0.00790932
0.00328489
0.0219687
0.0244379
0.0218397
0.00462462
0.0196729
0.0183045
0.0207725
0.00236775
0.0244422
0.0245062
-0.00035291
0.0212166
0.0204888
0.0213356
0.0135791
0.0227696
0.00101909
0.00373182
0.0207228
0.00309837
0.00376076
0.00636109
0.0154481
0.0104369
0.0191166
0.00129419
0.00682342
0.0109584
0.0229877
0.00148604
0.0182119
0.0028199
0.0318179
0.0321777
0.00759999
0.0459623
0.00780988
0.00778075
0.0126563
0.0129973
0.00899745
0.0123568
0.0330838
0.00908394
0.0178762
0.000757702
0.00810725
0.0125588
0.00712105
0.0204226
0.001574
0.00489686
0.0123067
0.00441832
0.0111526
0.0113754
0.00614227
0.0257893
0.00447127
0.00317799
0.000512834
0.0143392
0.0234724
0.00354167
0.000750516
0.00433526
0.00480666
0.00374323
0.0218345
-1.04475e-05
0.00148967
0.00103329
0.0196024
0.00247048
0.0205437
0.0210094
0.0219116
0.00643858
9.76248e-05
0.000355727
0.0033387
0.000989721
0.0134713
0.00117316
0.0134525
0.0213388
0.0018176
0.00783389
0.0105106
0.0256403
0.0236902
0.018587
0.00890823
0.00428362
0.0246307
0.0211877
0.00199722
0.00218843
0.00915312
0.0154693
0.00637412
0.00140307
0.000134479
0.00108271
0.0204687
0.0171252
0.00785814
0.0470414
0.0168542
0.0130979
0.0090785
0.0141462
0.0181775
0.0180395
0.0126163
0.00806142
0.0101168
0.0104714
0.0171421
0.00394303
0.0122943
0.0014635
0.0133987
0.0311948
0.0216831
0.0200338
0.0148785
0.0117701
0.0283817
0.0132228
0.0158484
0.00701534
0.0251758
0.023751
0.00349226
0.0130101
0.0147702
0.000289064
0.0288438
0.00795285
0.00135867
0.00387856
0.00221577
0.0256254
0.0233983
0.0238752
0.00360385
0.00014526
0.0202488
0.0136361
0.0213661
0.022047
0.0220546
0.00143925
9.23085e-05
0.0209614
0.0182411
0.0188368
0.0220886
0.00124837
0.00790774
0.0323807
0.00458593
0.00258287
0.0226914
0.0128512
0.00544355
0.0206766
0.0203626
0.0165549
0.00959735
0.00636912
0.0150599
0.00866773
0.000473326
0.000839602
0.0017036
0.00639511
0.00243975
0.0256645
0.00914859
0.000706094
0.000784125
0.0196464
0.00695537
0.000869119
0.0475364
0.0064499
0.00770788
0.0103531
0.0116955
0.00991844
0.0126674
0.0119832
0.00803852
0.00923454
0.0133291
0.0084825
0.00792901
0.00899779
0.0118807
0.0226246
0.0128291
0.0121233
0.0198661
0.0256915
0.021638
0.00606861
0.0119286
0.00344594
0.0135016
0.0265337
0.00102863
0.00247369
0.00222273
0.0068842
0.00797372
0.0197205
0.0188424
0.00562645
0.00231836
0.0153912
0.025549
0.000658554
0.0210047
0.00835205
0.0193514
0.0178036
0.0187117
0.0241551
0.022509
0.0290021
0.020567
0.017234
0.0214651
0.0193469
0.0199998
0.00720498
0.0251873
0.00708771
0.0018724
0.00472828
0.0195486
0.000123435
0.0162178
0.00383759
0.00535595
0.0162546
0.00977421
0.024287
0.00454136
0.0170181
0.00551465
0.0279697
0.00806886
0.000813752
0.00118427
0.0228405
0.0152643
0.00103762
0.00252585
0.00147995
0.00488572
0.00067419
0.000340064
0.0192316
0.0186138
0.000257583
0.0186849
0.0165405
0.0199837
0.0109602
0.0108638
0.00877844
0.014062
0.0147115
0.00686903
0.0011115
0.0128878
0.0176354
0.0130352
0.0241856
0.0216217
0.0129201
0.020973
0.00800427
0.0324547
0.00380544
0.0211978
0.0126823
0.000132588
0.0144233
0.00369414
0.00768171
0.00321209
0.00324003
0.0162346
0.0229939
0.00565861
0.0203594
0.000948075
0.00101385
0.000977295
0.0267871
0.0269377
0.0256187
0.0275729
0.0227457
0.0210095
0.00706864
0.00459251
0.00780508
0.0020634
0.015003
0.00672827
0.0176789
0.00978518
0.00783243
0.00245411
-0.000115942
0.00572366
0.00305727
0.0238997
0.0104097
0.00562686
0.0053964
0.0100036
0.00101211
0.0167924
0.00546248
0.021021
0.00405799
0.00276422
0.0138336
0.0137719
0.021367
0.0254366
0.022307
0.0170011
0.00958212
0.0103954
0.0202119
0.000178297
0.00109907
0.0198847
0.0203174
-0.000108287
0.000471789
0.00289383
0.020038
0.0053007
0.0121885
0.025855
0.0251856
0.0128511
0.0301817
0.00971798
0.00841572
0.00866681
0.00561562
0.00348985
0.0211039
0.00358097
0.0129071
0.0156252
0.0238194
0.0075214
0.0086627
0.00826944
0.0191698
0.0194179
0.0194784
0.0276375
0.00258754
0.0224114
0.0221111
0.0225629
0.0122508
0.000462592
0.0264843
0.0273209
0.0251728
0.0148531
0.015701
0.0171622
0.0159988
0.0190463
0.0146617
0.000580369
0.0200592
0.00934121
0.00641071
0.0204011
0.0015575
0.000923739
0.00356602
0.00333629
0.0244442
0.00983743
0.00362765
0.00503516
0.00886968
0.01809
0.00849704
0.00780545
0.0163337
0.0114406
0.000345881
0.0210454
0.0133369
0.0220991
0.0111623
0.00232229
0.0171477
0.0170276
0.000842102
0.00983648
0.00917123
0.000708339
0.000852821
0.0208571
0.0239578
0.00967076
0.0124715
0.00145673
0.0221845
0.0276279
0.023142
0.0159745
0.00748298
0.0215964
0.0163522
0.0086712
0.0120361
0.00670411
0.00680707
0.010818
0.0205245
0.00372762
0.0134251
0.00849689
0.00766925
0.000257774
0.0229275
0.00901469
0.0236759
0.00654559
0.019387
0.0224044
0.011138
0.0112049
0.023361
0.0189215
0.0212572
0.008249
0.00957092
0.0188097
0.0179644
0.0142441
0.015077
0.0219044
0.0224172
0.0294788
0.0173536
0.019583
0.00126552
0.000855025
0.0200656
0.0183184
0.00941401
0.0217486
0.00314095
0.0153527
0.0170881
0.0214284
0.00265582
0.0219863
0.0199913
0.0238387
0.022636
0.0236798
0.0111908
0.0203535
0.0090438
0.0156282
0.0151879
0.014431
0.0246087
0.0228038
0.0220789
0.0186706
0.0101399
0.0132169
0.0145609
0.0224204
0.0143894
7.65582e-05
0.0233668
0.0257125
0.0121425
0.0102757
0.00430671
0.00311664
0.00855435
0.0226437
0.00710897
0.00761466
0.0278679
0.0113885
0.00424933
0.00584497
0.000523431
0.0108599
0.0123089
0.0111907
0.0208658
0.000776864
0.0241671
0.00214878
0.0234969
0.0227086
0.0277233
0.0107082
0.0109928
0.00939033
0.017592
0.0156318
0.0183522
0.028227
0.0205531
0.0217829
0.0143972
0.017533
0.0104012
0.0184201
0.0159852
0.00349733
0.00315176
0.0129076
0.00105922
0.00919962
0.0243347
0.025634
0.00469528
0.0235628
0.0153422
0.0247633
0.0135656
0.0139607
0.00189225
0.00103604
0.0180254
0.016279
0.00787175
0.0103552
0.00977291
0.0151096
0.0104597
0.0204371
0.0219208
0.0280592
0.0215855
0.023314
0.0141317
0.00995613
0.0116369
0.00104648
0.00199027
0.00383172
0.0102542
0.00924467
0.0162177
0.00955191
0.0170864
0.0193469
0.0214314
0.00990026
0.00617685
0.0287332
0.0150469
0.0256691
0.0253417
0.0113111
0.0258917
0.00264826
0.0217746
0.00654389
0.0123456
0.00492893
0.0095684
0.0106878
0.0245525
0.0249531
0.000776819
0.022469
0.0267744
0.0306471
0.00999273
0.0188812
0.0216829
0.0220282
0.00889286
0.00958762
0.0204272
0.030915
0.0203403
0.00377505
0.0179923
0.0302323
0.0174951
0.0173194
0.0167537
0.00832795
0.025348
0.0218938
0.0255638
0.00225297
0.0182227
0.00153123
0.0151145
0.0214454
0.00459265
0.021559
0.0066263
0.020526
0.0279244
0.0120872
0.000625928
0.0136367
0.0146467
0.000837202
0.00905327
0.00920316
0.014452
0.0105559
0.0294217
0.0235361
0.00927088
0.00916362
0.0227927
0.0128234
0.0216697
0.0285488
0.0220756
0.000795796
0.000765187
0.0233561
0.0202779
0.0142329
0.0158136
0.018148
0.0150189
0.0156069
0.0255077
0.0223873
0.0268806
0.0201784
0.0176818
0.00253448
0.0258876
0.00341454
0.00980592
0.0241826
0.0258821
0.0209093
0.0109515
0.0097833
0.000544475
0.0226473
0.0140413
0.0239826
0.0131975
0.0253776
0.0269009
0.0169872
0.0181379
0.0108554
0.00530782
0.0293373
0.0140068
0.0179861
0.0139645
0.0129007
0.0186807
0.0297057
0.0171832
0.0161597
0.0319261
0.00279552
0.0250881
0.0154974
0.0308984
0.0160357
0.0129119
0.0249134
0.025502
0.00460771
0.00957186
0.00533486
0.00655385
0.0220463
0.0117167
0.0127178
0.000544304
0.0101859
0.0369703
0.0104409
0.010936
0.0150725
0.0155538
0.0147077
0.0232263
0.0238003
0.0172475
0.00924038
0.0235723
0.0132469
0.024426
0.0218677
0.0220515
0.0243268
0.0248576
0.022833
0.0087365
0.000738676
0.0260868
0.00791283
0.0274556
0.030603
0.0286665
0.0104653
0.0261966
0.0175862
0.0028117
0.00231025
0.00385056
0.0233996
0.0242589
0.0240948
0.0223614
0.0267046
0.0109131
0.00906631
0.0245138
0.0271968
0.0129714
0.0241472
0.0259352
0.0172098
0.00999518
0.0294811
0.0263226
0.0226663
0.018381
0.0234862
0.0192128
0.0253108
0.00213829
0.0190829
0.0226642
0.0259359
0.0185381
0.0246225
0.0123583
0.0310436
0.0193863
0.00260558
0.0235037
0.00565327
0.000172548
0.00534029
0.0185209
0.0157683
0.0183106
0.0235002
0.0255399
0.00969948
0.0202197
0.0115559
0.0157372
0.0148804
0.0146824
0.00903877
0.0240266
0.0161296
0.0167159
0.0238075
0.0167239
0.00834576
0.00801547
0.0167986
0.0176301
0.0160522
0.022379
0.0228885
0.00133902
0.015829
0.0238291
0.0227507
0.0164552
0.0168139
0.01384
0.0171761
0.0300216
0.00149627
0.00825849
0.0250139
0.00388133
0.0110465
0.0119474
0.0114026
0.0278616
0.0295381
0.00371067
0.0302041
0.0268655
0.019267
0.0192227
0.0273057
0.0199118
0.0252452
0.0237041
0.00477024
0.0105578
0.0287302
0.000536309
0.000830466
0.0274435
0.0255989
0.0044626
0.0271532
0.019963
0.0175219
0.0113762
0.0257735
0.0251673
0.00915586
0.0238321
0.0221587
0.0194949
0.0174129
0.00108849
0.00187105
0.00131272
0.0200606
0.0230227
0.0148295
0.0262017
0.0290232
0.014335
0.012729
0.00893995
0.00535479
0.0317676
0.000150474
0.0036615
0.0114593
0.00141324
0.000326501
0.000607835
0.012225
0.00896341
0.0011234
0.0394825
0.0249619
0.0189
0.0292247
0.0163201
0.0313553
0.00512897
0.0100965
0.0105494
0.0301754
0.0302533
0.0163748
0.0085808
0.0171934
0.0155187
0.0202826
0.0188184
0.0195983
0.0229387
0.00171852
0.0244691
0.0247215
0.0249181
0.0242177
0.020331
0.0200494
0.0154473
0.0142147
0.0260422
0.0225942
0.00731358
0.00571328
0.0153294
0.0219408
0.0292765
0.00711843
0.00823394
0.00854857
0.0218479
0.0276352
0.0290748
0.0285271
0.00233448
0.0014086
0.0271539
0.000879384
0.0266981
0.0277833
0.00564164
0.00782041
0.00351697
0.0259748
0.00988029
0.0228181
0.0179191
0.0180325
0.0280389
0.0285695
0.0128704
0.031377
0.031066
0.0211605
0.0194415
0.000121032
0.000781257
0.0216045
0.0195592
0.0236403
0.0306886
0.0466782
0.031292
0.0246509
0.0312942
0.0248187
0.00310126
0.0228914
0.0263936
0.00358401
0.0247615
0.00606336
0.000694284
0.0242596
0.000871527
0.0113293
0.0123031
0.0121741
0.0112191
0.000547363
0.00240637
0.00775086
0.0297223
0.0276892
0.0200953
0.0119586
0.0151138
0.0095617
0.0120181
0.00887773
0.0116185
0.0113906
0.010282
0.0212397
0.0182051
0.0244164
0.018071
0.0244464
0.00172533
0.0239356
0.00127479
0.0316106
0.0246749
0.0161436
0.0203258
0.00987837
0.0129491
0.00451377
0.00332771
0.00793199
0.00535514
0.0146305
0.0239327
0.0112063
0.0187655
0.0171206
0.00674687
0.0168533
0.0296268
0.00168885
0.00383013
0.00160877
0.0195543
0.027867
0.0225472
0.00730828
0.00577235
0.027456
0.00355057
0.0275515
0.0260894
0.0475052
0.0276662
0.0273549
0.0312356
0.0292837
0.0281482
0.021963
0.00566113
0.0227076
0.00539554
0.0232722
0.0240866
1.32756e-05
0.0294364
0.0137592
0.00275762
0.0231061
0.0290976
0.0227618
0.0261251
0.0227829
0.0115424
0.0141067
0.0219298
0.0247555
0.0270796
0.0290614
0.00089802
0.00385764
0.0185219
0.024529
0.0230314
0.0203997
0.0214541
0.00158728
0.0204076
0.0110148
0.011559
0.0112456
0.00981123
0.0130144
0.0156889
0.000669448
0.0250143
0.0260721
0.0220276
0.00146923
0.0259084
0.0157593
0.0165944
0.0187385
0.0195606
0.0228208
0.0178453
0.040187
0.00460116
0.0162643
0.0252957
0.0195185
0.0195255
0.00380086
0.017773
0.0277598
0.031184
0.0228593
0.0104973
0.0269525
0.00963377
0.0179875
0.0287071
0.0302871
0.0179987
0.0305983
0.0303231
0.0301338
0.028081
0.0190206
0.0292201
0.0276402
0.0242192
0.0108718
0.0218222
0.00860791
0.0024047
0.0223691
0.0070847
0.0284769
0.0290182
0.0282711
0.0263082
0.016689
0.0264836
0.0299092
0.00936438
0.00658948
0.0129724
0.0320797
0.021858
0.0210321
0.00542071
0.00472902
0.0252583
0.00162037
0.0153462
0.0314198
0.0269996
0.0230066
0.0237452
0.0142638
0.0126086
0.0033434
0.0244488
0.000374493
0.0089286
0.0273739
0.00122509
0.00341591
0.0052831
0.00697707
0.00410556
0.0193319
0.0216791
0.0252923
0.0166043
0.0102216
0.0365983
0.0101744
0.0117541
0.0125251
0.026361
0.0238005
0.0298863
0.0269357
0.00846404
0.0150295
0.0146213
0.014598
0.0170327
0.0206572
0.0207294
0.0241145
0.0229625
0.0214277
0.0157721
0.0117213
0.0119161
0.00293884
0.0226639
0.0269836
0.00965772
0.00399932
0.0404923
0.0152899
0.0276675
0.0186221
0.028043
0.0336375
0.0217622
0.00978701
0.00832005
0.0179399
0.0298253
0.0285282
0.00739008
0.0316833
0.00031212
-0.00020069
0.0273409
0.0304845
0.0152515
0.0126217
0.0255611
0.00656576
0.0285507
0.0307994
0.0124101
0.0251671
0.0261543
0.038882
0.00705456
0.0294747
0.0173017
0.0180372
0.0248008
0.0295695
0.00336897
0.0231371
0.0316596
0.0308212
0.0329756
0.00708216
0.0258658
0.0252049
0.00364633
0.0204332
0.0295182
0.0211336
0.00300624
0.00919194
0.0194917
0.00639759
0.0213882
0.00911482
0.000797122
0.00103276
0.0130223
0.0037516
0.0280977
0.0164405
0.00723678
0.0125785
0.0291548
0.0292202
0.0258616
0.0270641
0.0287283
0.0165805
0.00300113
0.00623298
0.0143605
0.0245047
0.0245821
0.0252488
0.0255493
0.0174933
0.0171312
0.0155074
0.0212605
0.0188827
0.0190055
0.0205019
0.0310397
0.0223769
0.0245732
0.0209723
0.0232595
0.022993
0.0116563
0.0225693
0.0176751
0.0109315
0.01588
0.0358357
0.0178854
0.0399128
0.0236019
0.00688004
0.0106527
0.0207692
0.0339212
0.0190784
0.0180169
0.00811666
0.0237155
0.000788833
0.00206101
0.000401707
0.0294972
0.0292711
0.0297073
0.0152895
0.032117
0.00573371
0.0304514
0.0308682
0.0296571
0.00311914
0.0338712
0.0299253
0.00230821
0.0316836
0.0180284
0.0188998
0.0177748
0.0246924
0.0268238
0.0220174
0.0231613
0.0244914
0.015201
0.014657
0.00380376
0.0308415
0.0242705
0.0277551
0.0211837
0.0269914
0.0301943
0.0112348
0.0290262
0.00299494
0.0216873
0.0102872
0.00120009
0.000194424
0.0130754
0.0271472
0.0102787
0.0247969
0.0252162
0.00852425
0.0264868
0.00991677
0.0318099
0.0252028
0.0313616
0.0236455
0.0128575
0.024951
0.0261196
0.0289907
0.0067071
0.0257002
0.0256963
0.0269362
0.0289676
0.0206783
0.0273263
0.0220255
0.00300042
0.0261857
0.00665949
0.0195688
0.0206393
0.0141823
0.0226187
0.0342121
0.0172934
0.015993
0.016849
0.0117241
0.0219392
0.00817637
0.0145955
0.0268855
0.0127751
0.0253642
0.00762805
0.0271353
0.0226372
0.00708702
0.0191858
0.0282408
0.00747752
0.0222607
0.0146501
0.00201286
0.000235388
0.00204652
0.0283787
0.0186437
0.0212573
0.0162159
0.0158908
0.0284798
0.030896
0.029894
0.022681
0.0294515
0.0240678
0.0311538
0.0163874
0.0317415
0.0315427
0.0315242
0.030526
0.0296897
0.00358989
0.0249287
0.0297537
0.0227161
0.020514
0.0331123
0.0298069
0.0150015
0.0309364
0.00314348
0.0281196
0.0293849
0.020562
0.019611
0.0266078
0.0278319
0.0265129
0.00133086
0.0309889
0.0233814
0.00885456
0.000488054
0.0306849
0.00945282
0.00397418
0.00258337
0.000363277
0.0219837
0.00701763
0.0369167
0.0112203
0.0264157
0.0141639
0.0107555
0.0154452
0.0258325
0.0110667
0.0306188
0.025487
0.0149979
0.0286704
0.0256172
0.0220069
0.0343676
0.0232201
0.0295132
0.01899
0.0318404
0.0188892
0.0187637
0.00398912
0.0238748
0.0226047
0.0239924
0.0276072
0.0202253
0.0319418
0.0239023
0.023229
0.00327044
0.0071773
0.0320865
0.0168933
0.00628996
0.01703
0.042345
0.0102937
0.0331501
0.00772589
0.0015118
0.0127579
0.0132524
0.0117834
0.0219393
0.00680739
0.0204565
0.0256124
0.018301
0.00613527
0.0066513
0.030025
0.00190459
0.0223554
0.0207976
0.013822
0.0280224
0.0334417
0.0145656
0.0279912
0.026191
0.0231928
0.000474522
0.0226132
0.0252699
0.0298752
0.0305249
0.0344886
0.0320122
0.00400287
0.0026623
0.0323105
0.00389434
0.0289946
0.0310322
0.0287783
0.00626278
0.0354352
0.0136382
0.0256865
0.0308522
0.0278552
0.0286882
0.0275483
0.0262255
0.0239959
0.0141109
0.0263276
0.019907
0.00233475
0.0130654
0.0288111
0.0262061
0.0339713
0.0358366
0.00184153
0.0187079
0.00307302
0.00585299
0.0301585
0.0057855
0.0049438
0.0316862
0.00731868
0.0123503
0.0182585
0.0305693
0.000332173
0.0298925
0.0257384
0.0142095
0.0294092
0.031288
0.0162141
0.029473
0.0238781
0.031682
0.0294029
0.0289293
0.02136
0.0327922
0.0228291
0.0066672
0.00701866
0.0318486
0.0237115
0.0291078
0.0353692
0.0261882
0.0279293
0.0348654
0.00700047
0.0316744
0.0309285
0.0317923
0.017443
0.0457999
0.00538343
0.00900467
0.0141138
0.0130335
0.034369
0.0103945
0.0252308
0.0200283
0.0209107
0.0195579
0.00714625
0.012877
0.00837856
0.029888
0.00141851
0.0318302
0.0324225
0.0328486
0.015525
0.0272386
0.0406885
0.0252983
0.0022925
0.0291344
0.0098335
0.012268
0.03348
0.0157165
0.0330615
0.0336201
0.0224952
0.0036267
0.02983
0.0286611
0.0297053
0.0221045
0.0293638
0.0293286
0.0283226
0.0250009
0.0257446
0.0264964
0.0266312
0.021903
0.0203954
0.00203989
0.030552
0.0184962
0.0198116
0.0216186
0.0110167
0.00925519
0.0368247
0.028646
0.0262282
0.0333856
0.0345278
0.0129691
0.00532756
0.0089616
0.0361284
0.0186297
0.00953074
0.0308815
0.008085
0.0269216
0.0154729
0.00681278
0.00651652
0.025282
0.0147113
0.0277067
0.00114953
0.0244067
0.00257516
0.026432
0.0151452
0.0220915
0.0226594
0.021493
0.0278105
0.0269575
0.0303732
0.00939876
0.041544
0.0400909
0.035225
0.0242281
0.0239708
0.018682
0.0253623
0.028344
0.0297831
0.0340555
0.000117912
0.0132643
0.0146699
0.0450019
0.0305008
0.00379626
0.0313894
0.0038822
0.0179207
0.0205614
0.012588
0.00918701
0.0354016
0.0286659
0.00978089
0.0193212
0.0365442
0.0124756
0.00771324
0.000654211
0.0178471
0.00266933
0.0328837
0.00778815
0.0349039
0.041464
0.0106548
0.0290887
0.000394715
0.000420662
0.010132
0.0336925
0.0336638
0.0320886
0.0284766
0.00214805
0.0219696
0.0471258
0.0210657
0.0283231
0.027006
0.0280544
0.0284511
0.0225315
0.0311866
0.0276211
0.00972673
0.00241128
0.00272195
0.00273403
0.0264919
0.0296187
0.0166061
0.0295669
0.00700776
0.00726381
0.00825621
0.0255134
0.0345329
0.0340709
0.0357622
0.0201949
0.0100797
0.0313621
0.0095401
0.025373
0.0275294
0.0285309
0.0155586
0.0313194
0.0141979
0.0259584
0.0269546
0.0257839
0.0136502
0.0193493
0.0479
0.0120775
0.00309885
0.0245889
0.0210414
0.0262429
0.0169705
0.0197714
0.02133
0.0227636
0.0188373
0.0274608
0.0397998
0.0204239
0.0308353
0.0142264
0.0252833
0.0192668
0.0243937
0.026504
0.0250333
0.0337753
0.00482059
0.0331499
0.0219339
0.0010617
0.0144036
0.0347819
0.0311321
0.0184246
0.00438823
0.0281363
0.010199
0.0357565
0.0102505
0.0291277
0.027557
0.0324609
0.024593
0.0299202
0.0204347
0.00345215
0.0267999
0.0030954
0.0325702
0.000323172
0.00111269
0.00684076
0.00249983
0.0222812
0.00118313
0.0360702
0.0363255
0.0304928
0.0313881
0.0341793
0.0342301
0.0330865
0.0335373
0.0093955
0.0365087
0.0329686
0.0072998
0.0312407
0.0384345
0.0215498
0.000126345
0.03009
0.0327236
0.0281304
0.0262239
0.0295794
0.0351967
0.00335971
0.0309821
0.0015382
0.000842078
0.000103057
0.0269817
0.0191005
0.00834617
0.0156795
0.0306783
0.0451981
0.0215162
0.028043
0.0287826
0.0349998
0.0028391
0.0475449
0.0322729
0.00940493
0.02293
0.0111565
0.0240921
0.029674
0.0113561
0.0318421
0.0247821
0.0134765
0.0211489
0.012969
0.0261575
0.0210329
0.0335276
0.0344499
0.00986607
0.0179403
0.0217301
0.021215
0.0287627
0.040532
0.014711
0.0286649
0.0219092
0.0144883
0.0185985
0.036588
0.0205623
0.0188981
-0.000136514
0.0388624
0.0380901
0.00124656
0.0313691
0.00241978
0.0236131
0.035919
0.00536978
0.0333633
0.0332936
0.0354247
0.0339886
0.0272973
0.0280638
0.0306656
0.00837459
0.02955
0.0103147
0.00277053
0.0156808
0.00424544
0.0280319
0.0303858
0.0129895
0.0129778
0.0158352
0.0355416
0.0040295
0.0303593
0.0181196
0.0350967
0.0248674
0.0343315
0.0330953
0.0370123
0.0328802
0.00155234
0.0218682
0.0327276
0.0228388
0.0297713
0.0287161
0.00608387
0.034528
0.0261672
0.0361659
8.83939e-05
0.0329156
0.00835236
0.0177406
0.00239055
0.0280352
0.0271644
0.0425269
0.0259747
0.00871575
0.0322017
0.0307365
0.000950069
0.000661444
0.0419078
0.0287319
0.0100362
0.0465574
0.0115149
0.0181432
0.0313836
0.000422469
0.00364685
0.0475335
0.00917143
0.0137388
0.0135748
0.022364
0.0306695
0.0177202
0.0129037
0.0313789
0.0352871
0.0326389
0.0304506
0.0179271
0.0307098
0.0215646
0.0132507
0.0270625
0.0266551
0.0216285
0.0244794
0.0177819
0.0167042
0.0309988
0.0318528
0.0322951
0.026899
0.0381998
0.0259671
0.0269433
0.0253351
0.0265884
0.032144
0.0231211
0.00518648
0.0349844
0.0338851
0.0316049
0.00540362
0.0301269
0.0262181
0.0293735
0.0267412
0.0358746
0.0314053
0.00414276
0.0127087
0.0354889
0.0357862
0.0386461
0.00349519
0.017291
0.0121568
0.0330737
0.0319939
0.0342883
0.038336
0.0387003
0.0332573
0.0379888
0.0327855
0.0322567
0.020735
0.0342733
0.0290181
0.0379901
0.0458186
0.0287559
0.0268738
0.0473978
0.0237428
0.0169261
0.0353883
0.0195141
0.0379727
0.00109314
0.0295095
0.018263
0.0437338
0.028462
0.0271274
0.0361543
0.017416
0.00116874
0.0160043
0.0440327
0.000314011
-0.000157537
0.0291048
0.0113812
0.0122694
0.0120779
0.0086797
0.00736978
0.00823366
0.0066615
0.0130077
0.033755
0.0378103
0.0038682
0.0340743
0.0302164
0.0030505
0.0285983
0.0349327
0.0354071
0.0199844
0.0245861
0.01881
0.0346679
0.0195639
0.0302325
0.0268829
0.0199607
0.0277864
0.0339421
0.0192413
0.0188602
0.027561
0.0270756
0.0229432
0.0369464
0.00435739
0.0388874
0.023604
0.020251
0.0222527
0.0349873
0.0153031
0.0118089
0.0351138
0.0311354
0.0319926
0.0342017
0.0435783
0.0394972
0.0353228
0.0318877
0.0348256
0.0366558
0.035494
0.022027
0.0373049
0.0356699
0.0103905
0.031908
0.023637
0.0372129
0.0308945
0.0366527
0.018442
0.0329833
0.0232989
0.0271137
0.0342935
0.0370862
0.0100592
0.0302886
0.0240899
0.0232832
0.0245873
0.0379543
0.0310487
0.0327718
0.000678473
0.0278299
9.74281e-05
0.0326193
0.00276579
0.0447048
0.0113116
0.0231457
0.00912214
0.00879425
0.00792273
0.0300512
0.0326817
0.0224553
0.0230053
0.0299983
0.0204709
0.0343181
0.0352173
0.0255912
0.0386433
0.0334931
0.0388664
0.0336683
0.031463
0.0362105
0.0204555
0.0264984
0.0273824
0.0217603
0.00492882
0.0365241
0.0358789
0.0424629
0.0111181
0.0335494
0.0298826
0.0118924
0.0271832
0.0332305
0.0289734
0.0378332
0.0359354
0.0343061
0.0373631
0.0277973
0.0357178
0.0372595
0.036045
0.03538
0.0295386
0.0330867
0.0261412
0.0382819
0.0320551
0.0475756
0.0468759
0.0309027
0.0378558
0.0303789
0.0298567
0.0290637
0.0248381
0.035067
0.0310942
0.0335532
0.0350639
0.0383555
0.0337555
0.0287437
0.0320204
0.0320946
0.0374204
0.0310184
0.0331112
0.0352526
0.0365934
0.00262928
0.0338416
0.00360923
0.00414725
0.0045735
0.0023082
0.0333291
0.00714449
0.000800407
0.0244935
0.0330507
0.0451656
0.0459718
0.03819
0.0305493
0.0374132
0.0203686
0.042067
0.0270282
0.0296934
0.0323733
0.0350192
0.0229417
0.0345722
0.0360865
0.0262028
0.0280659
0.0360026
0.0283258
0.0415148
0.0362118
0.0401734
0.0124309
0.0022666
0.0335054
0.0331925
0.0326362
0.0403521
0.0342373
0.0411014
0.034316
0.0369308
0.0216586
0.0383947
0.0277205
0.0370452
0.0294005
0.0374978
0.0385516
0.023491
0.034075
0.0252932
0.0353349
0.0251996
0.0356674
0.0310012
0.0298294
0.0356474
0.0344494
0.0310232
0.0344359
0.0235924
0.0411546
0.0321543
0.0341377
0.0352488
0.0367282
0.0100386
0.0248613
0.0372073
0.00368519
0.00486948
0.0379543
0.0333612
0.00058887
0.0452999
0.0301571
0.0417625
0.0328325
0.0286088
0.0286183
0.0394767
0.0330647
0.0283527
0.0298518
0.0321723
0.0329995
0.0327
0.042482
0.0363007
0.0364793
0.0245366
0.0246176
0.0384298
0.0310479
0.0363717
0.0363648
0.0410344
0.0451644
0.0432251
0.0288587
0.0384309
0.0303416
0.0356936
0.0348917
0.0298885
0.013666
0.0378427
0.0456234
0.0370943
0.0285008
0.0328558
0.0285079
0.0469522
0.0263131
0.0337786
0.0285949
0.0299361
0.0357981
0.0378383
0.0301793
0.0362072
0.0354959
0.0322115
0.0367885
0.0357104
0.0356685
0.0319414
0.038425
0.0386287
0.0379551
0.0325595
0.0374614
0.0375426
0.0371562
0.0118739
0.0380527
0.0270037
0.0279175
0.0342831
0.0409803
0.0272548
0.0331706
0.0384806
0.0325299
0.0332823
0.0287817
0.0430732
0.0320771
0.0377066
0.0273194
0.0274033
0.0329699
0.0381667
0.0271658
0.0324413
0.0321792
0.0375372
0.038163
0.0325
0.0328351
0.0409062
0.040788
0.0336075
0.0403107
0.0394783
0.0355712
0.0405277
0.0165869
0.0403355
0.0381714
0.0375424
0.0379267
0.0362606
0.0378875
0.0418612
0.0342119
0.0377007
0.0301244
0.0344972
0.0310459
0.0356333
0.0356379
0.0431662
0.0362948
0.0428895
0.0430105
0.0308881
0.0352596
0.0369614
0.0248035
0.0318673
0.0330612
0.0330823
0.0420752
0.0366293
0.0286205
0.0326842
0.0267128
0.0389743
0.0271495
0.0284678
0.0325869
0.0332722
0.0337386
0.0377262
0.0372255
0.0377821
0.0314133
0.0276746
0.029678