/*--------------------------------*- C++ -*----------------------------------*\
| =========                 |                                                 |
| \\      /  F ield         | OpenFOAM: The Open Source CFD Toolbox           |
|  \\    /   O peration     | Version:  2212                                  |
|   \\  /    A nd           | Website:  www.openfoam.com                      |
|    \\/     M anipulation  |                                                 |
\*---------------------------------------------------------------------------*/
FoamFile
{
    version     2.0;
    format      ascii;
    arch        "LSB;label=32;scalar=64";
    class       surfaceScalarField;
    location    "0.028";
    object      phi;
}
// * * * * * * * * * * * * * * * * * * * * * * * * * * * * * * * * * * * * * //

dimensions      [0 3 -1 0 0 0 0];

oriented        oriented;

internalField   nonuniform List<scalar> 
68568
(
-1.45795e-07
1.50729e-07
-2.84757e-08
2.35419e-08
1.40738e-07
-7.18888e-08
-7.48558e-08
6.00622e-09
1.7001e-07
-1.29993e-07
-5.7957e-08
1.79408e-08
-4.31578e-09
2.19914e-09
-1.62774e-07
1.64891e-07
-1.24444e-09
1.3637e-07
9.89326e-10
-1.36115e-07
1.34792e-07
-4.85338e-10
-1.23698e-07
-1.06092e-08
8.05351e-08
-8.57892e-08
1.25656e-07
-1.20402e-07
-3.80359e-08
-2.59743e-08
1.44545e-07
1.26394e-07
-1.50413e-08
-1.06581e-07
-4.77157e-09
1.44733e-07
5.16187e-08
-5.56136e-08
9.72169e-08
1.32845e-07
-6.00524e-08
-6.22235e-08
-1.94718e-07
1.85053e-07
-1.35831e-07
6.6486e-08
-5.51077e-09
1.76547e-07
-1.82074e-07
1.33776e-08
-7.85078e-09
-6.81879e-08
-4.99921e-08
1.17052e-07
1.12835e-09
1.23519e-07
8.5182e-08
-1.2649e-07
-8.22116e-08
-4.93685e-08
-7.60638e-08
1.11193e-07
1.42394e-08
1.09278e-07
-1.14203e-07
-4.44439e-08
1.0806e-07
-4.44078e-09
-6.17283e-10
-1.03002e-07
8.31127e-08
-1.49779e-07
7.51443e-08
-8.47806e-09
1.10013e-07
-4.87168e-10
-1.09455e-07
-7.04916e-11
-1.72788e-08
8.79088e-09
1.35812e-07
-1.27324e-07
-4.44324e-08
1.83833e-07
-2.65936e-08
-1.12807e-07
-6.36098e-10
-3.84768e-10
-1.32235e-07
1.33256e-07
-7.3e-08
-4.72945e-08
1.1361e-07
6.6846e-09
-9.46233e-08
-3.86943e-08
-1.24774e-08
-6.32206e-08
1.38011e-07
8.32203e-09
7.53386e-08
4.47498e-08
-2.89696e-08
-9.11188e-08
-6.61154e-08
-9.73471e-08
1.25427e-07
4.72933e-08
-1.16857e-07
3.44796e-09
1.48883e-07
-7.96747e-08
-1.40246e-07
7.10378e-08
-1.3042e-08
2.4965e-09
1.14465e-07
-1.0392e-07
1.52422e-07
-3.18866e-08
-1.083e-08
-1.09706e-07
1.16908e-07
-8.98129e-08
-5.73584e-08
3.02634e-08
-3.28126e-10
1.07085e-07
-1.06761e-07
4.8186e-12
1.18536e-07
8.32777e-08
-8.34674e-08
6.38414e-10
-4.48707e-10
4.18057e-08
-1.55268e-07
9.04101e-08
2.30522e-08
-1.58169e-07
1.37419e-07
6.25554e-08
-7.25403e-08
-1.75251e-10
-2.84461e-10
-8.01222e-10
1.11842e-07
-1.02767e-09
1.10229e-07
-1.09973e-07
-4.68893e-10
2.13466e-10
-2.60112e-08
-1.54252e-07
1.16544e-07
1.88842e-07
-1.43818e-07
-1.61568e-07
-6.01041e-08
-1.00918e-07
2.84541e-07
-1.42492e-07
1.59825e-07
-1.34236e-07
1.16903e-07
-1.2137e-07
6.44985e-08
-5.35175e-09
1.12129e-07
-1.09456e-07
-3.45304e-09
7.79858e-10
9.58024e-08
2.46116e-08
1.14427e-08
-1.31857e-07
2.07506e-09
-1.4905e-07
1.44442e-07
3.33911e-08
-2.87834e-08
-8.16417e-09
-9.18791e-08
9.9702e-08
3.41176e-10
-1.66056e-07
1.34382e-07
1.78253e-07
-1.44821e-07
-3.59006e-10
-2.48237e-10
1.94257e-09
-1.57549e-09
1.06152e-07
-1.06519e-07
3.86125e-08
-1.1252e-07
-2.15587e-09
9.00994e-08
-9.63558e-08
3.69892e-09
2.55753e-09
-8.36764e-08
1.39015e-07
-6.12994e-08
5.96089e-09
1.43769e-07
-7.45348e-08
-7.26657e-08
3.43167e-09
8.92253e-08
-8.94172e-08
-4.44168e-10
-1.09329e-07
-1.71974e-09
1.13248e-07
7.39151e-08
6.97622e-08
-7.50136e-09
-1.36176e-07
-5.83153e-09
1.32773e-07
-1.27698e-07
7.56069e-10
8.69417e-08
-1.47112e-07
-3.05075e-09
1.05862e-07
-1.76951e-08
3.30102e-08
-1.21177e-07
1.46209e-07
-2.27823e-08
-1.65662e-07
4.22359e-08
3.98346e-08
7.98623e-08
-1.16372e-08
6.31012e-08
-1.24938e-07
6.85638e-08
-6.72734e-09
1.32077e-07
-1.33202e-07
-1.19576e-10
-9.81823e-08
1.40027e-07
-3.09884e-08
-1.08565e-08
-2.00553e-07
-1.47335e-07
2.81487e-07
6.64008e-08
-1.13777e-07
1.33543e-09
1.17404e-07
-6.44522e-09
1.32298e-07
-1.40349e-07
-5.26089e-08
6.06603e-08
-1.22991e-07
6.35178e-08
6.53766e-08
-5.90336e-09
-5.93059e-08
-5.01792e-08
-4.75984e-08
-9.89905e-08
9.93285e-08
-3.89458e-10
5.14373e-11
3.91191e-08
1.70159e-07
-6.55088e-08
1.02671e-07
-6.16302e-08
4.90581e-08
-7.15721e-08
-7.86394e-08
1.46269e-07
3.94277e-09
-5.34245e-10
-2.14116e-07
-6.78062e-10
2.15328e-07
7.27849e-08
-4.55717e-08
8.30155e-08
-1.40248e-10
6.36033e-08
-6.34933e-08
3.02802e-11
-1.86155e-08
1.3684e-07
6.5484e-08
-1.83709e-07
1.66663e-07
-8.42218e-08
-8.74107e-08
4.96993e-09
1.17123e-07
3.70007e-08
-3.54549e-08
-1.18668e-07
1.59444e-07
-7.51528e-08
7.44689e-08
-1.58761e-07
3.42917e-08
1.28774e-08
1.12275e-07
-8.67156e-08
8.25454e-08
-1.58604e-07
1.22134e-07
8.44892e-10
-1.19074e-07
-3.9046e-09
-3.86977e-08
-2.73418e-07
1.90745e-07
8.22209e-08
8.42062e-08
-6.60158e-09
-4.87821e-10
5.03931e-10
9.15211e-08
-9.15372e-08
-1.21156e-07
1.21057e-07
-2.85286e-10
-5.87599e-08
1.17311e-07
5.94708e-09
7.11338e-09
8.53094e-08
-4.79602e-09
-8.76267e-08
-1.25309e-07
5.52746e-08
8.74991e-08
-1.74643e-08
-4.31422e-08
-7.91408e-08
-9.95207e-09
-8.11781e-08
1.57932e-07
5.46723e-09
7.07753e-08
7.38452e-08
-1.39671e-07
-4.94963e-09
1.11613e-07
7.57469e-10
-1.12295e-07
-7.58665e-11
-6.17851e-09
-1.71437e-07
-1.34635e-08
1.79921e-07
-4.92832e-09
1.15406e-07
-1.17485e-07
5.6294e-08
-7.35929e-09
9.56844e-08
-4.49151e-10
-9.41489e-08
-1.08634e-09
1.19647e-07
-7.96529e-10
1.32803e-07
-4.51091e-08
7.89682e-08
1.04351e-10
-1.0172e-07
-3.32693e-09
1.09376e-07
-4.3285e-09
8.92772e-08
-4.91417e-08
-8.84928e-08
1.34595e-10
8.82472e-08
1.1102e-10
-3.42713e-08
-1.33199e-07
1.4212e-07
2.53502e-08
-1.96867e-09
1.27838e-07
-1.255e-07
-3.69628e-10
-8.61545e-08
-3.58597e-08
1.22546e-07
-5.31843e-10
-4.18297e-09
2.06171e-09
-1.07208e-07
-1.60145e-07
8.57981e-08
7.96202e-08
-5.27325e-09
2.5839e-10
-9.89141e-08
9.88625e-08
-2.06798e-10
1.34739e-07
-6.84776e-10
-1.66767e-10
-1.08077e-07
2.78842e-10
1.07965e-07
-6.34527e-08
2.01943e-08
5.20186e-08
1.28629e-07
-7.03797e-08
4.85218e-09
1.37288e-07
-1.36415e-07
-1.39149e-08
-1.21584e-07
1.37098e-07
1.87425e-08
-3.42568e-08
7.0631e-08
-7.18319e-08
1.4741e-07
3.79592e-09
1.10408e-07
1.48315e-07
-1.29138e-09
-1.48992e-07
6.68669e-08
-1.39647e-07
-4.23036e-09
7.70105e-08
1.401e-07
-7.73099e-08
7.98479e-09
9.79323e-08
-9.58562e-08
-1.10147e-07
5.67084e-08
-3.00285e-08
-1.46865e-07
1.40035e-07
-1.86822e-08
2.55119e-08
1.59548e-07
4.45303e-08
-4.73638e-08
-1.55981e-07
-7.23562e-08
-2.943e-08
7.90029e-08
2.27833e-08
-1.27795e-07
6.71904e-08
-5.32413e-08
1.13846e-07
-1.48574e-07
-3.26725e-09
1.54769e-07
-2.92774e-09
-1.06392e-07
2.02028e-08
-6.23841e-08
-1.60154e-07
-6.23638e-09
9.29056e-08
-1.40422e-09
-1.1019e-07
-4.91973e-10
-1.06566e-07
1.37013e-07
-7.2434e-08
5.92962e-09
1.52663e-07
-8.15175e-08
-7.76668e-08
6.521e-09
-1.31268e-07
1.76303e-07
-4.53008e-08
2.66597e-10
8.06921e-08
-8.10507e-08
-1.3091e-07
9.30438e-08
7.2229e-09
-2.33432e-09
6.288e-10
1.02681e-07
-1.02161e-07
-1.14811e-09
1.85715e-07
-4.7143e-08
-1.01571e-07
-1.06265e-07
9.64764e-08
1.12757e-07
-1.08107e-07
-2.58801e-09
-1.73038e-09
9.99529e-08
-9.85199e-08
2.9739e-10
-9.35346e-09
-1.32267e-07
1.29217e-07
1.2404e-08
-1.36455e-07
1.53059e-07
-9.70379e-09
-6.90034e-09
1.1879e-07
-4.38618e-08
-7.52223e-08
9.19999e-09
-7.73346e-09
-9.53803e-08
9.49496e-08
3.21032e-08
-6.50169e-09
-1.31994e-07
-1.97881e-08
1.08329e-07
-8.23316e-08
-6.2096e-09
1.56273e-07
-6.48872e-09
-1.33394e-08
-1.36445e-07
1.52922e-07
9.36023e-11
-2.48076e-09
-1.50535e-07
1.3349e-07
-1.36043e-09
-5.2886e-11
1.2669e-07
-1.26919e-07
2.01805e-10
2.77602e-11
-1.22423e-07
-8.0144e-08
1.23427e-07
2.06629e-08
-1.66436e-07
-1.08657e-07
1.08528e-07
-1.38694e-12
1.29926e-10
-1.3123e-07
-7.0844e-09
1.85924e-09
-9.99947e-08
-5.69182e-11
1.00035e-07
1.68634e-11
-1.19796e-07
-3.7767e-10
1.2022e-07
-4.55246e-11
-1.04956e-08
1.2048e-07
-1.00764e-07
-7.83399e-09
-1.0059e-07
1.00312e-07
1.11781e-10
2.32157e-08
2.79151e-08
8.29526e-08
-1.33172e-07
7.11209e-08
-7.13849e-08
1.40747e-07
-1.40483e-07
1.0116e-07
-7.96722e-08
-2.37159e-08
2.22827e-09
9.25006e-08
8.02254e-09
-1.04748e-07
6.43841e-09
5.6173e-09
-1.06296e-07
1.20375e-07
-1.96969e-08
-5.0707e-10
1.00253e-07
-9.93668e-08
-3.79593e-10
-1.37725e-07
-8.38157e-09
1.61036e-07
2.01226e-07
-8.58869e-08
1.81714e-07
1.50184e-07
-7.50522e-08
5.56053e-09
-3.61978e-08
2.51586e-08
-1.06303e-07
1.1964e-07
8.62281e-08
9.13189e-08
-7.38838e-09
9.08996e-08
7.09265e-08
-1.5619e-07
-5.63595e-09
8.00868e-08
7.74538e-08
-7.35681e-09
1.18915e-07
-7.34139e-08
8.1189e-08
7.21796e-08
-1.22313e-07
5.81123e-08
-7.979e-09
6.12777e-10
-9.67271e-08
-1.23274e-09
3.00114e-10
-3.01769e-07
1.79908e-07
1.68647e-07
-1.12733e-07
2.91396e-08
9.12156e-09
4.22545e-08
4.41405e-08
-9.55165e-08
-1.24876e-07
1.85423e-09
1.2414e-07
-1.11783e-09
-9.61459e-08
9.57387e-08
-2.38147e-11
4.31029e-10
1.24899e-07
-1.61829e-07
1.91416e-07
-1.54486e-07
1.50184e-08
-1.43293e-09
1.22785e-07
-3.0826e-08
7.22843e-09
-7.15822e-08
9.51798e-08
-7.03072e-08
1.36212e-07
5.21604e-09
-1.42365e-07
7.37137e-08
7.37941e-08
-5.14269e-09
-1.07475e-07
-2.43435e-08
1.1203e-07
4.31503e-10
7.46514e-08
-3.2139e-11
-7.50508e-08
1.42074e-07
-6.48469e-08
7.51955e-08
1.27807e-09
-1.13365e-10
4.19848e-11
-9.44069e-08
1.7283e-07
-4.61919e-08
-2.84676e-08
-9.81702e-08
9.9374e-09
2.87683e-08
-1.20976e-07
8.55486e-08
-3.32474e-08
2.20568e-08
1.73642e-07
2.11887e-08
1.61765e-07
-1.79002e-07
-6.13797e-08
-6.56946e-08
5.4902e-09
1.27928e-07
6.22065e-09
-6.94551e-08
-7.01482e-08
1.3239e-07
7.21345e-09
-1.86861e-10
1.02049e-07
-1.38199e-07
-1.56072e-10
6.82694e-08
-6.85087e-09
-6.51923e-10
-1.31046e-07
1.11122e-10
1.31586e-07
-1.30938e-07
1.58533e-07
-3.93443e-08
1.07927e-08
-9.14803e-09
4.95034e-08
1.0796e-07
-1.24948e-07
7.28057e-08
-2.60592e-08
7.82015e-08
-1.36802e-07
9.21988e-08
-1.25558e-07
1.23954e-07
3.12661e-10
8.99875e-08
2.14752e-08
-1.61738e-07
-2.10817e-08
1.61345e-07
-1.7775e-07
9.74496e-08
-1.33816e-07
-1.6585e-09
1.60964e-07
2.37088e-08
6.50201e-08
-9.32368e-08
4.50787e-09
9.47954e-08
-6.19931e-08
-8.13871e-11
-9.74162e-08
3.30129e-10
-2.29036e-07
2.28917e-07
-5.59145e-10
-9.29933e-08
-9.71042e-08
-9.10429e-08
9.8772e-08
-1.0832e-07
8.20728e-08
-1.0407e-07
1.66022e-08
5.39487e-09
1.22509e-07
-8.83312e-08
-9.0194e-09
-1.50705e-07
-1.10484e-08
2.05766e-08
1.41176e-07
-3.01124e-07
-3.45405e-10
-1.28121e-07
1.27378e-07
2.54946e-10
-9.11e-08
-8.7e-11
1.44091e-10
-1.38328e-08
-9.18131e-08
1.47311e-07
-4.16651e-08
1.05197e-07
5.26675e-09
4.24586e-08
-1.31832e-07
1.30881e-07
-3.48986e-09
-5.89684e-08
1.42201e-07
-9.66862e-08
3.13293e-10
-1.24854e-07
-3.35648e-10
8.98972e-08
-9.16548e-08
1.82117e-10
-6.48773e-08
-6.46986e-08
1.21842e-07
7.73401e-09
1.10478e-07
1.72921e-08
-9.4836e-08
-3.29345e-08
2.08487e-08
1.49279e-07
-1.67028e-07
-5.37116e-09
-1.0807e-07
-1.89018e-08
1.24352e-07
-6.33418e-12
-1.24535e-07
1.89407e-10
2.34507e-08
7.37856e-09
5.31707e-08
-8.39999e-08
-1.38753e-07
7.43081e-08
-5.00987e-09
-1.11995e-07
1.07765e-07
-7.02682e-09
-3.20065e-10
1.18884e-07
3.50597e-10
-7.87011e-08
-7.05253e-08
1.42202e-07
7.02389e-09
1.26727e-07
-6.79501e-08
-6.54511e-08
6.67406e-09
1.26474e-07
-2.09764e-09
-2.40315e-11
-9.91349e-08
-8.9266e-08
9.7301e-08
-1.24495e-07
-4.56836e-08
-4.42372e-09
1.75213e-07
-1.03491e-07
2.89058e-08
-1.25967e-07
1.0283e-10
-1.02965e-07
5.16074e-10
-6.47131e-10
1.31729e-07
2.50226e-08
-2.67802e-08
-1.29971e-07
4.50933e-08
-1.2662e-07
-8.49693e-11
3.57075e-11
3.79393e-08
-1.89615e-07
-7.67004e-08
1.29206e-07
8.75216e-08
2.01161e-08
-1.42668e-07
-1.79005e-08
1.40452e-07
-7.99099e-08
6.42039e-09
1.30198e-07
-1.29239e-07
8.99232e-08
4.07401e-08
-1.42445e-09
-4.8874e-10
8.61228e-11
-9.48755e-08
6.51961e-08
-4.59198e-09
-1.39549e-09
-2.76536e-09
-2.34651e-09
9.31304e-08
-8.80186e-08
8.05037e-08
1.02957e-07
-1.01262e-07
-8.21996e-08
1.45375e-07
-1.6235e-07
3.2378e-10
1.97521e-10
1.53795e-07
-9.93698e-09
-1.35067e-07
-4.14665e-08
1.4936e-07
1.0896e-08
1.16222e-07
-1.09646e-07
-5.60719e-09
-9.68431e-10
-9.05961e-10
1.11592e-07
1.60995e-07
-5.59304e-08
-2.39348e-09
9.17124e-08
-8.14142e-08
-5.17306e-10
3.87659e-10
1.37418e-07
-1.48818e-07
5.12096e-09
1.36033e-07
5.94715e-09
-1.18958e-08
1.35086e-07
-1.69028e-07
3.61194e-08
1.03384e-09
8.83784e-08
-8.70163e-10
-8.8542e-08
-1.15472e-07
1.15616e-07
-1.02078e-10
1.08365e-09
-2.81152e-10
-1.09862e-07
1.08994e-07
-3.83505e-11
-1.08016e-07
-2.52867e-10
1.98412e-10
7.01613e-08
-1.00457e-07
-7.50564e-08
1.05352e-07
2.96463e-11
-1.13457e-07
1.13576e-07
-1.47834e-10
-4.51222e-08
1.05848e-07
-3.15083e-08
-1.90613e-08
-1.38129e-07
7.18949e-08
-6.1226e-09
2.75617e-08
-1.55795e-08
1.0424e-07
-1.33076e-07
6.39914e-08
6.18309e-08
7.25395e-09
-1.55086e-07
-1.08259e-07
1.09241e-07
-1.23608e-07
-4.22193e-08
5.6587e-08
1.2722e-07
-1.27947e-07
2.32659e-10
4.94102e-10
-1.67664e-09
-1.79794e-07
9.63138e-11
1.81374e-07
-1.03025e-07
3.24474e-11
1.02986e-07
-1.24967e-07
-1.37646e-12
4.3295e-10
7.0933e-08
-1.25467e-07
-6.84608e-09
1.97141e-10
-1.26906e-07
-2.10106e-10
7.49593e-08
7.50328e-08
-5.54997e-09
-7.23071e-08
-7.26028e-08
1.38624e-07
6.28569e-09
-1.14801e-07
9.29261e-10
1.13707e-07
1.64283e-10
1.21724e-07
3.00265e-08
1.08607e-07
-1.54908e-08
1.06063e-07
-5.5205e-09
-9.72173e-08
4.58239e-08
4.41669e-08
7.22655e-09
5.88685e-08
1.25695e-07
-6.39776e-08
-1.16749e-07
7.19151e-08
-6.99089e-08
-1.28614e-07
-1.03461e-07
1.1359e-07
1.18485e-07
1.06719e-07
-1.23339e-10
1.1324e-07
-1.14552e-07
1.40497e-09
-9.30426e-11
-1.28423e-07
-1.26414e-07
8.3354e-10
8.03204e-11
1.66589e-08
3.8768e-08
-1.58801e-07
1.49913e-08
-4.20366e-08
1.91986e-07
1.31092e-07
-9.09326e-08
-4.48317e-08
4.53537e-09
1.88098e-08
-2.06703e-08
1.30029e-07
-3.23615e-08
-7.69971e-08
1.04198e-07
-6.38893e-10
-1.03308e-07
-2.51496e-10
-4.03212e-08
-1.41699e-07
2.81055e-07
-9.90352e-08
1.02361e-07
-7.77653e-08
-8.8651e-10
5.31697e-11
1.00487e-07
-2.86311e-10
7.1779e-08
-7.21977e-08
1.22017e-07
-1.5951e-07
-1.2737e-07
7.7575e-08
1.23509e-07
-2.26666e-09
-2.97237e-08
-8.00176e-08
6.95763e-08
8.30823e-08
8.33675e-09
1.36825e-07
-1.2237e-07
1.82877e-09
1.45161e-07
-7.83059e-08
6.9394e-09
1.15889e-07
-1.52447e-07
1.30275e-07
-8.2611e-08
-3.24985e-08
-1.37586e-08
1.90583e-09
1.0159e-07
-1.12849e-07
6.6827e-08
-1.26416e-07
-5.28825e-09
1.46344e-07
1.12174e-08
-4.28701e-08
1.27665e-07
-8.46883e-08
-2.39082e-09
-2.51787e-08
1.36787e-07
-1.53313e-07
4.17054e-08
1.13729e-07
2.03987e-08
-5.42651e-08
-1.24132e-09
-1.2877e-07
1.28414e-07
-8.72446e-10
-2.92146e-08
2.22231e-08
-9.50824e-08
1.02074e-07
7.39699e-08
-1.3905e-07
-5.06857e-09
-1.32856e-07
1.33235e-07
-1.81574e-10
-7.50062e-08
1.54768e-07
-1.20083e-07
-7.0944e-08
-7.83115e-08
1.60563e-08
-9.85622e-08
-7.30557e-11
2.08308e-07
7.53511e-09
-1.14381e-07
-1.04568e-07
-7.22784e-08
1.29761e-07
2.24004e-07
-2.19363e-10
-8.75109e-08
1.95795e-11
8.77106e-08
3.16722e-08
1.10318e-07
-6.57734e-10
1.46414e-07
6.12008e-09
9.46505e-08
5.57112e-08
2.69739e-09
7.20843e-08
-1.38897e-07
-5.49388e-09
-7.1475e-08
-8.06397e-08
1.43256e-07
8.85866e-09
-8.88595e-08
-4.26508e-09
-4.09267e-09
-3.78668e-08
-1.22747e-07
1.11292e-07
-7.96598e-11
-1.20932e-07
-3.25721e-09
1.18358e-07
-8.78581e-08
-1.33374e-07
9.5227e-08
1.26005e-07
-1.09954e-07
3.81788e-08
7.49532e-08
-3.17803e-09
6.90405e-08
6.88804e-08
-1.3095e-07
-6.97056e-09
-7.01462e-08
-6.75711e-08
1.31477e-07
6.24006e-09
5.0731e-08
4.71387e-08
-1.07818e-07
9.9488e-09
-6.58998e-08
1.09842e-07
-3.57697e-08
-8.17204e-09
1.03845e-07
-1.04259e-07
-2.37359e-10
-9.2176e-08
5.64691e-10
8.02245e-08
1.03781e-07
-2.76658e-08
-1.5634e-07
-3.05521e-08
8.69969e-08
3.76512e-08
-9.40959e-08
-9.622e-08
3.30903e-11
9.7796e-08
-1.60907e-09
-7.22606e-08
-4.15744e-08
9.31648e-08
1.21794e-07
-3.33802e-09
6.88897e-08
-1.28231e-07
6.43946e-08
-5.05359e-09
-5.51882e-08
3.80054e-08
-1.15374e-07
1.13516e-08
1.30649e-07
-1.0399e-07
-3.74661e-08
9.95575e-08
8.02994e-08
-7.27926e-08
7.2066e-10
-1.20421e-07
-9.62361e-11
4.38407e-08
-3.14862e-08
1.01644e-07
-1.15443e-07
5.55487e-08
5.26521e-08
7.24213e-09
7.24696e-08
-4.87021e-09
3.85654e-08
6.2366e-08
7.39787e-09
8.91451e-09
1.24824e-07
-1.02301e-08
-6.06987e-09
-8.0915e-08
7.90061e-08
1.31938e-07
-7.31938e-08
-1.54024e-07
1.54552e-07
1.61177e-07
5.749e-08
-5.48106e-08
-1.63856e-07
1.41991e-08
-1.27203e-07
1.36455e-07
-7.72393e-08
-7.07294e-08
1.41315e-07
6.65359e-09
-4.45877e-08
-1.07456e-07
1.81163e-09
6.69902e-08
-6.67808e-09
1.27807e-07
-5.42056e-10
-4.43955e-11
2.19106e-08
-8.4424e-08
9.0075e-08
1.90525e-10
2.07233e-10
-1.33254e-07
-2.11168e-09
8.62623e-08
-8.4093e-08
1.12568e-08
-8.26336e-08
1.41221e-07
-6.98445e-08
-2.7416e-08
-1.32642e-07
1.16842e-09
1.5889e-07
9.13282e-08
-1.7585e-07
6.88933e-08
1.56288e-08
-1.20827e-07
8.87767e-08
-9.6071e-08
9.88895e-08
-5.94471e-10
-9.79258e-08
-3.69238e-10
-4.50164e-08
-1.26615e-07
4.53606e-08
1.26271e-07
-7.16856e-08
-1.20628e-07
1.46645e-07
4.56687e-08
-2.83423e-09
-1.40506e-07
1.41094e-07
2.24642e-09
-1.23387e-07
1.23266e-07
-1.55606e-09
-1.41555e-07
1.25077e-07
-6.29755e-08
1.35253e-07
6.98658e-08
-5.79954e-09
7.55265e-08
-1.35063e-07
-6.27765e-08
-1.24309e-07
8.61377e-08
-1.00582e-07
-1.33915e-08
1.395e-07
-8.61971e-08
-3.43695e-08
1.18853e-07
-1.16774e-07
-3.34207e-09
1.2629e-09
-9.60883e-08
-2.36731e-09
4.04872e-09
2.17185e-10
-1.47643e-07
1.44592e-07
-8.92114e-08
-4.4361e-10
7.95429e-10
-9.11638e-08
7.66402e-08
1.50305e-08
-5.06904e-10
-5.45735e-08
-1.30969e-07
1.76112e-07
9.4305e-09
1.13872e-07
-5.29651e-10
5.56509e-08
4.72665e-08
-1.11824e-07
8.90669e-09
-1.07531e-07
-5.76497e-10
1.07814e-07
2.93672e-10
-1.0491e-07
1.49336e-08
-2.45755e-08
6.20596e-08
-1.19451e-07
5.03989e-08
6.99268e-09
-4.58104e-09
-9.27271e-08
4.31482e-09
1.41162e-09
-1.31789e-07
1.76375e-09
5.27793e-08
7.32692e-08
-1.19908e-07
2.06595e-08
8.74394e-08
2.02963e-08
1.25589e-07
-1.26151e-07
5.66613e-10
-4.99752e-12
-2.02759e-07
1.91221e-07
8.4365e-08
-7.28265e-08
5.59083e-08
-1.4424e-07
1.10766e-07
-2.24346e-08
7.34452e-08
-6.65414e-09
-6.62609e-10
7.72954e-12
5.69461e-08
-6.0317e-08
-1.14104e-07
1.61951e-07
-1.34002e-07
1.11769e-07
-1.47836e-08
6.46059e-10
-1.48808e-07
1.48215e-07
1.27829e-07
-1.55751e-07
-1.29308e-09
-8.58676e-08
-8.16869e-08
1.60821e-07
6.73364e-09
9.31498e-08
8.77655e-12
-9.31974e-08
3.88725e-11
-1.4533e-07
7.781e-08
7.21555e-08
-4.63529e-09
-1.96373e-07
1.21671e-07
-1.36084e-07
2.10786e-07
-1.89276e-07
2.48961e-08
-4.49633e-08
-1.10978e-07
-1.61065e-07
9.86923e-08
3.71936e-08
-1.44125e-08
-1.26302e-07
1.37719e-07
2.99494e-09
-3.23663e-09
-1.09758e-07
-9.42928e-09
1.17434e-07
-1.07585e-07
1.11018e-07
-3.40062e-08
1.6663e-07
1.06718e-07
1.48377e-07
-1.27395e-07
-1.20835e-07
4.27091e-10
1.17522e-07
-1.18031e-07
8.23832e-11
1.01514e-07
-1.09904e-07
3.80887e-09
-7.88484e-08
-6.57132e-10
6.86389e-08
1.03287e-07
-4.41193e-08
6.30474e-08
-1.21362e-07
-4.66123e-09
-1.9807e-10
1.14352e-07
-1.14284e-07
1.30056e-10
-1.18315e-07
-1.67205e-10
1.19258e-07
-7.75634e-10
-1.20252e-07
4.40152e-08
-3.34093e-08
-1.17612e-08
9.87001e-08
7.9204e-08
-1.05151e-09
-1.76853e-07
2.81627e-09
-1.46767e-10
-1.71474e-08
8.18115e-08
-1.46626e-07
8.19618e-08
-1.26502e-07
1.28389e-07
6.60672e-08
-6.17006e-09
2.73447e-08
-1.31627e-07
-3.72298e-08
1.41512e-07
4.09817e-08
1.20483e-08
3.51671e-08
-8.81971e-08
6.96919e-08
7.57225e-08
-1.3922e-07
-6.19446e-09
-1.04296e-07
1.02529e-07
1.75369e-09
1.37873e-11
-6.86276e-08
7.3664e-09
5.60425e-08
-5.39818e-08
1.26353e-07
-1.28414e-07
-1.05509e-07
2.22988e-07
-4.62588e-08
-7.12208e-08
8.66237e-08
-7.2842e-08
-7.57571e-08
6.19753e-08
6.87927e-08
-5.64738e-08
-1.37639e-07
5.38832e-08
8.74987e-09
5.86281e-08
8.08788e-08
7.60896e-08
7.77817e-08
-1.4771e-07
-6.16133e-09
1.36013e-07
8.1231e-09
-6.23204e-09
-1.37904e-07
1.03726e-07
8.38071e-10
-3.66051e-10
9.79373e-08
-9.96829e-08
2.31712e-09
-5.71473e-10
-6.65465e-08
-7.84448e-08
1.37979e-07
7.01231e-09
-1.22213e-07
1.53949e-09
4.21324e-10
-1.07847e-07
-1.91939e-11
3.35718e-10
1.14338e-08
1.24745e-07
1.12933e-07
1.96648e-09
-1.02687e-09
1.33467e-10
-1.04422e-07
1.03712e-07
9.85974e-08
1.75618e-08
2.69355e-09
-1.19268e-08
3.66404e-08
-1.21784e-07
9.70701e-08
1.26904e-07
-1.26717e-07
-7.8164e-11
-1.08367e-10
-3.01179e-08
-1.20082e-07
1.75096e-07
-1.2082e-07
-1.94701e-08
1.45374e-07
-5.08384e-09
1.56338e-07
-1.32791e-07
-2.2926e-08
-2.07508e-08
1.30301e-07
1.27863e-07
-1.28706e-07
4.30234e-10
4.1307e-10
1.52606e-07
-4.69726e-08
-1.50055e-07
4.44221e-08
1.2622e-07
-1.2644e-07
1.4966e-07
-1.4944e-07
9.11961e-09
-1.25211e-08
-9.9873e-08
1.03274e-07
2.71699e-08
-1.04318e-07
-4.4258e-08
1.21406e-07
8.79509e-08
7.99795e-08
-1.60823e-07
-7.10757e-09
2.06912e-07
-2.18809e-07
-8.57635e-08
-1.40322e-07
1.04188e-07
-1.32268e-08
1.27651e-08
-1.88734e-07
1.63709e-07
-8.70368e-08
1.35714e-07
-2.31003e-07
1.82326e-07
8.12718e-08
-1.62107e-07
-6.2014e-09
2.07305e-08
9.08865e-08
-1.57195e-08
-9.58975e-08
-1.47812e-09
1.28611e-07
-1.43364e-08
-1.09837e-07
-5.99376e-08
1.56206e-07
-1.09228e-07
1.29599e-08
-2.78668e-08
8.06874e-08
-4.5319e-08
-7.50163e-09
3.21853e-10
-1.01359e-07
1.01437e-07
-4.00631e-10
2.65264e-09
1.26807e-07
-1.28344e-07
-1.11621e-09
-7.01781e-08
-1.28336e-07
1.41334e-07
6.28287e-08
-2.72641e-08
1.29381e-07
3.51032e-09
-4.86477e-08
-4.50636e-08
1.28526e-07
-2.34086e-07
1.61214e-08
-1.5459e-07
1.22213e-07
-7.31316e-08
1.25155e-07
-1.22057e-07
-4.44743e-10
-9.93923e-08
1.55478e-09
-2.32247e-09
1.0016e-07
6.28716e-08
-1.93075e-07
-1.48039e-07
-1.23002e-10
1.28418e-07
-1.28113e-07
-1.8227e-10
-1.15872e-07
-4.09683e-08
1.4865e-07
5.72406e-09
-9.27278e-09
1.12316e-07
-1.00547e-07
-1.1428e-08
1.46768e-07
-1.18615e-07
3.67457e-10
-6.75615e-11
6.51899e-08
-1.55134e-07
8.41786e-08
5.76511e-09
-1.49855e-09
-1.1572e-07
-1.52599e-09
1.29644e-07
6.11527e-09
-1.06837e-07
5.43682e-08
5.06064e-08
1.86216e-09
-1.07977e-07
2.97584e-08
1.47011e-07
5.17838e-11
1.37807e-07
-6.76052e-10
-1.37182e-07
7.12036e-09
1.2164e-07
-2.59045e-08
-1.02856e-07
1.45665e-07
-1.66107e-07
8.64082e-08
-6.59658e-08
4.64347e-08
1.1683e-07
-5.72582e-08
-6.79229e-09
8.37451e-08
9.25604e-08
-1.6444e-07
-1.41337e-08
-6.66648e-09
1.10902e-07
-1.33666e-07
1.17856e-07
2.79396e-10
-1.18209e-07
7.34904e-11
7.22368e-09
1.01788e-07
-3.81483e-09
8.03187e-08
-1.99815e-07
3.16386e-08
-1.34337e-07
2.37405e-09
-7.58936e-08
-6.47015e-08
1.33762e-07
6.83295e-09
-1.08857e-07
-5.0334e-08
3.36105e-08
1.2558e-07
-1.20877e-07
-6.45066e-10
-6.90698e-10
-7.08188e-08
1.49728e-07
-8.48556e-08
5.94634e-09
7.61488e-08
-1.50898e-07
7.82902e-08
-3.54131e-09
-1.14462e-07
-2.2773e-10
1.04173e-07
-1.06872e-07
4.64622e-09
-1.9478e-09
1.53473e-07
-8.59926e-08
8.66871e-09
-1.16785e-07
1.9672e-08
-1.96609e-08
6.00075e-08
-9.92605e-08
-2.23772e-08
1.27094e-07
-1.26261e-07
-1.86571e-10
6.90759e-08
6.18431e-08
-6.17375e-08
-6.91815e-08
8.09458e-08
1.5079e-07
-1.62695e-07
8.02794e-08
6.85446e-08
-1.43613e-07
-5.21096e-09
-1.17849e-07
6.21884e-08
4.82148e-08
7.44598e-09
2.19166e-10
1.27461e-07
1.82458e-10
8.09029e-08
7.56142e-08
-1.50928e-07
-5.5887e-09
1.07465e-07
1.18371e-07
-9.65878e-09
-1.0502e-07
-3.69178e-09
9.69592e-08
5.14122e-11
1.49382e-07
-1.51029e-07
-8.25522e-08
8.41993e-08
5.06423e-08
6.03929e-08
7.3356e-09
-6.26424e-09
-2.10919e-07
1.89577e-08
1.27509e-07
-3.64096e-09
6.30195e-09
1.54489e-07
1.32827e-07
-2.25257e-07
-1.24734e-07
1.09696e-09
-1.48358e-09
1.2512e-07
6.70371e-10
1.00863e-07
-1.01377e-07
-1.55982e-10
-8.0759e-08
1.83607e-07
-1.80088e-07
5.27604e-08
1.24831e-07
-6.57969e-08
-1.11795e-07
4.66061e-08
5.94718e-08
-1.1356e-07
7.48166e-09
1.51208e-07
-1.1524e-08
2.11371e-08
-1.35568e-07
-5.68636e-09
4.39476e-08
-1.38515e-07
-1.90575e-08
-9.60501e-08
-1.13333e-07
1.06782e-07
2.04775e-08
-5.12587e-09
-2.0552e-08
9.79905e-08
2.93439e-08
6.18631e-08
-7.88798e-08
-3.31652e-09
1.26929e-07
3.56115e-09
1.22438e-10
4.56594e-10
-2.16933e-07
-1.549e-08
-3.87097e-10
1.35151e-07
1.49283e-08
-1.42256e-07
-1.41038e-08
2.77114e-07
-1.22134e-07
-1.40877e-07
-1.70417e-07
1.38519e-07
1.1617e-07
-1.4703e-07
-6.91432e-08
7.49461e-08
-7.67662e-08
7.09633e-08
1.19869e-07
-1.24069e-07
-3.87848e-09
8.0784e-09
-3.93651e-09
-6.44713e-08
8.03531e-08
-1.86299e-07
-8.11333e-08
6.57688e-08
-5.50389e-09
-1.20124e-07
2.64934e-07
-4.19726e-08
-9.95606e-08
-1.36005e-08
-7.7895e-08
1.56695e-07
2.14536e-09
-3.34323e-08
-7.19335e-08
9.02871e-08
1.50788e-08
4.00982e-08
-1.80164e-07
8.17479e-08
5.83175e-08
-1.0812e-07
1.07847e-07
-6.24051e-11
3.35803e-10
9.31337e-08
-2.03313e-10
1.39874e-08
1.26653e-07
1.14283e-07
-7.35691e-09
-8.47034e-08
-1.54999e-07
1.83777e-08
8.05589e-10
1.37029e-07
-9.39944e-08
1.41146e-07
-4.42776e-08
-5.9801e-09
3.14028e-09
1.26897e-07
-3.1092e-09
1.05773e-07
3.95987e-08
-1.54811e-07
-3.01181e-08
-1.26013e-07
-1.0935e-07
-8.54784e-08
4.41242e-08
-1.12803e-08
1.09846e-07
-8.64297e-09
-9.52565e-08
-1.0958e-07
-3.03073e-09
9.57074e-08
-1.22926e-07
9.97322e-08
-6.57551e-10
-9.8512e-08
-5.6261e-10
-2.60136e-08
-1.49401e-07
-1.78674e-07
1.78394e-07
1.15052e-07
-4.80431e-08
1.11512e-08
-7.81598e-08
1.13978e-07
-6.23643e-10
-1.13298e-07
-5.58657e-11
9.42174e-10
1.03337e-07
-1.04534e-07
2.54528e-10
2.92375e-08
1.2054e-07
-3.68451e-08
-7.8559e-08
-8.27953e-08
1.04565e-08
7.75704e-09
1.10245e-07
-1.13963e-07
-4.03917e-09
-1.25603e-07
1.35675e-07
-2.31535e-09
-1.34479e-07
-3.54283e-09
-1.49448e-07
1.51365e-07
-5.60595e-08
-8.55101e-08
1.47795e-07
-6.22496e-09
1.08343e-07
-1.50205e-08
6.49284e-10
-4.53421e-11
4.68837e-08
1.18023e-08
-6.79474e-10
-3.8549e-10
7.57072e-08
8.26894e-08
-5.79081e-09
-3.3836e-08
1.00079e-07
7.88371e-08
-2.81077e-07
-1.28919e-07
2.66654e-07
1.42283e-07
1.30974e-07
-5.52552e-08
-8.37622e-08
6.40961e-09
-6.36717e-10
-1.25176e-07
-3.37696e-10
5.45419e-08
6.31648e-08
-1.16628e-07
-1.07897e-09
-1.14832e-07
1.14663e-07
1.18086e-10
5.11318e-11
1.05458e-07
3.22706e-08
-1.37753e-08
1.60818e-09
1.94078e-07
-4.46559e-09
-5.30727e-08
-8.10741e-08
-3.49248e-09
-9.16253e-08
-2.30684e-08
7.1831e-10
1.07117e-07
-1.06997e-07
7.81088e-08
-1.9112e-07
1.07124e-07
-1.09119e-09
-5.74618e-10
7.00152e-08
6.51788e-08
-1.31211e-07
-3.98326e-09
-1.61466e-07
8.07209e-08
-2.27272e-08
-2.66798e-08
-3.65234e-08
1.26486e-07
-6.32832e-08
-2.93773e-08
7.09345e-08
3.05982e-08
-1.3962e-07
-8.91619e-08
9.38211e-08
1.34961e-07
7.63868e-08
-5.93814e-09
6.47267e-08
1.28377e-07
-5.29772e-08
-1.40126e-07
-3.7657e-09
1.15891e-07
1.48884e-08
-1.27013e-07
1.10404e-07
-9.39107e-08
-2.04881e-08
3.99509e-09
1.4117e-07
-1.89727e-07
1.75365e-07
1.40847e-07
-6.83851e-08
-6.56563e-08
-6.80544e-09
4.17985e-08
-1.67993e-07
-1.19813e-07
-1.20414e-07
1.47079e-11
-1.86393e-07
1.57083e-07
-1.62571e-07
1.91881e-07
8.22309e-08
-1.51916e-07
-2.62003e-08
1.18871e-07
-1.17853e-07
-4.78087e-10
-5.40487e-10
5.99536e-08
-1.19107e-07
-5.31795e-09
-6.37087e-09
8.26437e-08
-1.76369e-07
7.73193e-08
-1.34688e-07
-7.73853e-11
2.65928e-10
1.34499e-07
-1.47652e-07
1.3728e-07
-1.21481e-07
-8.4519e-08
-2.83238e-08
-7.18748e-09
5.91788e-08
6.91085e-08
-6.07432e-09
-5.23987e-08
-5.9686e-08
-5.76451e-09
-3.64727e-09
-1.02579e-07
-1.00087e-07
-1.02092e-09
-5.72918e-09
6.90944e-08
-6.86931e-08
6.62929e-10
-1.06425e-09
1.06274e-07
-1.04191e-07
-1.37081e-09
-7.12949e-10
-1.07773e-09
1.2626e-07
-1.25028e-07
-1.54424e-10
-1.31199e-07
1.40015e-08
1.11454e-07
5.74306e-09
1.26041e-07
-1.19796e-07
-4.34278e-09
-1.90249e-09
-1.06506e-07
-1.12684e-09
1.08295e-07
-6.62073e-10
-1.02963e-07
-6.28567e-08
9.57451e-08
3.36445e-08
-9.33431e-09
-1.20055e-07
7.51573e-08
-7.97505e-08
3.76219e-09
8.31079e-10
4.46249e-08
3.69115e-08
-1.26553e-07
1.08414e-07
-1.05515e-07
-7.26253e-09
4.36328e-09
-5.02718e-08
5.07227e-08
1.51132e-07
5.31111e-09
1.2697e-07
-9.4942e-08
1.19869e-08
-2.73229e-08
-1.16075e-08
-1.00689e-07
-3.16789e-08
1.94777e-07
6.10914e-09
-1.69431e-07
1.28741e-07
-3.31032e-08
-1.91492e-08
2.08027e-08
-7.91035e-08
5.79475e-09
-1.23786e-07
1.23597e-07
5.77791e-08
-6.95426e-08
-2.98109e-08
7.6652e-08
2.18927e-09
6.23496e-08
5.58402e-08
-7.72081e-08
-8.20835e-08
1.13339e-07
-1.25133e-08
-6.97362e-08
5.82585e-09
9.30073e-08
1.12262e-08
2.21602e-08
2.43107e-08
-1.0509e-08
5.08639e-08
5.90347e-08
6.93116e-09
-4.86569e-08
1.59146e-07
-1.65063e-07
-1.72746e-07
8.58499e-08
2.18483e-07
-1.47149e-07
1.05161e-07
-3.17938e-08
6.03612e-08
-1.33729e-07
-1.2245e-07
-4.2147e-08
-1.43049e-07
-5.66519e-09
-1.0046e-07
7.95276e-08
-8.75172e-08
1.0845e-07
8.28999e-09
-1.18139e-07
-1.39731e-07
-7.43111e-09
-3.86713e-09
-1.26166e-07
1.14165e-07
1.22405e-07
1.92985e-08
1.01776e-07
2.09136e-09
-1.31456e-07
1.21492e-07
-8.44423e-08
9.44063e-08
-1.00613e-07
1.30077e-08
-2.02423e-08
-3.42995e-08
-1.32735e-08
1.06045e-07
-4.80194e-08
-1.11078e-07
-4.28324e-08
1.22113e-08
-7.01842e-08
-8.42769e-08
7.59612e-09
-6.90176e-08
7.93296e-08
7.93127e-08
2.31376e-08
4.20697e-08
-1.4452e-07
6.77057e-08
1.30568e-08
-7.06462e-08
-3.2445e-09
-7.93601e-08
-8.88938e-08
6.78758e-09
6.17933e-08
-7.17231e-08
-4.74952e-08
5.7425e-08
-4.87467e-08
-8.91111e-09
1.45052e-07
-1.83131e-07
3.86041e-08
-5.24496e-10
-8.08492e-09
2.68913e-08
7.82265e-08
-9.70329e-08
5.00565e-10
-9.26539e-08
-7.97074e-10
9.29504e-08
-9.96256e-08
9.92991e-08
1.32116e-10
1.94384e-10
1.28715e-07
-7.08333e-08
-1.30485e-07
-6.04653e-08
-3.77001e-08
9.98589e-08
-1.69337e-09
1.51979e-07
1.15156e-08
-1.14674e-07
5.79901e-09
-1.37922e-07
1.65106e-08
-5.86187e-10
-1.5596e-07
-1.13043e-07
1.13275e-07
-3.09555e-10
8.40313e-08
7.16209e-08
-1.40449e-07
-1.31048e-08
-1.47987e-08
2.25071e-07
-8.11638e-10
-9.98172e-08
-1.71947e-09
9.64714e-08
-9.54783e-08
4.07334e-11
-3.77288e-09
1.31517e-08
2.60523e-08
1.20601e-07
-2.29981e-08
1.14296e-07
-8.99832e-09
-3.23853e-09
1.26121e-07
-1.2144e-07
-1.44261e-09
-1.02939e-07
1.10952e-07
-5.81354e-09
1.2003e-07
5.41252e-09
-3.12526e-08
-9.41898e-08
1.1693e-07
1.64456e-09
-1.16489e-07
-2.08588e-09
-6.98589e-08
-5.30381e-08
6.98243e-08
8.82871e-08
1.53779e-09
1.54999e-07
1.91341e-08
-3.55094e-08
-1.43473e-08
3.74517e-09
-7.69088e-08
1.20909e-07