/*--------------------------------*- C++ -*----------------------------------*\
| =========                 |                                                 |
| \\      /  F ield         | OpenFOAM: The Open Source CFD Toolbox           |
|  \\    /   O peration     | Version:  2212                                  |
|   \\  /    A nd           | Website:  www.openfoam.com                      |
|    \\/     M anipulation  |                                                 |
\*---------------------------------------------------------------------------*/
FoamFile
{
    version     2.0;
    format      ascii;
    arch        "LSB;label=32;scalar=64";
    class       volVectorField;
    location    "0.028";
    object      U;
}
// * * * * * * * * * * * * * * * * * * * * * * * * * * * * * * * * * * * * * //

dimensions      [0 1 -1 0 0 0 0];

internalField   nonuniform List<vector> 
31639
(
(0.119069 0.000687775 -0.000519314)
(0.11678 -0.000342599 1.06939e-05)
(0.118297 -0.000216849 0.000751386)
(0.120952 5.02052e-05 -0.000140091)
(0.117685 -0.000681259 -0.000276129)
(0.117298 2.70947e-05 -6.13595e-05)
(0.115867 4.81917e-05 -0.000339879)
(0.118474 -7.61433e-05 -0.000100203)
(0.118388 0.000141701 -0.000212474)
(0.119623 -0.000329199 -0.000485288)
(0.120048 0.000481804 -0.000150898)
(0.119353 -0.000512217 -0.000710132)
(0.117371 -0.000325504 -3.0648e-06)
(0.119373 3.67092e-05 0.000105237)
(0.116018 -0.000379128 1.82571e-05)
(0.116161 -0.000353595 0.000676554)
(0.117885 0.000284496 0.000126512)
(0.11561 4.26652e-05 0.000363596)
(0.116448 0.000139353 -0.000407723)
(0.11782 -8.80241e-05 -8.91572e-05)
(0.111965 -0.000256343 -0.000394415)
(0.119817 -0.000223806 -0.000517942)
(0.119708 0.000670089 -0.000170921)
(0.116604 0.000148171 -0.000183196)
(0.115257 -0.000114857 -0.000102537)
(0.118283 -7.47774e-05 6.64275e-05)
(0.117811 3.51629e-05 -6.30735e-05)
(0.120614 0.000434683 -0.000147432)
(0.115979 0.000398907 0.000610697)
(0.11942 2.49183e-05 0.000480786)
(0.120012 -0.000130396 -0.000104814)
(0.115501 -0.000102189 -0.000135872)
(0.119875 0.000292217 -0.000485674)
(0.116482 -0.000141466 -9.5542e-05)
(0.113334 4.84108e-06 9.53106e-05)
(0.119944 0.000467666 -1.71947e-05)
(0.110909 -0.000272616 -5.71725e-05)
(0.120646 -0.000416002 0.000332877)
(0.1198 -0.00028876 0.00027316)
(0.110862 5.18863e-05 -7.81802e-05)
(0.114216 -8.01068e-05 -0.000337137)
(0.112818 -0.000354914 0.000147671)
(0.119222 0.000166137 -7.25946e-05)
(0.12029 -0.000780491 -0.000798741)
(0.11905 -0.000521618 0.000670502)
(0.120542 -0.000732266 -0.000379035)
(0.115126 0.000254484 -0.000254278)
(0.117307 0.000433083 -0.000385482)
(0.117594 -5.31582e-05 0.000196578)
(0.120505 -0.000379163 -0.000270619)
(0.120248 -0.000118133 -0.000403145)
(0.11219 0.000212313 -0.000182607)
(0.119841 0.000501896 0.00016352)
(0.111376 -0.000184223 0.000273447)
(0.117726 -0.000286228 -0.000177842)
(0.117421 0.000113886 0.000108542)
(0.112727 -2.79913e-05 -0.000613407)
(0.117758 9.45561e-05 0.000341268)
(0.117426 5.28827e-05 0.000337667)
(0.113338 0.000178264 -0.000160216)
(0.118659 -0.000129597 -0.000386016)
(0.119134 0.000349497 -0.000163015)
(0.115535 -0.000191625 -0.00034793)
(0.117432 8.31737e-06 -0.000124701)
(0.118325 0.000354203 3.71727e-05)
(0.120605 -0.00018127 -0.000533908)
(0.118124 0.000160308 -0.000936409)
(0.11757 -0.000272918 9.71389e-05)
(0.114207 -3.7139e-05 -0.000327946)
(0.120562 0.000319667 -0.000188964)
(0.119057 7.97649e-05 -0.000234048)
(0.114712 0.000128285 -0.00107599)
(0.119368 -0.000368207 -0.000742544)
(0.117939 -0.000110228 -0.000189147)
(0.118775 0.000415167 -2.6939e-05)
(0.111785 0.000217252 -0.000669225)
(0.120196 -0.000649531 0.000220551)
(0.116897 0.000286951 -0.000577003)
(0.116884 -0.000157335 0.000336515)
(0.118962 0.000280716 -7.38009e-05)
(0.115511 4.27282e-05 0.000147132)
(0.109624 -0.000101563 6.68119e-05)
(0.120088 -0.000228067 0.000130959)
(0.118314 -0.000242131 -0.000207201)
(0.118163 -4.84919e-05 -0.000140703)
(0.120058 -0.00031057 -0.000244504)
(0.120622 3.79701e-05 0.000122094)
(0.120379 -0.000179286 -0.000352012)
(0.112558 0.00089751 -0.00133812)
(0.119587 -0.000254577 -0.000421325)
(0.118327 -0.000264195 0.000278394)
(0.1167 -0.000401865 -0.000106181)
(0.113513 -0.000471478 -0.000315047)
(0.1162 0.000447166 -0.000718084)
(0.115533 -0.000704068 -0.000336783)
(0.116512 0.000917532 0.000285761)
(0.117865 0.000221421 -0.000394883)
(0.117905 -0.000107606 0.000181334)
(0.117407 0.000143376 0.000171987)
(0.112853 -0.000831209 -6.92044e-05)
(0.118674 7.23279e-05 -7.51846e-05)
(0.118671 0.000294338 0.000597819)
(0.11624 -0.000246283 -0.00017943)
(0.11198 7.36304e-05 -0.000177797)
(0.113206 -2.34874e-05 -0.000334105)
(0.120618 -0.00053069 -0.000253286)
(0.111521 0.000373666 -0.000381557)
(0.112529 -0.000709952 -0.000775853)
(0.114707 0.000423654 2.11132e-05)
(0.111232 -9.71174e-05 0.000539015)
(0.118897 -0.000967414 0.000215581)
(0.113594 -6.07738e-05 -0.000260902)
(0.11729 -5.89207e-05 -0.000272679)
(0.116531 -0.000570773 -0.000605698)
(0.11778 0.000153817 -0.000640401)
(0.111929 -0.000435893 0.000260476)
(0.116659 0.000478758 -5.22037e-05)
(0.116122 -0.000570896 -0.000102752)
(0.118599 3.32293e-05 -7.18277e-06)
(0.117203 -0.000271956 0.000104367)
(0.118136 -0.00045612 -6.27255e-05)
(0.119377 -0.000507362 0.00036757)
(0.119915 8.18375e-05 -0.000585658)
(0.118626 0.000311421 -0.000682795)
(0.11845 -9.96234e-05 -0.000776382)
(0.119428 -0.000301917 0.000118431)
(0.117149 -2.21368e-05 0.000281487)
(0.115525 0.000175943 -0.000240585)
(0.115323 -0.000561784 -0.000261833)
(0.119514 -0.000251175 0.000111757)
(0.119186 4.5629e-05 -0.000292203)
(0.119748 0.000209978 -0.00039617)
(0.119123 -0.000396001 2.2336e-05)
(0.117615 -0.000119012 5.74024e-05)
(0.119616 -0.00011186 -0.000165646)
(0.11798 -0.00010743 1.0855e-05)
(0.113333 -0.000135929 -0.000318459)
(0.112572 -0.00069013 -0.000388444)
(0.119983 0.000409299 0.000534191)
(0.117621 -0.000386074 -0.000378941)
(0.117354 -8.52156e-05 -0.000337418)
(0.120366 0.000251309 0.000961727)
(0.1197 0.000488283 0.000220682)
(0.111998 -0.000295828 -0.00043129)
(0.112397 -0.000122262 -0.000632923)
(0.119314 -0.000185888 -9.67457e-06)
(0.119158 -0.000231111 -0.000300846)
(0.112982 -0.000199681 -0.000404723)
(0.113541 -8.33322e-05 0.00011192)
(0.119585 -0.000331267 -1.91125e-05)
(0.115365 -5.60456e-05 -0.00103325)
(0.116976 6.44578e-05 0.000199375)
(0.117122 -0.000231633 -0.000746725)
(0.119319 -0.000159906 1.13031e-05)
(0.113681 0.00063714 -0.00103931)
(0.120887 6.67609e-06 7.08779e-05)
(0.11854 -0.000205635 -0.000264771)
(0.114307 -0.00115804 -0.000135725)
(0.113022 -0.000691715 0.000875442)
(0.116281 -0.000364145 -0.000243152)
(0.120419 -0.000113551 -0.000432084)
(0.111985 0.000245168 0.000144906)
(0.113626 0.000101986 -0.00103332)
(0.112635 -0.000360366 0.000146595)
(0.11219 -0.00110888 0.000153186)
(0.116029 7.91347e-05 -9.79329e-05)
(0.112691 0.000425301 0.000106975)
(0.119952 -0.000645625 0.000186847)
(0.120124 -0.000418867 0.000222625)
(0.112663 0.000201358 -0.000656471)
(0.113734 -0.000620984 0.000373891)
(0.116918 0.000553018 -0.000608201)
(0.113221 -0.000103937 -8.63528e-05)
(0.117972 -8.59228e-05 0.000444056)
(0.120563 -0.000221316 -0.00028594)
(0.118948 -0.000582524 -0.000387238)
(0.117725 0.000598169 0.000185272)
(0.119483 0.00024489 0.00041334)
(0.118238 -0.000440338 -6.43093e-05)
(0.116803 -0.000284711 -0.000230927)
(0.117127 0.000121402 -0.000108839)
(0.116608 -0.000542753 0.000693663)
(0.116312 8.23802e-05 0.000203416)
(0.111071 0.00103229 -0.000485595)
(0.117974 -6.17191e-05 0.000169416)
(0.120023 0.000396387 -0.000296019)
(0.116117 -6.27388e-05 0.000466205)
(0.119566 0.000252606 -2.83338e-05)
(0.113379 -0.000245891 7.58341e-05)
(0.111631 -0.000167899 0.000339676)
(0.120392 -0.000203608 -0.000119054)
(0.119348 -0.000217271 -0.00022878)
(0.117591 -0.000302167 0.000549053)
(0.117259 -9.39024e-05 0.000227944)
(0.117705 -4.94145e-05 -0.000295666)
(0.117336 -6.72844e-05 -0.000551319)
(0.11711 0.000508533 0.000428003)
(0.119408 0.000291719 -0.000409764)
(0.113171 -7.67933e-05 -0.000255337)
(0.116408 0.000201991 -0.000176606)
(0.120242 0.000131214 8.68983e-05)
(0.119416 -0.000286776 -0.000128016)
(0.11851 -0.000452224 5.16355e-05)
(0.117736 -0.00131571 -0.000367978)
(0.117569 -0.000518858 -0.000416999)
(0.116757 -5.39095e-05 -0.000346332)
(0.117517 -0.000138598 -0.000415479)
(0.116467 0.000506317 -0.00046874)
(0.119328 3.80993e-05 -0.000387959)
(0.111995 -0.000174418 -4.43651e-05)
(0.117569 -3.83629e-05 -0.000107701)
(0.116815 0.000474035 -3.93053e-05)
(0.117961 -1.91306e-05 -0.000434742)
(0.119512 -5.51965e-05 -0.000492559)
(0.11891 -0.00043198 -0.000398806)
(0.119921 -0.000115589 -0.000281042)
(0.113394 -0.0010263 -0.000378125)
(0.115449 -0.000439425 0.000405)
(0.119309 -0.000338137 -0.000269785)
(0.120088 -0.000150155 0.000226225)
(0.119231 5.05177e-05 0.000233234)
(0.117344 -0.000347952 -0.000522761)
(0.110548 -0.000161358 0.00065196)
(0.117474 -0.000604839 0.000450751)
(0.112519 -0.000431141 -0.000294199)
(0.115692 0.000382001 2.81002e-05)
(0.11935 -0.0004013 0.000502345)
(0.11549 0.00025126 0.000406072)
(0.112176 0.000374819 -0.000238499)
(0.117753 0.000109131 0.000251376)
(0.11865 0.000326458 -0.000199458)
(0.120196 -0.000228406 -6.79217e-05)
(0.112557 -0.000247384 -4.53608e-05)
(0.111725 -0.000600559 0.000155315)
(0.118133 -0.000370557 0.00026225)
(0.119436 9.911e-05 -0.000623782)
(0.112916 6.84348e-05 0.000426909)
(0.119676 -0.000769693 0.000231901)
(0.115012 6.53064e-05 -0.000441417)
(0.113384 -0.000354655 0.000138719)
(0.117161 0.000204424 -0.000288961)
(0.118519 -0.000247609 4.95006e-06)
(0.116271 -0.000911256 8.79902e-06)
(0.114967 0.000237598 0.000850624)
(0.115788 0.000211814 0.000291095)
(0.117533 -0.00016891 -0.000112051)
(0.116703 0.000511795 -0.000369391)
(0.115478 0.000301075 -0.000863465)
(0.112166 -0.000465989 0.000462418)
(0.116888 0.000342276 -0.000467946)
(0.117153 0.000138599 -0.000601232)
(0.114237 -0.00020516 -2.72243e-05)
(0.115611 -0.00100436 0.000200261)
(0.11969 4.9438e-06 -0.000141757)
(0.120017 0.000596481 8.9667e-05)
(0.117467 0.000528732 -0.000110939)
(0.113291 9.77938e-05 -5.82582e-05)
(0.119709 0.000254939 -0.000212644)
(0.119027 0.000363316 -0.000524313)
(0.117139 -0.00034927 -0.000375331)
(0.120728 0.000170203 0.000768676)
(0.120362 0.000124631 -0.000363669)
(0.118681 0.000216889 -0.000455987)
(0.120147 4.77774e-05 0.000112553)
(0.116337 0.000411643 6.69514e-05)
(0.117212 -0.000275358 -0.000642099)
(0.111914 0.000324618 -0.00148817)
(0.115607 -0.000137777 -0.000212944)
(0.119545 -0.000792508 0.000195778)
(0.116146 6.75801e-05 0.000333)
(0.119178 0.000289387 -5.51876e-05)
(0.116855 0.000462818 -0.00065256)
(0.117743 -0.000193013 4.03688e-05)
(0.118565 0.000205951 0.000341605)
(0.120441 3.04021e-05 -0.000624493)
(0.117956 0.000575479 0.000169104)
(0.112717 0.000212598 -1.35456e-05)
(0.116589 0.000107011 0.000122945)
(0.114035 0.00146378 -0.00035694)
(0.120148 -0.000168595 -0.0008377)
(0.116686 -0.00057627 -0.000245828)
(0.11929 -1.41239e-05 -0.00040868)
(0.117964 5.80216e-05 -0.000322479)
(0.11562 -0.000102324 -0.000468678)
(0.112202 1.54951e-06 1.57288e-05)
(0.113677 0.000151546 -0.000565301)
(0.113253 0.000246877 0.000180628)
(0.11189 -0.000294112 0.000107594)
(0.120434 -0.000377723 -0.000338393)
(0.112619 -0.000405379 -0.000515544)
(0.118433 -0.000343768 0.000220199)
(0.118019 0.000545132 -0.000247759)
(0.116566 4.9969e-06 -0.000222115)
(0.113657 -0.000143826 -0.00016337)
(0.119881 -0.000725514 2.2604e-05)
(0.116841 9.78273e-05 -0.000716559)
(0.114911 0.00010579 0.000600886)
(0.119609 0.000230283 -0.000431494)
(0.118162 -0.000156383 -0.000102122)
(0.113731 0.000412584 0.000380833)
(0.116427 6.95364e-05 -8.35698e-05)
(0.113127 0.000208019 -3.83225e-05)
(0.117849 0.000324481 -0.000271283)
(0.116884 0.000246261 -0.000161181)
(0.113623 0.000365464 0.000786486)
(0.117205 -4.92656e-05 -0.000224858)
(0.116481 0.000924767 0.000340698)
(0.110902 0.000128978 -0.00110459)
(0.110961 0.000339304 0.000312175)
(0.119036 -0.000557845 0.000236371)
(0.120083 0.000141813 -2.5991e-05)
(0.120456 0.000165334 -0.000114163)
(0.112298 0.000206945 0.00012108)
(0.113742 -1.83123e-06 0.000350433)
(0.119416 0.000265871 0.000293791)
(0.114939 -0.000220202 -0.000250444)
(0.114611 0.000622844 -0.000771966)
(0.119291 0.000273037 0.000432756)
(0.11974 -0.000410401 -7.70814e-05)
(0.116504 -0.000715081 9.11818e-05)
(0.11954 -0.000817316 -0.00029787)
(0.120529 1.16468e-05 -0.000228159)
(0.112923 -0.000126293 -0.000216183)
(0.120567 -0.000851878 -0.000434701)
(0.11101 0.000311751 -0.000139604)
(0.112037 -5.26572e-05 -6.63804e-05)
(0.119989 -0.000416004 -0.000239336)
(0.119304 -0.00052725 -0.000130346)
(0.120403 0.000194253 -0.000621537)
(0.120481 0.000516677 -0.000885679)
(0.119133 -6.24288e-05 -0.000645759)
(0.114077 0.00104482 -0.000530932)
(0.115743 -0.000879106 0.000647085)
(0.116989 -6.81114e-06 -0.000137178)
(0.118749 -0.000849582 9.54835e-05)
(0.119988 0.00084748 0.000618903)
(0.120204 -0.000661831 0.000246005)
(0.117311 0.000155344 -0.00021436)
(0.115421 -0.000858031 0.000471498)
(0.117087 -0.000164484 -2.94775e-05)
(0.119724 1.91126e-05 -0.000188319)
(0.118877 -2.5552e-05 -0.000908584)
(0.115975 0.000134148 -0.000255188)
(0.118011 -0.000275771 -5.94488e-05)
(0.116946 0.000587181 -0.000499178)
(0.116551 -0.000324115 -0.000305341)
(0.118764 -0.000247212 5.83761e-05)
(0.11582 -0.000833033 0.000740911)
(0.113113 -0.000143723 3.55864e-05)
(0.117508 0.00062637 -0.000642209)
(0.119046 -2.44427e-05 -2.10117e-05)
(0.116086 5.61169e-05 -0.000178236)
(0.118706 0.000349921 0.000257406)
(0.1196 -0.00061103 0.000186526)
(0.117881 0.000126444 -0.000273834)
(0.113893 0.000346315 -0.000376725)
(0.117179 0.000343324 -0.0003786)
(0.116382 0.000329437 0.000283922)
(0.112068 0.000262273 -0.000427749)
(0.119207 -0.000824322 0.000195105)
(0.112108 0.000477285 0.000404472)
(0.118386 -9.69196e-05 -0.000450833)
(0.120122 -0.000819556 -0.000118982)
(0.112825 -0.000243831 0.000138215)
(0.117681 0.000272252 1.68216e-05)
(0.116674 0.000328532 0.000476389)
(0.112525 -0.000211952 0.000121752)
(0.118122 -0.00013023 -0.000103865)
(0.113904 1.37006e-05 -0.000216514)
(0.116829 -8.50732e-05 0.000562969)
(0.119639 0.000498542 0.000118059)
(0.118282 6.9652e-05 0.000198833)
(0.111754 0.000325046 -0.000125882)
(0.118661 0.000183184 1.53956e-05)
(0.11368 0.000160087 -0.000397401)
(0.118627 -0.000138508 -3.10237e-05)
(0.118837 0.000286885 2.36088e-05)
(0.11921 -0.000324746 -0.000425257)
(0.119853 -0.000268087 -0.000435446)
(0.112802 -0.000101195 -0.000474578)
(0.119061 -0.000925172 0.000190112)
(0.112197 -2.31281e-05 -0.000483195)
(0.116732 3.63793e-05 -0.00036941)
(0.112842 0.000141703 -0.00023126)
(0.120634 7.93885e-06 -0.000319819)
(0.119975 0.000123963 -0.00034929)
(0.120581 -8.23897e-05 2.93265e-05)
(0.120121 -0.000374651 -0.000495626)
(0.117545 -9.29134e-05 -0.00034929)
(0.119165 -7.44764e-05 0.000177373)
(0.11717 0.00021613 -2.44991e-05)
(0.117825 0.000125035 -0.000227583)
(0.117438 0.000133538 -0.000350576)
(0.113622 6.3843e-05 8.89234e-05)
(0.118821 -0.000118642 -0.000334094)
(0.117461 -0.000296042 -0.000146183)
(0.11779 -0.000264826 -0.000241784)
(0.119503 8.92062e-05 7.64642e-05)
(0.118987 -6.76167e-06 -0.000495925)
(0.119126 4.11632e-05 0.000131799)
(0.11668 -0.000644321 0.0001003)
(0.112061 -7.10428e-05 0.000643462)
(0.1166 0.000217863 0.000304985)
(0.118866 0.000131314 0.000209241)
(0.118438 -0.000291756 0.00016349)
(0.112775 -0.000505508 -0.000434242)
(0.120056 3.11797e-05 -0.000332873)
(0.119788 -6.89294e-05 -0.000693707)
(0.116241 0.000166722 -0.000520745)
(0.119017 -0.000343549 -0.000482746)
(0.11938 -0.000157475 -0.000972056)
(0.118574 -0.000220649 -0.000553218)
(0.119038 -0.000287653 -6.09175e-05)
(0.112396 -0.000241965 -0.000120994)
(0.118279 -0.000273917 9.56787e-05)
(0.118976 -0.000378161 0.000268993)
(0.110912 0.000143204 -8.86787e-05)
(0.117739 -0.000614038 5.17637e-05)
(0.118469 -0.000307817 -0.000220416)
(0.114885 0.000151247 0.00015307)
(0.11191 -0.000186215 5.00474e-05)
(0.11195 -0.000176963 0.000613054)
(0.116347 -0.000808409 0.00012765)
(0.111611 0.000276102 -0.000241595)
(0.117047 2.24516e-06 0.000187494)
(0.117866 -0.000167171 4.65451e-05)
(0.115108 0.000526993 0.000323472)
(0.118753 0.000571997 -0.000119713)
(0.112928 -0.000116724 0.000173807)
(0.118737 0.000399464 0.000133851)
(0.120679 0.000179749 1.58028e-05)
(0.117182 -0.000170894 7.4126e-05)
(0.118519 -8.34894e-05 0.000490829)
(0.116504 -1.87934e-06 4.98968e-06)
(0.120002 0.000694446 -0.000210219)
(0.118104 0.000442613 -6.04181e-05)
(0.117654 -7.06328e-05 -0.000545188)
(0.12074 -6.85637e-06 -0.000429162)
(0.117655 3.06792e-05 -0.000317476)
(0.112728 -5.47818e-05 0.000190424)
(0.117331 -6.51e-06 -0.00017593)
(0.120447 0.000224334 -0.000874122)
(0.119803 0.000268092 -0.000525662)
(0.118938 -7.79814e-05 0.000504093)
(0.119832 0.000176589 -5.89051e-05)
(0.11745 -0.000607104 0.00039143)
(0.118837 -0.000232792 0.00013065)
(0.118231 0.000126982 0.000292951)
(0.11935 0.000150441 -0.000266717)
(0.119615 -0.00055214 -0.000257318)
(0.11176 -0.000391749 -0.000214815)
(0.116756 -0.000375404 0.000175123)
(0.110656 -0.000221136 0.000136457)
(0.1163 0.000373111 0.000617286)
(0.116266 -1.00775e-05 -0.000534082)
(0.112643 -0.000454083 0.000587619)
(0.111781 -0.000388422 -0.000449587)
(0.117113 0.000316399 -0.000242953)
(0.118296 -0.00033824 -8.27228e-05)
(0.119545 6.05888e-05 -0.000536916)
(0.11287 -4.33131e-05 0.000414989)
(0.118416 -0.000223825 0.000146748)
(0.116617 -0.000101352 0.000142861)
(0.117384 -0.00013771 -0.000503242)
(0.118189 7.14802e-05 -0.000498514)
(0.113567 0.00117313 0.00212367)
(0.117394 7.61727e-06 -0.000537776)
(0.112503 9.77383e-05 0.00034783)
(0.116119 -0.000290219 -0.0002996)
(0.11918 -0.000172784 1.92832e-05)
(0.120839 0.00113946 0.000425008)
(0.11965 0.000177143 -0.000836476)
(0.117657 0.000633338 -0.000557513)
(0.111595 0.000202268 0.000852014)
(0.118563 -0.000250693 6.0068e-05)
(0.118328 6.37824e-06 -0.000331607)
(0.119381 -0.000232084 -0.000362583)
(0.111867 7.0635e-05 2.20406e-05)
(0.113975 -0.000126504 0.000298328)
(0.116557 0.000366318 0.000412475)
(0.113779 0.000392119 -0.000272692)
(0.111458 -0.000436782 -8.82731e-05)
(0.118942 1.44772e-06 -0.000355278)
(0.113442 -4.49446e-05 -3.12999e-05)
(0.115848 0.000758338 0.000208399)
(0.112731 -0.000500009 -0.000796075)
(0.118707 0.000231095 3.02575e-05)
(0.113327 6.13204e-05 -0.000223147)
(0.120081 -9.04744e-05 0.000440902)
(0.119166 0.00016849 -0.000334423)
(0.120276 -0.00012694 0.000493956)
(0.12034 -9.9682e-05 -0.000306003)
(0.113131 -4.01975e-05 0.000158046)
(0.119635 0.000173878 0.000225126)
(0.120402 -9.94822e-05 -0.000187376)
(0.117661 -0.0003542 0.000242547)
(0.118752 0.000469509 -0.000174227)
(0.118312 -0.000393285 -0.000239107)
(0.120024 0.000347289 -4.648e-05)
(0.119292 0.000132009 0.000569699)
(0.115197 7.57152e-05 -0.000397017)
(0.120954 -8.44127e-05 -0.000107149)
(0.12048 -0.000209895 8.29481e-05)
(0.117796 -0.000143659 2.13477e-05)
(0.116334 -0.00033853 -0.000739486)
(0.11981 -0.000409326 -0.000219583)
(0.117931 0.000213699 -8.05676e-05)
(0.111175 0.000584397 -0.000282099)
(0.111197 0.000393935 -7.30069e-05)
(0.117288 2.44836e-05 0.000163511)
(0.119471 6.79271e-05 0.00010225)
(0.120482 -0.000158483 -0.000210763)
(0.115547 -0.000263293 -7.24794e-05)
(0.11945 0.000384153 0.000231598)
(0.118518 -0.00013101 0.000389933)
(0.120184 0.00102152 0.000862973)
(0.117561 -3.63364e-05 -2.84522e-05)
(0.116763 0.000445906 -0.000317515)
(0.11784 -0.0015732 0.000904871)
(0.112512 -6.10438e-05 -0.000172679)
(0.116809 6.57302e-05 0.000105218)
(0.117894 7.9184e-06 -0.000135539)
(0.119862 4.48303e-05 -7.92635e-05)
(0.113811 -0.000282496 4.24674e-05)
(0.114168 0.000421975 -0.000473074)
(0.115101 -6.49689e-05 -0.000355822)
(0.115207 -0.000411469 -0.00010036)
(0.117446 -0.000102483 -0.000501106)
(0.112124 -7.70925e-05 -0.000458128)
(0.119256 0.000352694 -0.0007126)
(0.116092 0.000127675 -0.000192642)
(0.118448 4.39934e-05 0.000824572)
(0.116514 -0.00020464 -0.000101896)
(0.120538 -0.000256014 -0.00029377)
(0.117421 -7.06891e-05 -0.00070503)
(0.112136 0.000148722 0.000523255)
(0.117993 0.00081178 0.00015832)
(0.120562 -0.000130135 -0.000839159)
(0.112948 0.000294185 0.000971425)
(0.11934 -2.08639e-05 -0.000672388)
(0.120782 -0.00104006 -0.000394883)
(0.117789 -0.000339596 8.76536e-05)
(0.116711 0.000254362 0.000109482)
(0.121163 -0.000247605 -0.000562286)
(0.115141 4.47929e-06 -9.82241e-05)
(0.117575 -0.000359063 -5.53968e-05)
(0.117326 0.000184087 0.000133981)
(0.113237 -2.47227e-05 3.4317e-05)
(0.113513 -7.94896e-05 -0.00112005)
(0.116637 0.000228242 0.000281164)
(0.115276 0.000527128 0.000154745)
(0.119011 -6.23851e-05 -0.000282624)
(0.11486 -0.000336017 0.000301902)
(0.116354 0.000348105 0.000447616)
(0.120281 0.000109754 0.000278728)
(0.116826 0.000166505 -4.1299e-05)
(0.111787 0.00022542 0.000202986)
(0.115116 0.000205204 -5.11417e-06)
(0.117795 0.00034818 -0.000168233)
(0.120438 -0.000164897 0.000148923)
(0.112028 0.000638888 0.000450281)
(0.111982 -4.9266e-05 0.00022739)
(0.120464 0.000178367 0.000783016)
(0.112214 0.000194696 8.10743e-05)
(0.118418 -0.000108188 -9.81537e-05)
(0.119092 0.000201414 -0.000221061)
(0.113481 -0.000143868 -0.00075141)
(0.117825 0.000285967 -0.000117163)
(0.11991 0.000289307 -0.000336453)
(0.11716 6.17086e-05 0.000650322)
(0.110802 6.96208e-06 0.000159802)
(0.120048 8.0976e-05 -3.10331e-05)
(0.117163 -5.89614e-05 -0.000351807)
(0.1116 0.000480669 -3.54647e-05)
(0.120154 0.000149436 -0.000124641)
(0.116519 -0.00013528 -0.000128583)
(0.116358 0.000400627 -0.000347502)
(0.118801 -0.000311904 5.0702e-05)
(0.111777 0.000777242 -0.00040507)
(0.115987 2.13898e-07 -0.000893613)
(0.115973 -0.000466819 3.85788e-05)
(0.116994 0.000133388 -0.000412462)
(0.113306 -6.62508e-05 0.000403925)
(0.11503 -2.57497e-05 -2.18652e-05)
(0.118993 0.000563316 0.00022774)
(0.121012 -0.00062664 -0.000707688)
(0.121248 -0.00037616 0.000292179)
(0.120147 0.00017253 -0.000132568)
(0.120087 -0.000520119 -0.000174253)
(0.118709 0.000130696 -0.00113248)
(0.114618 -0.000203862 0.000305421)
(0.120978 0.000163004 -0.000841185)
(0.118951 -0.000102481 -0.000115243)
(0.118931 0.000674144 0.000295835)
(0.113629 0.000797081 -0.000236589)
(0.117972 -0.000169988 -0.000228671)
(0.118113 0.00023975 0.000487861)
(0.121172 0.000844812 6.80353e-05)
(0.112295 -4.76212e-05 0.000241316)
(0.111309 -0.000575334 0.000304908)
(0.119939 7.52247e-05 -0.000505727)
(0.115224 -0.000156412 -0.000310231)
(0.11973 0.000106955 -2.5171e-05)
(0.116094 -1.67566e-05 -0.000324294)
(0.113449 -0.000125769 -0.000702776)
(0.117955 7.58182e-05 -0.000769773)
(0.119997 0.00036865 -0.000169002)
(0.117214 0.000228627 4.94759e-05)
(0.119151 0.000813146 -0.000234603)
(0.11281 9.97325e-05 -0.00148177)
(0.119333 0.00107632 0.000499259)
(0.11881 -9.80032e-05 -0.00043004)
(0.111468 0.000297761 -3.31878e-05)
(0.119133 -0.000123926 -0.000423217)
(0.119172 -0.000274833 0.000107004)
(0.119631 0.000560762 0.00139695)
(0.113054 -0.00060826 -0.000822121)
(0.112279 0.000243815 -0.000685176)
(0.116414 0.000319948 -0.000319879)
(0.117178 2.51282e-05 0.000831404)
(0.117576 -0.00018946 0.00014237)
(0.117044 0.000403254 0.000155568)
(0.116673 0.000381727 0.000536937)
(0.119738 0.000135366 -2.83812e-05)
(0.117835 -0.000223174 0.000123696)
(0.118136 0.000169092 0.000137039)
(0.113594 -0.000254326 0.00058142)
(0.120379 -0.000124705 -0.000911101)
(0.112591 -0.000178564 -6.82313e-05)
(0.117701 0.000748356 5.31065e-06)
(0.116766 0.000367801 -7.78086e-05)
(0.116454 -0.000801122 -0.000483907)
(0.118521 0.000371973 -1.88945e-06)
(0.115755 -0.000412183 -0.000417322)
(0.11332 -0.000675721 -0.000422586)
(0.111799 -0.000107744 -0.000447125)
(0.11299 -0.00026788 -0.000199373)
(0.116448 -0.000465732 -0.000356288)
(0.11907 0.000633238 0.000315372)
(0.112472 0.000426873 0.00144008)
(0.119232 -0.000200021 -9.44435e-05)
(0.116635 7.65971e-05 -0.000626042)
(0.120235 -0.000290753 -0.000405724)
(0.112319 -5.50407e-05 -0.000699419)
(0.115819 0.000401256 0.000561618)
(0.119366 3.56105e-05 -0.000537002)
(0.120032 -0.000668535 -3.43648e-05)
(0.119217 0.000275567 -0.000344185)
(0.120068 -0.000225964 -0.000161416)
(0.118042 4.50084e-05 0.000192419)
(0.11691 0.000556739 0.000129713)
(0.120178 -4.85977e-05 0.000372504)
(0.119914 0.000305854 -1.70335e-05)
(0.120364 0.000219813 6.56819e-05)
(0.113948 0.000854579 -0.000318198)
(0.120131 -0.000526625 -0.000664138)
(0.11191 -0.000287309 0.000366518)
(0.120366 0.00066772 -4.96536e-05)
(0.117864 0.000246338 -0.000224636)
(0.116798 -1.15037e-06 -0.000393073)
(0.112904 0.00070546 3.7278e-05)
(0.117151 0.00108583 -0.000646841)
(0.110629 -0.000961616 -0.000361644)
(0.119151 1.62022e-05 -0.000361214)
(0.117034 9.80493e-05 -0.000240547)
(0.119664 -0.000115955 -0.000230291)
(0.11637 0.00039525 -0.00028172)
(0.116707 0.00100145 -0.000247082)
(0.11245 -0.000274108 0.000566416)
(0.1205 0.000162661 1.44199e-05)
(0.113456 -0.000524382 0.000154049)
(0.111088 -0.00024668 -0.000321154)
(0.113263 -0.00021583 9.26376e-05)
(0.113722 0.00018127 0.000107542)
(0.113288 0.000683727 -5.97916e-05)
(0.117312 -0.00028705 9.39876e-05)
(0.112279 0.000132356 -7.69393e-05)
(0.118653 -0.000990425 0.000257181)
(0.11885 1.46209e-05 -0.000487016)
(0.110971 -7.24628e-05 -9.53113e-07)
(0.118756 0.000386351 2.06885e-05)
(0.112965 0.000336445 -0.000665385)
(0.116243 0.000777218 -1.1573e-05)
(0.117605 0.000306567 1.76071e-05)
(0.116709 -0.000154183 -0.000900314)
(0.118928 7.65501e-05 -0.000112948)
(0.120842 0.000181565 -0.000753947)
(0.119103 5.69401e-05 0.00044384)
(0.118343 2.61015e-05 -0.000248625)
(0.117879 -0.000164338 -0.000937978)
(0.119006 0.000416346 0.000253332)
(0.116034 0.00018164 7.47367e-05)
(0.116519 0.000274682 0.000123211)
(0.111584 0.000661743 -0.00070692)
(0.110777 0.00199852 0.00338694)
(0.119859 3.91917e-06 0.000113548)
(0.117496 2.12805e-05 -0.000176856)
(0.118804 -0.000260274 -0.000139348)
(0.119174 -2.83388e-05 8.00734e-05)
(0.111809 -0.000495751 -7.86239e-05)
(0.119698 -0.000103084 -0.000364192)
(0.120042 0.000487968 -2.04705e-05)
(0.119897 4.34245e-05 0.000149978)
(0.11986 0.000119073 0.000311273)
(0.118599 0.000333376 0.000384072)
(0.118161 -0.000482243 -0.000271516)
(0.119953 -5.81596e-05 1.04291e-05)
(0.120393 -0.000133401 0.000395623)
(0.118376 0.000335888 0.000344939)
(0.119971 0.000133251 -0.000188832)
(0.119192 -0.000354409 -0.000449026)
(0.1141 -0.000305826 -0.000427592)
(0.119709 -0.000117536 0.000226009)
(0.114561 1.70188e-05 0.000515919)
(0.117442 7.25857e-06 -5.20163e-05)
(0.117768 -0.000684493 -9.32065e-05)
(0.11721 -0.000520744 0.000113516)
(0.116128 0.00060772 -3.4891e-06)
(0.118942 0.000275782 -0.000175545)
(0.11651 0.000450779 0.00032463)
(0.118185 0.000328788 -0.000376308)
(0.11631 0.0010341 -0.000483862)
(0.11195 0.00100527 -0.00065432)
(0.120814 0.000376111 -0.00028224)
(0.118633 0.00052635 -0.000173153)
(0.115813 -1.39525e-05 0.000594972)
(0.112286 -0.000537462 -3.0777e-05)
(0.119447 -0.00039527 -9.20975e-05)
(0.111836 -0.000604053 -0.000558889)
(0.120089 -0.000294439 2.10204e-05)
(0.118841 -4.59977e-05 0.000391199)
(0.116469 0.00101673 -0.000386175)
(0.118978 -0.000370188 0.000278951)
(0.120335 7.25027e-05 -0.000473686)
(0.118067 -0.000406852 -8.31409e-05)
(0.111884 -0.000145987 0.000182687)
(0.116585 -0.000173753 -0.000150491)
(0.114443 0.000446956 -0.000512097)
(0.117271 7.84355e-05 -0.000107563)
(0.11195 -0.000501375 -0.000864601)
(0.118527 -0.00012373 -0.000299086)
(0.119038 -0.000473969 0.000499119)
(0.115165 0.000469386 -0.000600147)
(0.117224 5.92425e-05 3.34539e-05)
(0.114833 -9.59449e-06 -0.000158483)
(0.119162 -1.76572e-05 -0.000363986)
(0.115926 -0.000626483 0.000178422)
(0.117111 0.000355793 0.0003471)
(0.112451 -0.00019925 4.30743e-05)
(0.119864 -4.53498e-05 -3.91454e-06)
(0.11786 -0.000450196 -0.000223664)
(0.119859 0.000172607 4.43626e-05)
(0.114735 0.000505446 -0.00033545)
(0.117545 -7.94913e-05 -0.000291818)
(0.118244 9.22756e-05 -0.000302266)
(0.116374 -1.55425e-05 0.000332958)
(0.117442 -7.58989e-05 0.000140288)
(0.117236 -9.50023e-05 0.000476004)
(0.119663 -0.000381475 8.40655e-05)
(0.11729 -0.000216008 -0.000104395)
(0.112866 3.29431e-06 -0.000188045)
(0.111267 -0.000200017 -0.000572019)
(0.118795 -0.000529119 4.20952e-06)
(0.111955 0.000490656 -0.000823988)
(0.115052 -0.000639206 -0.00110537)
(0.117358 0.000276651 -0.000198544)
(0.117519 0.000246391 6.23078e-06)
(0.12033 0.000552125 -0.000217585)
(0.111825 -9.39348e-05 -8.19324e-05)
(0.117368 -0.000110518 -0.000654793)
(0.120621 4.42175e-05 -0.000346047)
(0.112863 0.000816507 -0.00241678)
(0.113157 0.00137981 0.000128824)
(0.116629 -5.47367e-05 -0.000659615)
(0.113283 -0.000110174 -2.79887e-05)
(0.118332 0.000345496 -0.000533831)
(0.113259 -0.000294975 7.70321e-05)
(0.119934 -0.000739731 -0.000307789)
(0.114681 0.000147069 0.000467668)
(0.115659 0.000316613 0.000457223)
(0.120859 0.000297374 0.000723512)
(0.111221 -0.000192663 0.000397673)
(0.115844 0.000125622 0.000390986)
(0.115752 1.55776e-06 0.000550113)
(0.11992 -8.5086e-05 -0.000653449)
(0.12009 4.62402e-05 0.00020524)
(0.119605 1.86918e-05 -0.000199243)
(0.112729 0.000674572 0.000348662)
(0.118756 4.54966e-06 -0.00042494)
(0.119413 0.000187044 0.000766785)
(0.114981 -0.000274453 -0.000120539)
(0.119791 0.000307509 -0.000131948)
(0.119186 0.000251162 0.000191771)
(0.118822 0.000350017 4.03009e-07)
(0.119781 -0.000130143 -0.000526634)
(0.117665 6.29385e-05 -0.000204997)
(0.120884 5.17184e-05 0.000264827)
(0.120203 0.000671092 0.00076858)
(0.120027 -6.67755e-05 -0.000225948)
(0.118143 0.000483957 0.000339032)
(0.116425 -0.000232614 -0.000438098)
(0.117849 0.000319706 5.77286e-05)
(0.117503 0.000152735 -0.00035935)
(0.11185 -0.000795737 -0.000208446)
(0.116636 -0.000553861 7.8573e-05)
(0.11821 -0.000105125 0.000459703)
(0.119871 -0.000246 -0.000254725)
(0.119959 -0.000330379 -0.000580428)
(0.116966 -0.000423976 9.71568e-05)
(0.121065 0.000966269 -8.06847e-05)
(0.119268 -4.26782e-05 -1.64551e-05)
(0.115758 -0.000659845 0.000621201)
(0.118681 -2.2172e-05 -0.000396412)
(0.119748 7.29833e-05 -0.000265481)