/*--------------------------------*- C++ -*----------------------------------*\
| =========                 |                                                 |
| \\      /  F ield         | OpenFOAM: The Open Source CFD Toolbox           |
|  \\    /   O peration     | Version:  2212                                  |
|   \\  /    A nd           | Website:  www.openfoam.com                      |
|    \\/     M anipulation  |                                                 |
\*---------------------------------------------------------------------------*/
FoamFile
{
    version     2.0;
    format      ascii;
    arch        "LSB;label=32;scalar=64";
    class       surfaceVectorField;
    location    "0.028";
    object      Uf;
}
// * * * * * * * * * * * * * * * * * * * * * * * * * * * * * * * * * * * * * //

dimensions      [0 1 -1 0 0 0 0];

internalField   nonuniform List<vector> 
68568
(
(0.118417 0.000334815 -0.000128231)
(0.117768 0.000621359 -0.000162121)
(0.117483 0.000434363 -3.0341e-05)
(0.119773 0.000833815 -0.00030678)
(0.118096 -0.000328628 -0.000225999)
(0.118024 -0.000414228 -0.000412581)
(0.11708 -0.00033408 3.07235e-06)
(0.112285 -0.000149133 -0.000178479)
(0.119058 0.000239871 0.000221539)
(0.118777 -0.000417372 0.000683409)
(0.117779 -0.000267254 0.000182049)
(0.114899 -0.0005322 0.000701857)
(0.120716 -0.000179272 -0.000213416)
(0.119602 -9.75542e-06 -0.000336264)
(0.120712 -9.56608e-05 -0.000224023)
(0.120922 -0.000128639 -0.000243365)
(0.115949 -0.000219095 -0.000215843)
(0.118497 -0.000450269 -0.000253323)
(0.115403 -0.000197142 -0.000286178)
(0.118136 -0.000467299 -0.00031498)
(0.118503 -1.959e-05 -5.50885e-05)
(0.117377 2.00004e-05 0.00010454)
(0.118617 1.34512e-05 0.000118501)
(0.11343 1.72967e-05 -0.000271823)
(0.117096 -7.54714e-06 -0.000247521)
(0.113058 -0.000104957 3.73198e-05)
(0.114635 0.000153496 -0.000481945)
(0.11713 1.40319e-05 -0.000306991)
(0.117157 0.000245529 0.000387173)
(0.119201 0.00015685 -5.77771e-05)
(0.117968 -4.5117e-05 -6.8933e-05)
(0.118404 -0.000167298 -0.000335386)
(0.117349 5.91228e-05 -0.000249536)
(0.117362 0.000206172 -0.000558435)
(0.119239 -0.000273625 -8.92582e-05)
(0.118546 -0.00040873 -0.000347032)
(0.119837 -7.36342e-05 -0.000574542)
(0.120054 -0.000399584 -0.000396412)
(0.119978 0.000490109 -6.45703e-05)
(0.119028 0.000351229 -0.000136927)
(0.119768 0.000319834 -0.000140528)
(0.116991 -0.00010421 -0.000460738)
(0.120281 -0.000422573 -0.000676678)
(0.119911 -0.000479281 -0.000601527)
(0.118128 -0.000144868 1.51933e-05)
(0.117268 -0.00033195 -3.17232e-05)
(0.112724 4.63737e-05 -0.000304263)
(0.119799 -0.000117605 -0.00018721)
(0.119743 -0.000112517 0.000204466)
(0.119068 -8.35773e-05 9.91484e-05)
(0.117155 -6.53105e-05 0.000124651)
(0.116135 -0.000308019 -6.8864e-05)
(0.117514 -0.000312433 -0.000177119)
(0.116968 -0.00026584 -6.73273e-05)
(0.112178 -0.000327999 -0.000111672)
(0.117193 -0.000362542 0.000706124)
(0.113166 -0.000277773 0.000402347)
(0.114736 -0.000332975 0.000639663)
(0.117384 -0.000261272 0.000268147)
(0.116812 0.000141794 0.000218281)
(0.117603 0.000249895 0.000234932)
(0.117246 0.000174886 0.00012649)
(0.118581 1.9484e-05 0.000111806)
(0.113614 0.00038355 0.000396078)
(0.113701 -0.000312348 0.000649949)
(0.116978 -6.20436e-05 0.000259506)
(0.117026 0.000114321 -0.000584124)
(0.114901 -0.000259471 -6.90621e-05)
(0.113707 0.000153256 -0.000662406)
(0.117442 -0.000100511 -0.00035337)
(0.117835 1.02008e-05 -6.72817e-05)
(0.118934 -0.000286728 -3.55062e-05)
(0.118605 -0.000431471 9.0225e-05)
(0.114262 -0.000148161 3.98558e-05)
(0.113124 -0.000192169 -0.000366206)
(0.114648 1.66402e-05 -0.00028035)
(0.11339 0.00024801 -0.000299448)
(0.104821 -0.00014541 -0.000442033)
(0.118716 -0.000366905 -0.000495102)
(0.120121 -0.000111594 -0.000561396)
(0.119139 -0.000204163 -0.000549347)
(0.119551 -0.000246902 -0.000665033)
(0.119442 0.000400853 -0.000225453)
(0.119371 0.000401815 -7.28026e-05)
(0.117253 0.000479571 1.68513e-06)
(0.120061 0.000562688 -0.000215288)
(0.114684 0.00022624 -0.000208005)
(0.115008 -0.000125578 -0.000169128)
(0.117324 0.000190035 -0.000303914)
(0.117727 3.98642e-05 3.29098e-06)
(0.112767 -1.31045e-05 8.54293e-05)
(0.11641 -8.87279e-05 -6.19162e-05)
(0.114402 0.000260045 -0.000395821)
(0.116521 -4.89077e-05 0.000214407)
(0.117176 7.95508e-05 -5.67142e-05)
(0.117197 -0.000263039 0.000156512)
(0.119122 -0.00013632 0.000682615)
(0.117656 -3.07058e-05 -0.000169607)
(0.118755 -0.000127846 -7.48021e-05)
(0.114034 -7.29411e-05 0.000312565)
(0.120789 0.000336757 0.000209364)
(0.118732 0.000398564 -0.000165137)
(0.120857 0.000323084 -4.07388e-05)
(0.119479 8.25246e-05 -0.000578144)
(0.118015 0.000242493 0.000381892)
(0.112738 0.000453505 -0.000176226)
(0.114337 0.000391772 0.000133435)
(0.11958 0.00016392 0.000231171)
(0.118741 -1.18845e-05 0.000295336)
(0.119593 0.000135691 0.00024235)
(0.120257 -0.000254401 -0.000205281)
(0.118935 -5.02152e-05 -1.73944e-05)
(0.120364 -0.000209561 -0.000135026)
(0.118465 -0.000112908 -0.000179462)
(0.116728 -0.000262396 -0.000113373)
(0.116735 -0.00011302 -0.000204589)
(0.113679 0.000249582 5.02719e-05)
(0.113267 -0.000307791 0.000327852)
(0.11951 0.000186542 -0.000431244)
(0.118939 2.0633e-05 -0.000294373)
(0.119476 -5.54367e-06 -0.000408376)
(0.119905 -2.05172e-05 -0.00033279)
(0.114785 -8.8776e-05 -0.000223535)
(0.113796 -0.000242617 7.42118e-05)
(0.117688 -0.00016769 3.58955e-05)
(0.117815 -1.90294e-05 9.27058e-05)
(0.114845 0.00022723 0.000110422)
(0.112813 0.000104642 0.000107636)
(0.112781 -1.04731e-05 -0.000178071)
(0.105533 -1.16587e-05 9.72639e-05)
(0.119772 0.000445694 -0.000210482)
(0.112657 4.00126e-05 -3.36607e-05)
(0.112793 -0.000411173 -0.000173206)
(0.11078 -0.000225452 4.3466e-05)
(0.104926 -0.000257616 -3.56146e-05)
(0.120269 -0.00035215 0.000311479)
(0.120165 -0.000532868 0.000186938)
(0.120349 -0.000156252 0.000445935)
(0.119628 -0.000425326 0.000311553)
(0.118622 -0.000270596 0.000323211)
(0.118632 -0.000233473 0.000508078)
(0.119922 -0.000258591 0.00056889)
(0.111581 0.000481372 -0.000374299)
(0.112737 -0.000265322 3.86136e-08)
(0.105689 7.33588e-05 -0.000105509)
(0.115822 -6.75845e-05 -0.000141577)
(0.113632 -0.000105853 -0.000383654)
(0.105983 9.61806e-05 -0.000449005)
(0.114199 -0.000146779 0.000160762)
(0.114214 -0.000407391 -5.34345e-05)
(0.115116 -0.000337755 -4.32889e-05)
(0.105136 -0.000260248 0.000150693)
(0.119678 -0.000118467 0.000102284)
(0.11806 -0.00010347 -5.9759e-06)
(0.118794 -0.000281087 -0.000419631)
(0.119805 -0.000776367 -0.000432789)
(0.118586 -0.00077262 -0.000717332)
(0.119936 -0.000559 -0.0008294)
(0.119241 -0.000477776 0.000586667)
(0.119515 -0.000637565 0.000206059)
(0.118893 -0.000186765 0.000255457)
(0.12042 -0.000555349 -0.000224392)
(0.119369 -0.000603379 -1.88293e-05)
(0.118853 -0.00036151 -0.000351385)
(0.120351 -0.000215587 -0.000441567)
(0.117082 -9.66115e-06 -0.000306467)
(0.115707 0.000409118 -0.000460827)
(0.111342 -2.95323e-05 -0.000285568)
(0.117767 0.000323404 -0.000474996)
(0.118064 3.36597e-05 -0.000345751)
(0.115804 0.000190917 -0.000723229)
(0.11459 0.000109869 -0.000280677)
(0.116741 -0.00017048 0.00019979)
(0.116465 -1.20829e-05 5.67359e-05)
(0.118489 3.5408e-06 -0.000236594)
(0.117463 -0.000186509 0.000131572)
(0.119453 -0.000114795 -0.000363155)
(0.1189 -0.000210691 -0.000424888)
(0.119081 0.000110363 -0.000347933)
(0.120373 0.000225352 -0.000693281)
(0.120731 -4.78229e-05 -0.00031547)
(0.11477 -9.91552e-05 -0.000484607)
(0.112748 0.00010621 -0.000210484)
(0.113363 6.87234e-05 -0.00011408)
(0.104417 0.000101389 -0.000256816)
(0.11907 0.000590635 0.000120147)
(0.118254 0.000459235 0.000119891)
(0.119855 0.000505779 0.000122679)
(0.119405 0.000309824 0.000137618)
(0.11191 -0.00028531 3.96626e-05)
(0.105224 -9.61877e-05 0.000254937)
(0.115625 -0.000113764 -0.000248853)
(0.115442 -0.000328976 -2.90575e-05)
(0.118284 -0.000155549 -0.000270393)
(0.11832 -0.000261721 -7.63654e-05)
(0.115964 0.000154247 0.000230427)
(0.116453 8.42468e-05 0.000193036)
(0.11829 -0.000187911 5.57549e-05)
(0.114457 -2.02513e-06 -0.000660439)
(0.113284 -3.20535e-05 -0.00032586)
(0.114657 0.000101417 -0.000166876)
(0.105313 0.00035985 -0.000294213)
(0.118972 0.000141507 0.000467143)
(0.118635 -0.000143163 0.000151143)
(0.11771 5.28497e-05 0.000410281)
(0.114193 5.86094e-05 0.000371161)
(0.118833 -0.00031134 0.000142213)
(0.117723 1.97214e-05 0.000406482)
(0.118786 -0.000109114 -1.95602e-06)
(0.113471 2.18585e-05 0.000220728)
(0.112718 -1.317e-05 -0.000127402)
(0.112848 0.000408658 -0.000121025)
(0.106173 0.000101543 -0.000111409)
(0.11731 -0.000385651 -0.000476454)
(0.11701 -1.33781e-05 -0.000311301)
(0.11726 -8.82878e-05 -0.000156571)
(0.118909 0.000369273 8.39959e-05)
(0.117706 0.000402549 0.00017422)
(0.119693 0.000136961 -0.000125787)
(0.118307 0.000269349 -0.000187652)
(0.117046 -0.000130597 -0.000390347)
(0.114646 -0.000200744 -0.000514614)
(0.114729 -0.000183778 -0.000285976)
(0.106064 -0.000287432 -0.000236081)
(0.118693 -7.20971e-05 -6.24349e-05)
(0.118769 0.000100632 7.60552e-05)
(0.112955 7.62776e-05 -0.000156255)
(0.116896 4.86562e-05 -0.000112444)
(0.117183 0.000326405 -1.62013e-05)
(0.118745 0.000369077 3.51959e-05)
(0.117345 0.000333503 0.000168594)
(0.120305 -5.15704e-05 -0.00058569)
(0.120508 -0.000149677 -0.000479951)
(0.120403 -0.00025966 -0.000412383)
(0.119765 -0.000158833 -0.000379938)
(0.116427 0.000317812 -0.000966849)
(0.118464 0.000209828 -0.00083067)
(0.119106 -0.000182108 -0.00069078)
(0.117436 -0.000366966 6.24336e-05)
(0.118555 -0.000285443 2.13481e-05)
(0.117423 -0.000123677 0.000157372)
(0.113635 -6.06711e-05 -0.000205114)
(0.114774 -0.000869001 -0.000401466)
(0.115233 0.000201183 -0.000305937)
(0.105356 -6.66172e-05 -0.000413325)
(0.120187 0.00030623 4.87327e-05)
(0.120471 0.000227546 -0.000277972)
(0.119978 6.17479e-05 -9.53608e-05)
(0.120553 0.000101614 -0.000391724)
(0.119431 0.000309508 -9.95908e-05)
(0.117815 0.000247666 -4.8772e-05)
(0.118839 2.12083e-05 -0.000181999)
(0.118586 0.000168365 -0.000326057)
(0.115184 -0.000143333 -0.000921799)
(0.114809 0.000145381 -0.000369378)
(0.116161 -6.46984e-05 -0.000717376)
(0.108678 -0.00063634 -0.000695965)
(0.118121 -0.000245734 -0.00056613)
(0.118171 -0.000313489 -0.000784653)
(0.11973 -0.000264304 -0.000447562)
(0.11952 -0.000231215 -0.000536201)
(0.119076 -0.000160726 -0.000212395)
(0.117779 -0.000222916 -0.000323245)
(0.117712 7.56517e-05 -0.000124291)
(0.113909 0.000114858 -0.000512861)
(0.119205 0.000449206 0.000249762)
(0.118731 0.000464649 -3.3375e-05)
(0.117362 0.000228549 -0.00017042)
(0.112884 -3.58393e-05 -0.000673431)
(0.112488 4.48021e-05 -0.000489643)
(0.11398 0.000243386 -0.000708352)
(0.10474 0.000329991 -0.000312846)
(0.119552 -0.000522116 -0.000105945)
(0.119369 -0.000567858 0.000115886)
(0.120466 -0.000510716 5.00097e-05)
(0.115206 0.000983919 -0.000583974)
(0.118156 7.94362e-05 -0.00040033)
(0.117743 0.000212327 -0.000411709)
(0.117488 -0.000228258 0.000436049)
(0.117888 1.20756e-05 0.000199838)
(0.118329 8.21864e-05 0.000303324)
(0.112967 -9.18423e-05 0.000316527)
(0.114808 -0.000203894 -0.000128976)
(0.119374 2.54983e-05 2.32839e-05)
(0.117396 0.000266479 -1.49052e-06)
(0.119408 0.000408572 -8.57148e-05)
(0.113058 0.000347787 -0.000260526)
(0.116447 -0.000124003 -4.11757e-05)
(0.116686 -1.09623e-05 6.78521e-05)
(0.110514 -1.36162e-06 -0.000246719)
(0.111527 0.000106518 0.00027161)
(0.111139 -0.000182361 0.000106208)
(0.105222 -5.90357e-05 0.000118754)
(0.120256 2.96444e-05 0.000196841)
(0.118742 -1.13407e-05 -9.59887e-05)
(0.12023 -0.000161191 0.000148465)
(0.119581 -0.00041307 0.000202158)
(0.119671 -0.00042112 -0.000249803)
(0.119317 -2.60667e-05 -0.000105684)
(0.119212 -0.000128264 -0.000260122)
(0.113468 -0.000165887 4.17843e-05)
(0.11708 -0.000227193 -0.000128599)
(0.118725 -0.000245512 -0.000132488)
(0.119033 -8.87785e-05 -0.000186781)
(0.117082 3.76302e-05 9.79088e-05)
(0.120183 -8.15383e-05 -0.000123083)
(0.118601 -3.08475e-05 -0.000261201)
(0.118824 0.000109048 5.83067e-05)
(0.120181 -0.000131137 -4.10544e-05)
(0.120269 3.06177e-05 0.000174311)
(0.119685 -0.000102453 1.6905e-05)
(0.120437 -8.09134e-05 -0.000183645)
(0.119058 -0.000154408 -0.000224736)
(0.118867 -0.000245732 -0.000364134)
(0.120196 -8.20993e-05 -0.000560743)
(0.112831 0.00125646 -0.00086114)
(0.115511 0.000262842 -0.00121638)
(0.11457 0.000596477 -0.00084208)
(0.103396 0.000183058 -0.000433211)
(0.119163 -0.000170804 -0.000218349)
(0.119283 -0.000274756 -0.000243925)
(0.120292 -0.000201325 -0.000474393)
(0.118112 -0.000191295 0.000224746)
(0.119445 -0.000135638 0.00010723)
(0.113318 -4.03639e-05 -3.53271e-05)
(0.114993 -0.000185176 1.712e-05)
(0.114652 -1.33487e-05 3.19047e-05)
(0.11757 -0.000247397 0.000214485)
(0.11735 -0.000307652 -3.81452e-05)
(0.114057 -0.000356982 -0.000850087)
(0.114586 -0.000485207 -7.68956e-05)
(0.104714 -0.000370271 -0.000108571)
(0.11607 0.000413871 -0.000717425)
(0.117565 0.000186858 -0.000845566)
(0.112292 -0.000262164 -0.000445876)
(0.113908 -0.000477562 -7.37955e-05)
(0.116736 -0.000560609 -0.000144201)
(0.11349 -0.000365645 -0.000349328)
(0.116551 -0.000399368 -0.00018085)
(0.117999 0.000565782 5.68022e-05)
(0.117833 0.000773735 -6.23322e-05)
(0.116519 0.000950751 0.000344598)
(0.113553 0.000626698 0.000281042)
(0.116311 0.000301584 -0.000185114)
(0.11704 -4.41497e-05 -0.00028039)
(0.118997 0.000257004 -5.49007e-05)
(0.119528 -0.000171974 -2.15239e-05)
(0.119212 -0.000125243 5.02289e-05)
(0.113139 -0.000106843 7.0211e-05)
(0.117268 7.82335e-05 0.000213476)
(0.116914 0.000322793 0.000134462)
(0.118159 6.99405e-05 0.000129768)
(0.112795 3.98983e-05 -0.00020392)
(0.113899 -0.000677814 0.000139725)
(0.114411 -0.000243487 -1.45292e-07)
(0.113371 -0.000846187 -0.00026144)
(0.105101 -0.000566451 0.000166943)
(0.118659 0.000237591 0.000134849)
(0.118736 -7.28845e-05 0.000120655)
(0.116731 9.65991e-05 -0.000295671)
(0.118876 -0.000204045 -0.000166447)
(0.118625 0.000133565 0.0002129)
(0.117294 -0.000111688 0.00031168)
(0.117205 0.000484294 0.000109707)
(0.116018 -0.000305847 -0.000388078)
(0.112342 4.97699e-07 -0.000188947)
(0.112679 -3.12809e-05 -0.000241946)
(0.114254 -0.000321544 -0.000282118)
(0.113446 9.37109e-05 -0.00034361)
(0.105185 -5.14368e-05 4.45553e-05)
(0.11487 -2.80549e-05 -0.000270574)
(0.104934 -8.66368e-06 -0.000307165)
(0.119116 -0.00034671 -5.34187e-06)
(0.120624 -0.000129032 0.000272539)
(0.120721 -0.000249538 -5.78193e-05)
(0.106112 7.26255e-05 0.000229949)
(0.113468 -0.000509724 -0.000646408)
(0.114444 -0.000384682 -0.000273315)
(0.114023 -0.000670929 -0.000588352)
(0.104402 -0.000311887 -0.000859714)
(0.113364 0.00058634 -0.000125863)
(0.11649 0.000435478 -3.91651e-05)
(0.112792 -0.000179287 0.000579328)
(0.111801 0.000120969 0.000271307)
(0.113396 0.00039249 0.000554723)
(0.1051 -0.000120863 0.000280136)
(0.119288 -0.000857502 0.000223463)
(0.117408 -0.000875817 0.000441421)
(0.117737 -0.0007119 0.00032889)
(0.119343 -0.000786887 0.000133836)
(0.115885 -0.000245169 -0.00060596)
(0.114926 -0.000263366 -0.000272702)
(0.114271 -0.00013889 -0.000254631)
(0.104791 0.000110174 -0.000267264)
(0.11851 0.000218069 -0.000210531)
(0.117666 0.000191607 -0.000215202)
(0.118104 -0.000444712 -0.000196603)
(0.114233 5.02467e-05 -0.000373313)
(0.114833 -0.000406917 -0.000455028)
(0.114793 -0.000392262 -0.000561006)
(0.117257 -0.000453463 -0.000568591)
(0.118822 0.000106869 -0.000474799)
(0.118681 0.000158799 -0.00048134)
(0.117824 0.000198933 -0.00041624)
(0.112865 0.000401863 -0.00057835)
(0.114259 -1.14418e-05 7.07282e-05)
(0.112648 -0.000357386 0.000122337)
(0.113547 -0.000448034 0.000428905)
(0.104946 -0.000347643 -1.10767e-05)
(0.118279 0.000426428 0.000118759)
(0.114622 0.000366414 -0.000363142)
(0.114377 -0.00011334 -3.18542e-05)
(0.117809 -0.000638769 -5.21198e-05)
(0.114584 -0.000429176 5.72994e-05)
(0.117573 -0.000496298 0.000278956)
(0.119073 4.91467e-05 -2.14879e-05)
(0.117555 -4.35503e-05 -0.000201488)
(0.118939 -2.77937e-05 -0.000197681)
(0.118462 0.000121051 0.000200066)
(0.118558 -0.000219562 2.28783e-06)
(0.113499 -0.000242283 9.28923e-05)
(0.117251 -0.000411407 -0.000150918)
(0.117641 -0.000134597 -0.000368564)
(0.118843 -5.38134e-05 -0.00020007)
(0.117981 -0.000299681 -8.06353e-05)
(0.11831 -0.000349189 0.000285969)
(0.119637 -0.000206564 0.000198357)
(0.120215 -0.000359501 0.000171219)
(0.118649 4.36132e-05 -0.000536969)
(0.118577 -1.88767e-05 -0.000516957)
(0.120322 8.33741e-05 -0.000604775)
(0.116989 0.000240121 -0.000448574)
(0.118554 0.000179527 -0.00030807)
(0.118875 -9.25423e-05 -0.000648925)
(0.11576 -0.000681566 -0.00023805)
(0.119655 0.000226636 -0.000620118)
(0.117807 -0.000320095 0.000230693)
(0.119346 0.000132515 0.000382752)
(0.119266 7.47293e-06 0.000171694)
(0.119441 -0.000238433 0.000182437)
(0.117981 7.975e-05 7.45031e-05)
(0.118665 -0.000146522 0.000178406)
(0.112603 -4.52338e-05 2.15362e-05)
(0.113248 -7.18004e-05 -0.000516504)
(0.113305 -0.00026303 -0.000277544)
(0.113918 -0.000649995 -0.000294116)
(0.116827 -0.000563989 -0.000299352)
(0.117104 -0.000490645 -0.000335867)
(0.118249 -0.000398905 0.000112691)
(0.118012 -0.000308843 -6.7173e-05)
(0.119869 -0.000239776 -0.000303248)
(0.119875 -0.00023399 1.3233e-05)
(0.119252 -0.00012618 -0.000294831)
(0.117862 -0.000309811 -0.000405104)
(0.117578 0.000114347 -0.00023044)
(0.119183 0.000214794 -0.000107905)
(0.119041 0.000337011 -0.00034851)
(0.120119 6.06493e-05 -0.000588183)
(0.119402 0.000155804 -0.000155805)
(0.120066 -7.00364e-05 -0.000539509)
(0.119073 -0.000346932 -1.55735e-05)
(0.118357 -0.000104649 -1.48971e-05)
(0.117318 -0.000728728 0.000188433)
(0.119493 -0.0004897 6.3979e-05)
(0.118557 -0.000113194 4.17481e-05)
(0.115474 -0.000126736 -0.000352341)
(0.119295 -9.71581e-05 -2.00639e-05)
(0.115264 8.57004e-05 -0.000633331)
(0.119397 -6.52191e-05 -6.30233e-05)
(0.120179 -0.000155649 -0.000410376)
(0.119096 -1.23413e-05 -0.000290207)
(0.119101 -1.27515e-05 0.000227897)
(0.113025 -1.95853e-05 -8.71263e-05)
(0.112807 -0.000203259 -0.000420491)
(0.105977 -9.27518e-05 -0.00028998)
(0.11334 -0.000593422 -0.000761805)
(0.104786 -0.000357354 -0.000189271)
(0.120317 0.000233203 0.00066736)
(0.118683 0.000250169 0.000190389)
(0.117714 -0.000413725 -0.000379685)
(0.112999 -0.000283433 -0.000269692)
(0.118849 -4.40531e-05 -0.000680677)
(0.118605 -8.80763e-05 -0.000482291)
(0.117583 -0.000213748 -0.000283818)
(0.112572 -0.000176536 -0.000322258)
(0.120002 0.000327721 0.000593117)
(0.120052 0.000113093 0.000620893)
(0.120123 0.000176841 0.000554931)
(0.119183 0.000289666 0.000597668)
(0.118649 0.000598193 0.000247408)
(0.11869 0.000406233 0.000179507)
(0.119743 0.000488314 0.000170855)
(0.112535 -0.000155984 -0.000343643)
(0.114111 -5.44482e-05 -0.000192331)
(0.10441 -0.000295343 -0.00039538)
(0.114965 0.000276832 -0.000339594)
(0.113969 -9.62002e-05 -0.000292063)
(0.113291 0.000230798 -0.000384681)
(0.105174 -8.01652e-05 -0.000670782)
(0.119694 -7.96995e-05 3.38649e-05)
(0.118195 -0.000229402 -0.000389442)
(0.119767 -0.000363227 -0.000116283)
(0.116994 -0.000146347 -0.000275809)
(0.118742 -0.00027921 -0.000359079)
(0.113733 -0.000251111 -0.000474118)
(0.114305 -0.000177215 -0.000581668)
(0.105144 -0.00031026 -0.000353733)
(0.115043 -0.000286158 -0.000154477)
(0.113105 -3.8648e-05 -2.28538e-05)
(0.112761 -1.2296e-05 0.000196449)
(0.106109 -0.000112001 9.15929e-05)
(0.119937 -0.0005182 0.000119852)
(0.118667 -0.00035511 0.000325525)
(0.118498 -0.000313189 -2.93545e-05)
(0.119889 -0.00026492 -9.5586e-05)
(0.114731 -7.03737e-05 -0.00112218)
(0.114528 0.000109004 -0.000714906)
(0.117052 -0.000148414 -0.000745225)
(0.105528 -0.000191025 -0.000998978)
(0.117343 0.000239567 0.000183632)
(0.117797 -0.000373198 0.000206942)
(0.117639 -0.000108112 0.000240382)
(0.113057 -0.000156942 0.000275406)
(0.115007 -0.000450819 -0.000370463)
(0.117798 -0.000186585 -0.000560587)
(0.117636 3.00733e-05 -0.00070575)
(0.118266 -0.000108557 -0.000111395)
(0.119874 -0.000159708 3.71097e-05)
(0.11897 3.66001e-05 0.000306741)
(0.11551 0.00025714 -0.000952126)
(0.11342 0.000436653 -0.000647132)
(0.115046 0.000835012 -0.000714886)
(0.104079 -0.000243878 -0.000729856)
(0.120917 -5.75087e-05 6.65889e-05)
(0.120787 -0.000162824 4.49798e-05)
(0.119158 2.11482e-05 -1.30428e-05)
(0.120806 4.26548e-05 4.49701e-05)
(0.119012 -3.46376e-05 -0.000451542)
(0.116672 -0.000104685 -0.000320552)
(0.116217 3.50024e-05 -0.000621831)
(0.118793 -0.000184797 -0.000203557)
(0.115737 -0.000928197 -0.000322536)
(0.116067 -0.000834591 -3.74444e-05)
(0.105322 -0.000305367 -0.000437445)
(0.114771 -0.000616243 0.000842802)
(0.113672 -0.000248759 0.00078512)
(0.115257 -0.000554719 0.000551401)
(0.10416 3.4683e-05 0.000160791)
(0.117409 -0.000311744 -7.47204e-05)
(0.113153 -0.000289936 -2.79646e-05)
(0.11513 -0.000288681 -0.000716588)
(0.120744 -0.000141353 -0.000198953)
(0.119512 -0.000121511 -0.000301958)
(0.113523 0.000268443 0.000275423)
(0.112779 0.000136899 0.000233879)
(0.114446 -0.000115639 -9.02918e-05)
(0.104337 -9.08457e-05 0.000209586)
(0.115576 -0.000173656 -0.000769684)
(0.115441 0.000339371 -0.000491697)
(0.10537 -0.000360109 -0.000849306)
(0.112877 -0.000168958 0.000268734)
(0.115113 -3.1235e-05 0.000271844)
(0.113166 -0.000406122 8.35368e-05)
(0.105577 -0.000226052 0.000100115)
(0.113022 -0.000882561 -0.000222308)
(0.115333 -0.000713421 0.000355253)
(0.114061 -0.000989213 -0.000151326)
(0.103912 -0.000519884 -0.000265841)
(0.11576 0.000246188 -0.000398869)
(0.117005 0.000120806 7.15965e-05)
(0.117305 -0.000131158 -0.000169653)
(0.111976 2.30225e-05 -8.61158e-05)
(0.113789 0.000413988 0.000127658)
(0.113082 0.000241825 0.000260188)
(0.105514 0.0001177 0.000201242)
(0.119673 -0.000553705 6.66015e-06)
(0.119258 -0.00039788 0.000112104)
(0.119959 -0.000478904 -3.33996e-05)
(0.119593 -0.000464029 0.000148604)
(0.118719 -0.000281188 0.000210187)
(0.118832 -0.000195218 3.05265e-05)
(0.120334 -0.000289535 0.000220987)
(0.120596 -0.000290218 0.000266093)
(0.111855 0.000169275 -0.000944042)
(0.111966 0.000118816 -0.000357562)
(0.113744 0.000178011 -0.000540988)
(0.106134 -0.000234552 -0.000455726)
(0.114606 -0.000381856 0.000434181)
(0.115286 -0.00108732 1.85879e-05)
(0.115317 -0.000533793 0.000162715)
(0.108243 -0.000415735 0.000107701)
(0.116692 0.000789537 -0.00024915)
(0.118191 0.000480576 -0.000439415)
(0.118223 0.000419226 -0.000615723)
(0.113752 0.000177969 -0.000705546)
(0.114847 -8.72308e-06 5.11641e-05)
(0.112631 -7.67378e-05 -7.5275e-05)
(0.112095 -0.000240455 -0.000219816)
(0.105611 0.00011244 -0.000101122)
(0.118876 -5.04571e-05 0.00042037)
(0.113808 3.4229e-05 8.89865e-06)
(0.118749 -0.000418685 -0.000381271)
(0.12001 -6.24925e-05 -0.000395605)
(0.119282 -0.000114133 -0.000192664)
(0.119121 -7.26728e-05 -0.000222358)
(0.117773 0.000382877 4.2847e-05)
(0.116738 0.000339911 0.00013215)
(0.1135 0.000459458 0.000281668)
(0.119405 0.000151902 1.67383e-05)
(0.11859 0.000189613 0.000371842)
(0.119314 0.000121366 0.000371517)
(0.119295 0.00024308 0.000321273)
(0.119299 -0.000116034 -4.01544e-05)
(0.119171 -0.000366596 -0.000102127)
(0.113299 -0.000259768 -0.00011495)
(0.117827 -0.000131413 -0.000261322)
(0.116798 -0.000244277 -3.9173e-05)
(0.117807 -0.000256466 4.08085e-05)
(0.11172 -4.38493e-05 -0.000327577)
(0.117938 -2.05904e-05 -6.01852e-05)
(0.118213 0.00025707 4.38284e-05)
(0.113007 0.000156576 0.000128946)
(0.114345 -0.000473292 0.000575714)
(0.117513 -0.000443982 0.000417309)
(0.117706 -0.000704264 0.000537919)
(0.116185 3.54842e-05 0.000203434)
(0.117573 -0.000303477 -0.000103686)
(0.117684 -0.000213939 8.07807e-05)
(0.112791 -3.56735e-05 0.000229149)
(0.114294 0.000416228 -6.67622e-05)
(0.111867 0.000334771 -0.000428134)
(0.104547 0.000887017 -0.000416157)
(0.118598 -7.80634e-05 -1.36237e-05)
(0.119859 3.69701e-05 -0.000160048)
(0.120324 0.000522758 -0.00022326)
(0.117301 -0.000243952 0.000215866)
(0.117621 -0.000205931 0.000429806)
(0.111587 -0.000514528 0.000553046)
(0.118826 0.000318278 0.000129407)
(0.119646 -9.48144e-07 0.000103985)
(0.119521 0.000258702 -4.41085e-05)
(0.119658 0.00030808 -6.1691e-06)
(0.114311 -5.67975e-05 -0.000113397)
(0.115003 -0.000159086 0.000136305)
(0.114499 -0.000368951 -1.17496e-05)
(0.10445 0.000105367 5.86716e-05)
(0.112822 3.63609e-05 0.00035452)
(0.112657 -0.000182571 0.000322325)
(0.113937 -9.63604e-05 0.000538014)
(0.104877 -0.000255789 0.000310542)
(0.118359 -0.000237871 -0.000305803)
(0.119215 -0.000161037 0.000182981)
(0.120046 -0.000314456 -1.72709e-05)
(0.119742 -1.65975e-05 0.000167988)
(0.118477 -0.000330223 -0.000299592)
(0.119639 -1.90871e-06 -0.000377931)
(0.118115 0.000128349 -0.000300297)
(0.116274 -0.000184024 0.000679091)
(0.118245 -0.00022651 0.000166356)
(0.117845 -0.00014686 0.000332241)
(0.116752 -0.000215076 0.000677489)
(0.117221 -0.000129927 0.000151047)
(0.118586 -0.000336548 2.81777e-05)
(0.113255 -9.10186e-05 0.000255044)
(0.118934 -0.000181137 -0.000564058)
(0.119065 6.91304e-05 -0.000461509)
(0.117359 -2.69325e-05 -0.000210242)
(0.113006 0.000213963 -0.000432441)
(0.117982 -3.82755e-05 -0.000626153)
(0.114936 -0.000124686 -0.000603697)
(0.117867 0.000144591 -0.000479921)
(0.114838 0.00026343 0.000273281)
(0.117864 0.000387097 0.000412802)
(0.11559 0.000139776 0.000607431)
(0.11819 0.000270039 0.000304355)
(0.119758 0.000146648 -0.000455162)
(0.117582 0.000312974 -0.000483153)
(0.118083 -0.000120181 -0.000700992)
(0.114817 1.36666e-05 -1.58882e-05)
(0.10526 -0.000101285 -0.000270007)
(0.114544 7.3651e-05 -5.05118e-05)
(0.117268 -0.000108663 -6.42135e-05)
(0.120133 0.000319103 7.55859e-06)
(0.119953 3.67223e-05 2.24943e-06)
(0.119401 0.000151118 0.000167029)
(0.120042 9.06172e-05 0.00025577)
(0.11912 -0.000465667 -2.27658e-05)
(0.119114 -0.000571168 -0.000184892)
(0.118984 -0.000476021 -0.000128743)
(0.119163 -0.00050217 -0.000307105)
(0.119157 -0.000529555 9.52526e-05)
(0.118934 -0.000585156 8.45031e-05)
(0.11734 -0.000526331 0.00025315)
(0.116538 -0.00107332 0.000129446)
(0.118428 -0.00103863 -0.000179505)
(0.11782 -0.000981637 -0.00040705)
(0.116661 -0.000135271 -0.000262503)
(0.116553 0.000138076 -0.000494339)
(0.11317 4.9278e-06 0.000184782)
(0.119062 0.000178865 -0.00039979)
(0.113762 -8.75873e-05 -0.000321389)
(0.116608 0.000533626 -0.000373676)
(0.116729 0.000559044 -0.000540197)
(0.117698 0.000113075 -0.000397785)
(0.112605 -4.63675e-05 -0.000352352)
(0.119605 0.000153489 -0.000264254)
(0.118218 0.000267094 -0.00029147)
(0.118796 7.07238e-05 -0.000424604)
(0.105413 8.58377e-06 -0.000179652)
(0.117621 0.000116501 -0.00020668)
(0.113493 -7.90951e-05 -0.000101435)
(0.115218 0.000163338 -0.000145879)
(0.1177 0.000219151 0.00018282)
(0.114933 0.000244363 -0.000150821)
(0.117971 0.000479357 -3.70682e-05)
(0.118228 3.11851e-07 -0.000285407)
(0.117745 6.33908e-06 -0.0003705)
(0.117424 5.88861e-05 -6.39983e-05)
(0.114041 0.000196952 -0.000354246)
(0.119729 -5.36665e-05 -0.000388155)
(0.118263 -0.000152563 -0.000553508)
(0.11925 -0.000254048 -0.000541588)
(0.11798 -0.000371213 -0.000431046)
(0.117723 -0.00051848 -0.000387818)
(0.119548 -0.000362945 -0.000249021)
(0.11872 -0.000398956 -0.000124476)
(0.119397 0.000174979 -0.000402837)
(0.119634 -0.000108931 -0.000313912)
(0.113775 -0.000643122 -0.000407452)
(0.11468 -0.000833947 -0.00045178)
(0.104569 -8.84954e-05 -0.000380638)
(0.11682 -0.00057065 0.000255921)
(0.118171 -0.000372434 4.70207e-06)
(0.119796 -0.000331293 -0.000192911)
(0.117949 -0.000167017 -0.000241559)
(0.119947 -0.000369434 -0.000163845)
(0.119656 -4.04553e-05 0.000145798)
(0.119413 7.49821e-05 -0.000121965)
(0.118742 0.00023887 0.000219351)
(0.115498 -0.000223423 -0.00046265)
(0.118944 -0.000246999 -0.000550769)
(0.110823 0.000211384 0.000182418)
(0.112617 -0.000208005 0.000658761)
(0.112354 -0.000344631 0.000328036)
(0.10319 -0.000399183 0.000392454)
(0.118658 -0.000427797 8.4255e-06)
(0.117991 -0.000485663 0.000226215)
(0.11408 -0.00042868 0.000720454)
(0.112484 -0.000888053 -0.000326741)
(0.105625 -0.000436444 -0.000207196)
(0.117139 0.000327037 -0.000186379)
(0.117323 0.000434432 0.00015927)
(0.102635 0.000107433 -0.000217906)
(0.118119 -0.000197157 0.000318404)
(0.119899 -0.000332321 0.000311121)
(0.113265 -0.000260507 0.000242642)
(0.115612 0.00032821 0.000288054)
(0.116244 -0.000234611 3.28894e-05)
(0.113978 0.000426866 -0.00020559)
(0.114084 0.000187161 -0.000271833)
(0.114472 0.000342946 -0.000517746)
(0.104413 3.57677e-05 -0.000115153)
(0.117883 -0.000106571 0.000131516)
(0.117332 -3.44818e-05 0.000161555)
(0.116824 -2.84775e-05 0.000223739)
(0.118595 0.000596413 -0.000242357)
(0.119404 0.000619433 -0.000226104)
(0.116815 3.40022e-05 -0.000162993)
(0.117602 -2.44827e-05 -0.000306281)
(0.119551 -0.000490444 -0.000198062)
(0.11915 9.4016e-05 0.000241296)
(0.114792 -0.000474439 -4.67256e-05)
(0.114593 -0.000225247 -0.000108352)
(0.103882 -0.00023111 7.94679e-05)
(0.113386 -0.000788259 0.000129676)
(0.112198 -0.000509825 0.000460145)
(0.1053 -0.000486966 0.00011996)
(0.118941 -0.000640948 0.000275534)
(0.117362 -0.000165725 0.000451134)
(0.118365 -0.000464629 0.000519636)
(0.117207 -0.000314482 4.64867e-05)
(0.119215 0.00020193 -0.000604636)
(0.120023 7.8379e-05 -0.00058867)
(0.117966 0.000220489 -0.000448394)
(0.114087 0.000483562 0.000105289)
(0.114804 0.000185646 2.87434e-05)
(0.10371 0.000311097 -0.0004286)
(0.11951 -0.000658363 8.08134e-05)
(0.119481 -0.000697279 0.000282001)
(0.119269 -0.000537981 0.000254745)
(0.116297 -6.25036e-05 -0.000204074)
(0.114271 0.000130003 -0.000463181)
(0.105527 1.19666e-06 -0.000366685)
(0.112738 -0.00017531 0.000190237)
(0.112729 -0.000431456 8.23692e-05)
(0.106016 -0.000241083 -4.73507e-05)
(0.117285 0.000195871 -0.000350977)
(0.116985 0.000165162 -0.000268826)
(0.118255 0.000293465 -7.77021e-05)
(0.113265 -0.000185632 -0.000281485)
(0.117336 -0.000262061 -0.000284206)
(0.119047 -0.000391092 4.33144e-05)
(0.117162 -0.000242038 0.000396087)
(0.11851 -0.000260753 2.91292e-05)
(0.115957 -0.000990652 0.000297806)
(0.117446 -0.000759228 7.59297e-05)
(0.117555 -0.000751478 -3.41718e-05)
(0.111515 -0.000725725 -8.92258e-05)
(0.113042 -0.000261811 0.000525393)
(0.11645 7.10562e-05 0.000488005)