/*--------------------------------*- C++ -*----------------------------------*\
| =========                 |                                                 |
| \\      /  F ield         | OpenFOAM: The Open Source CFD Toolbox           |
|  \\    /   O peration     | Version:  2212                                  |
|   \\  /    A nd           | Website:  www.openfoam.com                      |
|    \\/     M anipulation  |                                                 |
\*---------------------------------------------------------------------------*/
FoamFile
{
    version     2.0;
    format      ascii;
    arch        "LSB;label=32;scalar=64";
    class       volScalarField;
    location    "0.026";
    object      epsilon;
}
// * * * * * * * * * * * * * * * * * * * * * * * * * * * * * * * * * * * * * //

dimensions      [0 2 -3 0 0 0 0];

internalField   nonuniform List<scalar> 
31639
(
1.27011
1.26351
1.27506
1.27409
1.27931
1.26187
1.29285
1.27967
1.27152
1.2715
1.27854
1.27163
1.26343
1.26341
1.25422
1.28794
1.27359
1.27567
1.26405
1.26218
1.30321
1.27889
1.27211
1.27329
1.27929
1.27123
1.25912
1.07639
1.28141
1.2773
1.26999
1.27707
1.26967
1.27759
1.30293
1.27694
1.29486
1.27962
1.27191
1.30901
1.29035
1.29075
1.26516
1.27559
1.28139
1.26966
1.26227
1.27381
1.26964
1.27266
1.26859
1.29186
1.28421
1.31083
1.2698
1.27713
1.29809
1.26658
1.26193
1.29891
1.27045
1.27835
1.29558
1.25856
1.27064
1.26884
1.26028
1.26589
1.29844
1.27081
1.2736
1.24256
1.26476
1.2627
1.28193
1.30499
1.26887
1.27551
1.25755
1.27938
1.27424
1.31069
1.27029
1.27023
1.25504
1.26956
1.27304
1.27184
1.28166
1.27605
1.26552
1.26911
1.28997
1.25917
1.26749
1.25797
1.27001
1.2622
1.26684
1.29814
1.27614
1.27039
1.25226
1.29569
1.28825
1.27249
1.29582
1.30094
1.28281
1.30784
1.24693
1.29109
1.26686
1.27742
1.2597
1.30105
1.29081
1.28682
1.28266
1.26339
1.27277
1.27167
1.26249
1.2697
1.27662
1.27544
1.26685
1.27623
1.27597
1.26379
1.26434
1.25545
1.25581
1.27523
1.26994
1.26493
1.29494
1.29768
1.26845
1.26554
1.26345
1.2711
1.27213
1.29332
1.3086
1.26706
1.27073
1.29974
1.29211
1.27275
1.2977
1.27655
1.26714
1.2695
1.29558
1.2706
1.26871
1.29985
1.27721
1.27399
1.26866
1.30223
1.29882
1.30083
1.30382
1.25626
1.30265
1.27364
1.26869
1.28556
1.23998
1.25625
1.29857
1.26365
1.27065
1.27354
1.26729
1.27532
1.26582
1.25439
1.25885
1.25895
1.24181
1.30607
1.27759
1.27362
1.23992
1.2739
1.30577
1.29174
1.28424
1.27549
1.26194
1.2603
1.26048
1.27228
1.28284
1.26471
1.29001
1.27243
1.26917
1.2805
1.24321
1.24619
1.28251
1.26547
1.25679
1.25175
1.27347
1.3097
1.26391
1.28015
1.27276
1.27207
1.27736
1.26469
1.29404
1.28586
1.28147
1.27142
1.26387
1.28003
1.29703
1.28081
1.29944
1.28988
1.27604
1.28383
1.29735
1.27352
1.26949
1.27468
1.28294
1.30534
1.26136
1.26425
1.28129
1.26084
1.30292
1.29271
1.25671
1.25737
1.25283
1.27846
1.30865
1.27359
1.25161
1.25288
1.27529
1.26503
1.24342
1.30936
1.28717
1.27259
1.27666
1.28318
1.29486
1.26366
1.26108
1.28647
1.27372
1.26787
1.28001
1.27147
1.25985
1.27615
1.28293
1.27398
1.24894
1.24578
1.25216
1.27131
1.28089
1.28784
1.2754
1.27111
1.29015
1.27698
1.28876
1.26785
1.27403
1.27718
1.2764
1.28187
1.28803
1.31044
1.29276
1.30263
1.26118
1.29074
1.28668
1.25122
1.27081
1.29059
1.28074
1.27614
1.31286
1.27057
1.29224
1.31524
1.26723
1.27874
1.26169
1.25314
1.30088
1.27091
1.25269
1.29142
1.30569
1.26726
1.27442
1.25522
1.2993
1.30799
1.26747
1.28255
1.26884
1.2744
1.27541
1.25637
1.26821
1.27191
1.29371
1.26577
1.30714
1.31069
1.27204
1.26518
1.2655
1.27055
1.27103
1.28867
1.24545
1.2542
1.2757
1.28667
1.27968
1.26109
1.24185
1.27523
1.26739
1.25986
1.2525
1.26149
1.25438
1.2635
1.26818
1.23988
1.30014
1.28696
1.27829
1.27444
1.28412
1.25646
1.25849
1.29666
1.25567
1.26263
1.30253
1.2785
1.29224
1.27981
1.27105
1.29702
1.26573
1.2624
1.29864
1.26974
1.29906
1.26352
1.2807
1.28033
1.30632
1.26924
1.29016
1.26904
1.26763
1.27458
1.28298
1.30019
1.25532
1.29002
1.25709
1.29664
1.26626
1.26183
1.27004
1.26869
1.26835
1.2833
1.26784
1.27583
1.26083
1.31488
1.26357
1.2581
1.2529
1.25616
1.26845
1.27528
1.26607
1.30691
1.2817
1.27128
1.26357
1.29708
1.27588
1.26839
1.26608
1.2473
1.25884
1.28233
1.26002
1.28289
1.26798
1.27097
1.30269
1.2741
1.27098
1.30155
1.28847
1.29474
1.29075
1.31161
1.26688
1.24999
1.28762
1.28744
1.29474
1.26316
1.27
1.26279
1.26177
1.27159
1.27795
1.27084
1.29356
1.26663
1.26035
1.29662
1.26205
1.27912
1.26986
1.27328
1.27576
1.25031
1.27
1.27095
1.27118
1.2844
1.29145
1.26644
1.30062
1.29388
1.25859
1.30305
1.31683
1.27424
1.25729
1.26987
1.30194
1.26994
1.28832
1.25725
1.27518
1.0712
1.25577
1.31
1.25382
1.26616
1.28023
1.26085
1.27613
1.27443
1.27183
1.2552
1.26341
1.30233
1.3049
1.2603
1.29958
1.29439
1.26577
1.30453
1.2717
1.28563
1.27668
1.28549
1.27107
1.2667
1.26756
1.26357
1.31048
1.27379
1.2752
1.27575
1.27779
1.26571
1.26444
1.28762
1.2809
1.26878
1.26952
1.25696
1.26764
1.27028
1.26365
1.295
1.3164
1.27042
1.28682
1.26815
1.26007
1.2836
1.29531
1.26605
1.27272
1.28629
1.2635
1.29174
1.26118
1.27847
1.27809
1.31166
1.29162
1.28783
1.25129
1.25418
1.29025
1.26974
1.27965
1.26414
1.26348
1.25828
1.27484
1.30106
1.26792
1.26028
1.28726
1.2646
1.28296
1.25511
1.25944
1.08915
1.29564
1.25886
1.26417
1.29694
1.29304
1.2671
1.25486
1.27146
1.30306
1.28249
1.2716
1.2609
1.28481
1.30759
1.27006
1.26873
1.29815
1.29249
1.27341
1.29647
1.26496
1.27709
1.29667
1.25823
1.29277
1.28455
1.31854
1.27439
1.2923
1.29016
1.26805
1.26889
1.26087
1.2645
1.29137
1.26394
1.27225
1.26994
1.32399
1.30165
1.29803
1.25692
1.26385
1.27939
1.26268
1.25822
1.28631
1.26337
1.28015
1.29141
1.29036
1.26516
1.27123
1.29532
1.30133
1.29919
1.27026
1.26812
1.27354
1.258
1.28321
1.2647
1.26759
1.2941
1.2691
1.28303
1.25885
1.25798
1.30781
1.26971
1.27259
1.07192
1.29684
1.31466
1.28323
1.26377
1.26536
1.26605
1.26136
1.26734
1.26411
1.26456
1.3026
1.26596
1.31157
1.2665
1.27762
1.28182
1.27544
1.26132
1.28795
1.29398
1.31831
1.27808
1.26565
1.27122
1.27039
1.29378
1.26287
1.30031
1.25429
1.27377
1.27327
1.26836
1.2564
1.26613
1.2894
1.28248
1.27987
1.27883
1.30311
1.25915
1.28563
1.27427
1.29342
1.26252
1.29261
1.25869
1.28868
1.26524
1.28761
1.28364
1.26667
1.25625
1.28329
1.2543
1.28674
1.3145
1.31503
1.31322
1.28631
1.2705
1.31117
1.24286
1.2726
1.3002
1.27508
1.30202
1.2611
1.25033
1.2639
1.27058
1.26499
1.26426
1.2768
1.26232
1.2532
1.27949
1.27305
1.28783
1.07774
1.27357
1.26153
1.27095
1.27373
1.29605
1.27282
1.27794
1.26682
1.25999
1.26301
1.26573
1.27139
1.27389
1.27066
1.27559
1.27263
1.30001
1.27057
1.27369
1.2758
1.24621
1.25606
1.27053
1.28181
1.26562
1.27078
1.29136
1.31443
1.2679
1.26958
1.28039
1.3065
1.26012
1.28648
1.25171
1.28501
1.25321
1.28777
1.2733
1.28632
1.30017
1.26234
1.29675
1.28412
1.29196
1.25974
1.25851
1.25397
1.26592
1.24534
1.27163
1.28621
1.25806
1.29619
1.2596
1.27183
1.25659
1.30493
1.25635
1.25951
1.25896
1.28545
1.26799
1.26322
1.26357
1.28979
1.29788
1.25132
1.28554
1.26442
1.27685
1.27121
1.2581
1.29156
1.24988
1.26491
1.28226
1.28277
1.24701
1.29271
1.29739
1.30217
1.27879
1.28832
1.27396
1.27166
1.29013
1.25429
1.2568
1.26825
1.27873
1.26648
1.30429
1.26046
1.28299
1.27886
1.2722
1.26927
1.27337
1.27885
1.25896
1.28827
1.27789
1.28588
1.26105
1.27813
1.2654
1.25633
1.29668
1.24105
1.27957
1.26269
1.28881
1.27097
1.27677
1.2756
1.24424
1.28119
1.2722
1.27666
1.27979
1.29101
1.25723
1.27192
1.30306
1.27628
1.26125
1.2748
1.25747
1.26647
1.25595
1.26245
1.25836
1.26771
1.26038
1.27902
1.26615
1.27951
1.2965
1.26866
1.31413
1.26102
1.27436
1.25892
1.26533
1.27952
1.3043
1.27698
1.29688
1.26642
1.29401
1.25768
1.25917
1.26773
1.29582
1.26876
1.27497
1.29095
1.27613
1.27847
1.3034
1.27714
1.27444
1.2664
1.2615
1.26705
1.25884
1.29672
1.26622
1.28067
1.27608
1.27395
1.27908
1.29825
1.29282
1.27061
1.2768
1.26439
1.28616
1.27205
1.25319
1.2763
1.2708
1.28609
1.30547
1.27158
1.25999
1.27903
1.29624
1.25274
1.26773
1.29903
1.30027
1.27838
1.27714
1.24621
1.27629
1.25521
1.27408
1.3025
1.27745
1.25806
1.26332
1.27222
1.25707
1.27521
1.25521
1.24725
1.26374
1.28231
1.26371
1.26452
1.27828
1.26453
1.30034
1.25626
1.26059
1.29747
1.26442
1.27131
1.25777
1.2753
1.2747
1.30998
1.30817
1.27053
1.28726
1.25205
1.26762
1.25913
1.27314
1.29112
1.26368
1.28516
1.2792
1.28308
1.25519
1.26458
1.27228
1.31168
1.27136
1.27391
1.26302
1.27532
1.31467
1.28135
1.26461
1.26635
1.2768
1.25676
1.29316
1.26403
1.28762
1.26226
1.25156
1.28477
1.29449
1.26794
1.29588
1.29652
1.27848
1.25921
1.27993
1.27912
1.28128
1.28604
1.30627
1.26986
1.28957
1.2726
1.29154
1.29963
1.29044
1.29731
1.26566
1.27699
1.26625
1.31479
1.28855
1.25678
1.27564
1.27113
1.26351
1.27848
1.25349
1.30124
1.30451
1.2819
1.26477
1.26735
1.27799
1.26608
1.2933
1.26684
1.2694
1.27835
1.2604
1.31635
1.27939
1.26455
1.26416
1.27891
1.28671
1.28369
1.26532
1.26597
1.29854
1.2758
1.29296
1.2745
1.27277
1.26192
1.30825
1.26017
1.28662
1.27529
1.26437
1.30807
1.26149
1.27656
1.26003
1.29098
1.28898
1.26286
1.24982
1.27835
1.27668
1.26791
1.26185
1.28975
1.28969
1.31018
1.31354
1.30776
1.29332
1.27037
1.30157
1.27503
1.26895
1.29374
1.26485
1.25705
1.2654
1.27156
1.27184
1.292
1.275
1.29636
1.29644
1.26295
1.25907
1.26024
1.25747
1.27861
1.28582
1.28161
1.26542
1.27978
1.27226
1.27771
1.28359
1.27909
1.27317
1.25654
1.26644
1.27022
1.26416
1.26473
1.26702
1.26571
1.26845
1.30841
1.32006
1.2602
1.29769
1.29629
1.28054
1.2923
1.27017
1.27523
1.30612
1.27854
1.26084
1.27433
1.27151
1.25331
1.31397
1.26462
1.29281
1.27561
1.26431
1.27158
1.31002
1.29402
1.294
1.27843
1.27763
1.27278
1.28137
1.27788
1.26084
1.27963
1.27011
1.27097
1.32467
1.29447
1.27264
1.28878
1.30095
1.27414
1.29653
1.27546
1.2821
1.28155
1.27272
1.26245
1.30178
1.27633
1.29931
1.25771
1.26468
1.28317
1.28945
1.278
1.27924
1.27481
1.26947
1.28761
1.2968
1.2621
1.32164
1.25558
1.26931
1.27207
1.25805
1.27918
1.29022
1.29216
1.26689
1.30598
1.26069
1.28772
1.27652
1.26464
1.2737
1.29833
1.3099
1.29741
1.28464
1.31558
1.25896
1.2606
1.29302
1.27328
1.27025
1.28023
1.28276
1.28684
1.2609
1.2669
1.28214
1.27611
1.28333
1.2646
1.28866
1.28235
1.29777
1.27189
1.29474
1.27483
1.28243
1.31885
1.30394
1.27648
1.26868
1.28743
1.32694
1.2698
1.26582
1.26543
1.30897
1.28537
1.26935
1.28251
1.29019
1.30782
1.28266
1.29999
1.29143
1.2769
1.27741
1.27524
1.26658
1.30783
1.30715
1.25934
1.28904
1.28341
1.29334
1.3167
1.26099
1.26064
1.29161
1.26013
1.27231
1.28074
1.27172
1.28322
1.27293
1.2618
1.30105
1.2666
1.27057
1.31496
1.27017
1.26595
1.28453
1.25856
1.20702
1.25985
1.26344
1.27321
1.31728
1.26148
1.27034
1.3075
1.26604
1.25525
1.29144
1.27106
1.30283
1.29843
1.2653
1.27476
1.2697
1.27951
1.26315
1.24821
1.25682
1.25699
1.25306
1.2875
1.29653
1.26143
1.27332
1.2754
1.29033
1.29655
1.29997
1.27974
1.31186
1.27453
1.28052
1.26913
1.30496
1.26006
1.32259
1.26528
1.31398
1.28407
1.28773
1.28643
1.26808
1.3
1.29352
1.27461
1.28752
1.29397
1.27028
1.29639
1.2573
1.28652
1.2672
1.29167
1.30306
1.26136
1.26383
1.2767
1.28405
1.27874
1.28026
1.26998
1.25601
1.26761
1.26906
1.26361
1.27228
1.2714
1.3036
1.25775
1.27998
1.25839
1.2663
1.27762
1.31342
1.26761
1.27497
1.28581
1.27459
1.28192
1.26356
1.25863
1.25825
1.26823
1.25977
1.27028
1.27908
1.28404
1.24702
1.26519
1.27747
1.30039
1.26722
1.2896
1.27161
1.29057
1.29822
1.25307
1.28732
1.30417
1.2778
1.26757
1.26931
1.27426
1.25629
1.28983
1.31954
1.32043
1.3011
1.27807
1.27227
1.28093
1.27332
1.31558
1.28706
1.27624
1.2693
1.30057
1.30327
1.27195
1.28469
1.29406
1.27028
1.3052
1.29705
1.30082
1.27659
1.25919
1.29418
1.27461
1.27833
1.29173
1.30357
1.2691
1.27502
1.27543
1.26459
1.28606
1.26008
1.28789
1.25314
1.29206
1.28037
1.28019
1.26439
1.27708
1.27311
1.27007
1.25169
1.2878
1.25689
1.25706
1.25963
1.25856
1.26194
1.29486
1.1376
1.26698
1.29574
1.27701
1.2697
1.25999
1.30104
1.26664
1.27862
1.31169
1.28824
1.26778
1.29158
1.28534
1.26662
1.26086
1.2701
1.27958
1.30156
1.26312
1.28512
1.27714
1.27124
1.26592
1.29877
1.27589
1.26535
1.29836
1.29221
1.30567
1.27279
1.26002
1.28431
1.27241
1.26676
1.25678
1.26058
1.29504
1.29967
1.29063
1.28786
1.31009
1.28718
1.28922
1.31484
1.26538
1.2816
1.30879
1.26416
1.2595
1.32011
1.31459
1.26811
1.28623
1.29098
1.28007
1.29968
1.29774
1.30056
1.2721
1.29516
1.30719
1.26923
1.25312
1.2615
1.29146
1.27261
1.26821
1.27946
1.03964
1.27754
1.28841
1.25821
1.286
1.2535
1.27393
1.25908
1.28209
1.26442
1.26131
1.26077
1.3065
1.2804
1.29723
1.27592
1.29325
1.27317
1.27839
1.27487
1.26261
1.27711
1.28482
1.27046
1.276
1.26441
1.26358
1.29925
1.25869
1.27149
1.27039
1.25649
1.28175
1.28437
1.28562
1.2599
1.29463
1.29177
1.27273
1.25757
1.26053
1.28305
1.27817
1.29945
1.28013
1.25852
1.2789
1.27319
1.25904
1.28506
1.27718
1.2869
1.29859
1.29678
1.30989
1.25649
1.26542
1.27214
1.25221
1.27846
1.28732
1.32693
1.26537
1.28202
1.27957
1.24422
1.26378
1.27107
1.28137
1.27726
1.10045
1.29155
1.28109
1.27324
1.26662
1.2907
1.27799
1.27587
1.2669
1.28239
1.26
1.29093
1.25985
1.26183
1.30118
1.26582
1.27575
1.28877
1.265
1.28064
1.29602
1.25912
1.27171
1.29953
1.2587
1.26232
1.26158
1.25621
1.27083
1.27006
1.27446
1.27942
1.3254
1.32802
1.26113
1.30162
1.28899
1.26956
1.29373
1.27117
1.266
1.29213
1.2773
1.26097
1.29801
1.27937
1.26885
1.28603
1.26526
1.28055
1.2971
1.27538
1.31087
1.32744
1.12144
1.27538
1.3026
1.26665
1.26946
1.29352
1.27633
1.29822
1.30623
1.25741
1.27692
1.29427
1.31223
1.26333
1.29424
1.25526
1.28081
1.28732
1.25784
1.3037
1.29817
1.25952
1.2815
1.31452
1.29983
1.283
1.28171
1.27347
1.25858
1.31977
1.28085
1.29778
1.32113
1.29454
1.29371
1.28565
1.28024
1.29221
1.26351
1.29773
1.30171
1.26073
1.2704
1.2681
1.3184
1.30901
1.27747
1.2667
1.25442
1.26511
1.27219
1.24923
1.25579
1.28658
1.27177
1.27862
1.28611
1.30808
1.26132
1.25846
1.27398
1.25567
1.27214
1.29712
1.28025
1.29606
1.3244
1.29617
1.3098
1.29122
1.26489
1.21387
1.29126
1.27105
1.26598
1.27322
1.27208
1.32962
1.26881
1.27504
1.28439
1.30437
1.27744
1.29777
1.27104
1.29301
1.29002
1.27853
1.30135
1.28388
1.25611
1.26623
1.27215
1.27409
1.28146
1.29946
1.27768
1.12285
1.26768
1.27492
1.27316
1.2871
1.24527
1.28121
1.27552
1.26996
1.26783
1.269
1.28025
1.26345
1.29604
1.28009
1.28013
1.26066
1.27995
1.26895
1.28178
1.28488
1.25571
1.28199
1.24659
1.25316
1.27846
1.28153
1.17142
1.25117
1.27904
1.27822
1.26959
1.26194
1.29884
1.27872
1.26802
1.26165
1.27056
1.26945
1.27323
1.25962
1.2646
1.2929
1.30522
1.26454
1.27263
1.27622
1.27232
1.29627
1.26609
1.31707
1.26721
1.26801
1.25327
1.2673
1.26921
1.25059
1.26594
1.29146
1.27317
1.2735
1.27981
1.28337
1.28797
1.25804
1.26856
1.26264
1.26458
1.27666
1.29121
1.26886
1.29014
1.27444
1.26965
1.27128
1.30296
1.29733
1.27221
1.2746
1.27068
1.27391
1.28813
1.29393
1.27331
1.26955
1.29976
1.28236
1.28226
1.26544
1.27736
1.27085
1.23398
1.27426
1.14599
1.28708
1.26625
1.26903
1.27911
1.2501
1.27583
1.31277
1.27713
1.28182
1.29075
1.29488
1.27337
1.285
1.27147
1.24969
1.29862
1.2553
1.27466
1.27271
1.27039
1.25908
1.27561
1.2358
1.27274
1.28326
1.28063
1.26409
1.31417
1.3116
1.28457
1.27358
1.29556
1.28863
1.27357
1.28723
1.3069
1.27243
1.28588
1.28626
1.30547
1.29596
1.27564
1.24204
1.265
1.27887
1.26432
1.28566
1.26841
1.28715
1.26727
1.29846
1.26052
1.25251
1.25909
1.26169
1.26686
1.26139
1.28995
1.26539
1.26885
1.29057
1.26726
1.25971
1.28131
1.27809
1.27778
1.26807
1.28278
1.26369
1.26852
1.27817
1.26654
1.25625
1.31384
1.24408
1.30215
1.27077
1.27009
1.2713
1.26317
1.27639
1.23855
1.27071
1.29294
1.28456
1.27624
1.27341
1.2643
1.30582
1.30033
1.26086
1.31897
1.26055
1.26888
1.30383
1.26041
1.28543
1.29089
1.28465
1.283
1.29773
1.29107
1.29918
1.27937
1.23887
1.31983
1.28274
1.27454
1.27272
1.2609
1.27439
1.25977
1.28333
1.28762
1.28143
1.2695
1.29026
1.28375
1.25615
1.26979
1.26903
1.28724
1.25189
1.26759
1.27988
1.2923
1.27315
1.2556
1.25476
1.27786
1.29607
1.26202
1.26744
1.27065
1.28488
1.33339
1.25725
1.27761
1.24669
1.26574
1.2785
1.29311
1.2654
1.27044
1.25803
1.24869
1.27417
1.29508
1.28497
1.26991
1.27276
1.20739
1.27931
1.27551
1.28912
1.26696
1.30623
1.26334
1.27544
1.26938
1.29305
1.27456
1.29471
1.27679
1.28482
1.27538
1.29168
1.29252
1.27621
1.26844
1.28879
1.2767
1.24763
1.30856
1.28145
1.27875
1.30823
1.27739
1.25567
1.28301
1.27133
1.28711
1.27754
1.24877
1.2703
1.30245
1.29589
1.08399
1.27162
1.25534
1.25578
1.26656
1.28282
1.28298
1.2531
1.27924
1.28503
1.26494
1.25354
1.28997
1.25133
1.24485
1.26512
1.30406
1.27016
1.2813
1.30382
1.24387
1.2592
1.27158
1.2537
1.27325
1.2714
1.29617
1.28326
1.30515
1.2576
1.25995
1.22643
1.25102
1.27065
1.29266
1.26344
1.26409
1.24658
1.28707
1.27274
1.27545
1.25555
1.27971
1.27414
1.28828
1.28616
1.30672
1.27531
1.28951
1.28655
1.26858
1.26525
1.29518
1.26571
1.27291
1.28483
1.26869
1.27521
1.24172
1.2637
1.3039
1.26601
1.25685
1.29348
1.26595
1.24542
1.25005
1.28034
1.30669
1.26886
1.26452
1.27274
1.26663
1.27419
1.30546
1.30611
1.27681
1.29782
1.26194
1.27697
1.28965
1.27815
1.26996
1.27427
1.28656
1.27903
1.28432
1.25567
1.26443
1.27931
1.27446
1.25555
1.28016
1.29974
1.25392
1.27905
1.25101
1.29526
1.28583
1.26444
1.06571
1.27236
1.25672
1.26376
1.2735
1.23321
1.27098
1.28026
1.30061
1.26691
1.29278
1.26095
1.25769
1.25939
1.25367
1.24709
1.26494
1.25584
1.28056
1.29517
1.26222
1.11273
1.27875
1.26799
1.246
1.25338
1.27253
1.26128
1.28864
1.24872
1.30211
1.26092
1.27828
1.26844
1.24264
1.25026
1.28432
1.26492
1.27111
1.26693
1.29134
1.28426
1.29654
1.29571
1.29671
1.3022
1.30042
1.28207
1.28062
1.30377
1.27359
1.24746
1.26207
1.23303
1.27516
1.25451
1.26664
1.2344
1.26729
1.25929
1.25915
1.25821
1.31902
1.25062
1.27968
1.25139
1.27451
1.26399
1.27382
1.27272
1.30954
1.28082
1.29971
1.26114
1.27188
1.29547
1.298
1.26813
1.28038
1.27644
1.27438
1.29479
1.26735
1.28937
1.276
1.1182
1.13763
1.23432
1.28602
1.27833
1.26843
1.29647
1.26767
1.26631
1.24527
1.26036
1.28845
1.271
1.06369
1.26714
1.27152
1.28641
1.25734
1.29716
1.28627
1.2839
1.26939
1.24668
1.24981
1.27472
1.25984
1.20262
1.27002
1.26098
1.26572
1.27211
1.28614
1.25352
1.25409
1.26446
1.11284
1.29575
1.24113
1.29359
1.28515
1.25745
1.26458
1.28009
1.28173
1.28601
1.26306
1.29091
1.07819
1.30211
1.27383
1.30466
1.27901
1.27735
1.28051
1.26868
1.27643
1.2834
1.28427
1.27903
1.27851
1.27867
1.27042
1.26559
1.26743
1.25616
1.27944
1.26528
1.28268
1.24632
1.25469
1.24564
1.2656
1.25973
1.26708
1.25588
1.29559
1.2544
1.25518
1.30875
1.26321
1.26213
1.28053
1.3002
1.27185
1.2764
1.30474
1.07994
1.28696
1.2611
1.32736
1.27434
1.32956
1.29509
1.27045
1.27451
1.297
1.27504
1.26539
1.14036
1.30261
1.27017
1.2709
1.32523
1.26445
1.31832
1.33623
1.28036
1.26538
1.28883
1.26439
1.27584
1.24932
1.27435
1.23646
1.29288
1.26492
1.25721
1.25197
1.28262
1.21321
1.27989
1.28537
1.26181
1.24752
1.27743
1.27721
1.26629
1.26159
1.26283
1.26806
1.26207
1.25948
1.25641
1.24011
1.25516
1.2758
1.27128
1.22517
1.20372
1.25748
1.2644
1.27972
1.23924
1.2507
1.279
1.26875
1.21551
1.28361
1.26871
1.26143
1.18844
1.26097
1.27151
1.26534
1.29567
1.27284
1.31082
1.2774
1.26876
1.30849
1.26177
1.26195
1.25852
1.27057
1.29105
1.28268
1.25776
1.27652
1.28056
1.04956
1.26157
1.28066
1.27716
1.24765
1.25195
1.07652
1.26836
1.26355
1.27551
1.30572
1.2879
1.25688
1.25167
1.27681
1.30357
1.26651
1.27316
1.25629
1.30551
1.30795
1.27901
1.27994
1.26281
1.26047
1.27084
1.27553
1.26848
1.13295
1.27221
1.27101
1.27296
1.27473
1.26811
1.22898
1.28872
1.26836
1.26228
1.18688
1.17039
1.26399
1.27273
1.25896
1.31055
1.23872
1.24084
1.2622
1.25526
1.2415
1.25925
1.27529
1.27067
1.25404
1.25916
1.25424
1.26923
1.26646
1.27752
1.25384
1.24853
1.28499
1.28094
1.2998
1.28287
1.24593
1.26033
1.29159
1.2829
1.27744
1.29365
1.26876
1.25755
1.23651
1.24871
1.26212
1.26782
1.24959
1.29895
1.26991
1.28759
1.2735
1.24278
1.26574
1.24399
1.25709
1.24964
1.26802
1.28749
1.28274
1.29199
1.27637
1.09177
1.26797
1.26526
1.25291
1.25627
1.28018
1.27704
1.09906
1.27222
1.25178
1.1086
1.28133
1.30172
1.26273
1.25605
1.2912
1.07067
1.25359
1.29492
1.26545
1.27933
1.26235
1.30527
1.2652
1.28273
1.28005
1.28334
1.25516
1.25883
1.26669
1.27554
1.27081
1.27204
1.31434
1.30001
1.28406
1.26836
1.28571
1.26067
1.29377
1.25043
1.29584
1.17927
1.26574
1.2755
1.30025
1.30411
1.2592
1.29618
1.2788
1.2457
1.23987
1.26597
1.27514
1.27166
1.29761
1.25378
1.27866
1.20994
1.26083
1.25907
1.26129
1.2457
1.21237
1.18444
1.2642
1.29256
1.26026
1.26816
1.25219
1.27425
1.17086
1.17988
1.25009
1.17523
1.24879
1.24572
1.28754
1.24593
1.26853
1.19202
1.10457
1.29773
1.2718
1.09892
1.29171
1.28711
1.24185
1.27275
1.18885
1.29561
1.30304
1.27387
1.09508
1.28289
1.31087
1.24668
1.26979
1.29582
1.27329
1.11507
1.30058
1.27533
1.26881
1.27553
1.25934
1.26114
1.25049
1.24766
1.25589
1.25134
1.25623
1.23994
1.20565
1.25909
1.23712
1.24588
1.27723
1.29043
1.24287
1.23385
1.27269
1.27361
1.27024
1.27046
1.29069
1.25703
1.28956
1.26835
1.27541
1.24529
1.26414
1.28807
1.28094
1.28636
1.29445
1.21486
1.28291
1.18543
1.25659
1.28604
1.26358
1.24107
1.29702
1.24738
1.22334
1.28592
1.26327
1.2489
1.07732
1.16793
1.26297
1.27605
1.24934
1.21414
1.23
1.30228
1.22685
1.2293
1.26788
1.28221
1.29405
1.20343
1.26815
1.2094
1.27298
1.26048
1.269
1.28122
1.23644
1.21122
1.25947
1.29644
1.26594
1.28026
1.30868
1.17274
1.2638
1.28182
1.27924
1.30302
1.26861
1.2428
1.25455
1.06894
1.27164
1.28238
1.25101
1.25211
1.24346
1.25539
1.26464
1.28058
1.27037
1.27354
1.26292
1.27234
1.26747
1.29907
1.16406
1.27885
1.16956
1.25176
1.27556
1.23068
1.27458
1.30216
1.28372
1.27138
1.24227
1.19879
1.22676
1.08832
1.25603
1.2548
1.27936
1.26124
1.30654
1.2518
1.28615
1.19985
1.22474
1.23771
1.18694
1.27165
1.24117
1.23266
1.24744
1.25166
1.30279
1.27631
1.30447
1.16975
1.25799
1.07924
1.07394
1.27452
1.17958
1.29493
1.26169
1.3002
1.29573
1.2328
1.29398
1.27662
1.23444
1.16577
1.24919
1.30047
1.25103
1.26131
1.20693
1.2684
1.24917
1.23312
1.21215
1.29232
1.26525
1.25668
1.27298
1.26707
1.27854
1.25355
1.25169
1.26352
1.28574
1.25954
1.06931
1.07191
1.18714
1.26983
1.22454
1.25967
1.11091
1.31678
1.26393
1.27606
1.22981
1.31082
1.23885
1.23228
1.298
1.31907
1.21544
1.28835
1.10569
1.21647
1.13805
1.25917
1.29923
1.28203
1.25043
1.27454
1.15057
1.26982
1.11554
1.24997
1.23302
1.27496
1.17827
1.3058
1.20355
1.26627
1.19908
1.18643
1.28383
1.23837
1.31678
1.2306
1.26507
1.22429
1.25164
1.26516
1.22039
1.271
1.28811
1.2431
1.30096
1.10367
1.29036
1.27714
1.23615
1.23436
1.26714
1.26313
1.20686
1.29143
1.26183
1.17324
1.25078
1.29193
1.10328
1.2794
1.11365
1.2547
1.28455
1.27178
1.17032
1.27497
1.27574
1.28755
1.25971
1.26492
1.28926
1.08728
1.23871
1.23449
1.29134
1.29013
1.1724
1.27608
1.20441
1.20273
1.11083
1.0628
1.08557
1.29127
1.21013
1.28418
1.24237
1.25742
1.25672
1.27319
1.20571
1.06867
1.22669
1.26647
1.25785
1.26079
1.10636
1.31461
1.25358
1.26287
1.28357
1.22528
1.2076
1.26916
1.24162
1.23305
1.25662
1.22228
1.2214
1.23322
1.28833
1.17149
1.18401
1.18713
1.25533
1.20535
1.19664
1.20293
1.27445
1.18638
1.30484
1.29008
1.26821
1.12182
1.26537
1.25668
1.17042
1.25057
1.25861
1.28305
1.08209
1.26496
1.19077
1.2635
1.2917
1.25993
1.18403
1.29347
1.25813
1.2513
1.19696
1.17738
1.27227
1.26966
1.12184
1.12037
1.25111
1.12591
1.14579
1.23144
1.1333
1.27489
1.134
1.18704
1.2097
1.21696
1.21446
1.19109
1.11489
1.25189
1.17863
1.2898
1.25922
1.27218
1.2399
1.21988
1.09278
1.21183
1.08893
1.10497
1.26441
1.26235
1.21484
1.28588
1.25256
1.25731
1.25892
1.10732
1.21605
1.29655
1.24762
1.28465
1.16817
1.28316
1.26341
1.28316
1.28377
1.24973
1.19684
1.20886
1.1989
1.26484
1.29176
1.27632
1.20704
1.16252
1.30902
1.19019
1.09555
1.14339
1.2493
1.20689
1.22816
1.19466
1.22833
1.23641
1.09958
1.28438
1.2708
1.14848
1.28041
1.20596
1.20741
1.27463
1.20324
1.30167
1.23236
1.18357
1.26252
1.13836
1.1604
1.27988
1.24641
1.11122
1.26962
1.2354
1.23817
1.25323
1.20784
1.25036
1.17095
1.22684
1.24922
1.22261
1.21602
1.25577
1.21437
1.13178
1.15606
1.09821
1.25317
1.24872
1.12331
1.26941
1.27696
1.1431
1.15553
1.28168
1.12393
1.20433
1.16084
1.17976
1.27348
1.20168
1.29535
1.25861
1.21971
1.18458
1.22594
1.19443
1.09845
1.14334
1.1947
1.11857
1.3008
1.19533
1.23663
1.15577
1.24137
1.27417
1.1929
1.13152
1.20628
1.15452
1.23322
1.26238
1.20916
1.09147
1.17228
1.15733
1.28641
1.28583
1.28143
1.28408
1.2471
1.26585
1.2638
1.29033
1.2573
1.28368
1.18244
1.266
1.23997
1.21279
1.05464
1.29356
1.21304
1.26055
1.16977
1.26765
1.06497
1.0939
1.10051
1.25749
1.15973
1.1694
1.24607
1.16983
1.28863
1.15135
1.26127
1.29881
1.2813
1.28104
1.05273
1.20752
1.29154
1.16315
1.16741
1.16977
1.10382
1.18469
1.19513
1.163
1.19656
1.20129
1.1361
1.15669
1.24714
1.23613
1.27332
1.23692
1.16261
1.17953
1.1696
1.24044
1.2223
1.27395
1.13216
1.12407
1.12178
1.23373
1.14278
1.13203
1.28693
1.26919
1.1775
1.23809
1.06964
1.09964
1.20549
1.09266
1.22739
1.24888
1.24921
1.22221
1.27658
1.26037
1.21446
1.21497
1.16145
1.11608
1.11449
1.29281
1.16305
1.25129
1.19023
1.17902
1.20329
1.26734
1.27041
1.28726
1.29141
1.05692
1.14585
1.30973
1.23685
1.18892
1.28744
1.2827
1.28304
1.21288
1.17233
1.20769
1.09599
1.07715
1.2128
1.08923
1.18549
1.1713
1.1299
1.12015
1.19505
1.1718
1.27336
1.0934
1.08925
1.16417
1.14321
1.19432
1.12917
1.18057
1.14667
1.19875
1.13965
1.24503
1.24671
1.25045
1.22199
1.173
1.2049
1.20374
1.23241
1.11237
1.18702
1.22582
1.2528
1.18712
1.25686
1.11956
1.26292
1.05666
1.09321
1.0783
1.28661
1.24659
1.24765
1.28027
1.22385
1.16647
1.27329
1.21874
1.21078
1.13698
1.18022
1.25853
1.11877
1.24845
1.23345
1.05626
1.13908
1.15749
1.13623
1.06696
1.17561
1.16613
1.25553
1.11533
1.23824
1.22688
1.09114
1.15432
1.25066
1.15349
1.2009
1.16681
1.20939
1.06806
1.12828
1.16646
1.1613
1.10696
1.13766
1.10866
1.08106
1.24911
1.22743
1.12012
1.11167
1.20385
1.21748
1.15985
1.23321
1.23792
1.0738
1.10818
1.17407
1.07476
1.26439
1.23101
1.10281
1.1157
1.21687
1.09254
1.25234
1.27174
1.06292
1.27041
1.25147
1.21754
1.06233
1.1269
1.07937
1.18081
1.262
1.28242
1.13086
1.07839
1.17649
1.12759
1.28349
1.17047
1.13189
1.08318
1.12937
1.1007
1.14306
1.14537
1.15734
1.16822
1.139
1.15568
1.07859
1.2616
1.13031
1.07506
1.172
1.15244
1.08459
1.23937
1.16405
1.25935
1.1224
1.24744
1.26579
1.21087
1.17288
1.11816
1.20954
1.27472
1.12744
1.15846
1.08822
1.22079
1.10902
1.06259
1.07668
1.23045
1.09734
1.08859
1.20596
1.22209
1.20189
1.22714
1.07391
1.08691
1.13693
1.1799
1.14872
1.26688
1.11754
1.26925
1.04996
1.06466
1.15881
1.10977
1.14045
1.16838
1.21526
1.11737
1.08843
1.13377
1.16289
1.24987
1.14094
1.09019
1.25311
1.12375
1.25313
1.06549
1.08897
1.13936
1.12879
1.1399
1.11875
1.13739
1.26566
1.28744
1.28212
1.25992
1.06188
1.08831
1.15021
1.20129
1.07149
1.08421
1.10665
1.06741
1.2278
1.25387
1.11093
1.22511
1.26481
1.08329
1.19076
1.15865
1.11477
1.24983
1.08964
1.21646
1.22087
1.24313
1.27135
1.15368
1.13706
1.24889
1.27647
1.204
1.07583
1.25839
1.24957
1.1957
1.25232
1.10588
1.28161
1.2332
1.19731
1.06139
1.15002
1.26299
1.10073
1.11562
1.25697
1.092
1.08715
1.18802
1.26822
1.16352
1.21374
1.11859
1.23144
1.17231
1.18877
1.30871
1.11891
1.10854
1.12662
1.10291
1.05932
1.21714
1.18015
1.21589
1.09612
1.12276
1.11189
1.26998
1.07447
1.20946
1.20781
1.2577
1.08599
1.22354
1.10875
1.08105
1.20304
1.08199
1.11429
1.10111
1.0703
1.10791
1.13608
1.19023
1.26657
1.28228
1.1719
1.12805
1.28288
1.08297
1.07465
1.07292
1.24071
1.23874
1.20622
1.21279
1.21878
1.18968
1.0843
1.26894
1.06526
1.08977
1.22829
1.09591
1.08628
1.25833
1.07038
1.08039
1.25864
1.13106
1.12786
1.09474
1.16702
1.17637
1.09712
1.25543
1.22297
1.23336
1.0715
1.20918
1.1083
1.11913
1.24942
1.07759
1.06885
1.25762
1.11366
1.10304
1.10596
1.06877
1.12819
1.19358
1.11455
1.24511
1.26104
1.12366
1.13863
1.13613
1.15571
1.23543
1.10248
1.24254
1.26936
1.15215
1.08724
1.06412
1.16484
1.05837
1.1162
1.24184
1.19775
1.08906
1.07471
1.13041
1.08422
1.08442
1.25423
1.2374
1.06789
1.12443
1.09685
1.0941
1.08585
1.1034
1.25321
1.06696
1.06933
1.06134
1.29078
1.07536
1.27842
1.15129
1.14984
1.07876
1.21974
1.05174
1.07353
1.09433
1.05852
1.21401
1.2277
1.05173
1.22643
1.08996
1.17109
1.08827
1.25199
1.26708
1.12746
1.08494
1.24211
1.10906
1.13383
1.08833
1.17216
1.16831
1.09712
1.1581
1.08113
1.17907
1.22846
1.08285
1.14807
1.05095
1.26254
1.12493
1.1806
1.06344
1.13249
1.06392
1.07977
1.12753
1.25225
1.12607
1.27893
1.25708
1.08418
1.18153
1.07424
1.0692
1.23502
1.23764
1.18984
1.10186
1.09728
1.05696
1.05371
1.25116
1.12086
1.06949
1.22388
1.13897
1.16276
1.07302
1.06934
1.20128
1.2127
1.09463
1.09317
1.25075
1.0923
1.24325
1.1695
1.24023
1.06549
1.08175
1.19301
1.11588
1.08685
1.11975
1.10102
1.13271
1.14555
1.08861
1.08205
1.23529
1.16032
1.07552
1.1273
1.18916
1.10409
1.21374
1.18845
1.14259
1.14112
1.08478
1.17513
1.05338
1.04781
1.07029
1.12969
1.17678
1.11751
1.094
1.22451
1.08796
1.22966
1.14684
1.24237
1.13381
1.25904
1.07721
1.258
1.0963
1.1132
1.2498
1.11816
1.05537
1.07703
1.09749
1.21604
1.2094
1.12193
1.20427
1.19704
1.07454
1.04224
1.08596
1.15734
1.06807
1.10022
1.09403
1.2141
1.07717
1.09412
1.21397
1.22814
1.16447
1.06454
1.15971
1.13091
1.11578
1.164
1.10922
1.0774
1.10063
1.0982
1.10898
1.21652
1.10111
1.26517
1.11422
1.08104
1.26766
1.17797
1.06501
1.07336
1.26569
1.10788
1.13026
1.20019
1.08973
1.08629
1.2553
1.26576
1.06741
1.11953
1.25842
1.11104
1.20462
1.07322
1.06367
1.16168
1.15902
1.28436
1.13786
1.08689
1.15814
1.13973
1.08448
1.25608
1.09808
1.05679
1.05781
1.09426
1.05651
1.08612
1.08129
1.09719
1.07494
1.16531
1.16816
1.15989
1.20906
1.0693
1.06318
1.22584
1.10694
1.06968
1.05933
1.09168
1.13571
1.10703
1.11333
1.0786
1.20347
1.18676
1.19194
1.18655
1.09086
1.07679
1.10956
1.13646
1.26177
1.12314
1.08451
1.12294
1.05998
1.07138
1.08608
1.06166
1.08227
1.05718
1.19133
1.12332
1.0823
1.26694
1.14538
1.10282
1.10564
1.08091
1.07138
1.08709
1.15024
1.11676
1.08486
1.08851
1.10116
1.08627
1.08659
1.08934
1.10135
1.09995
1.20844
1.22279
1.1679
1.0752
1.05907
1.05995
1.09758
1.10061
1.08137
1.05023
1.22581
1.22684
1.25596
1.27689
1.09666
1.07493
1.11845
1.1511
1.08086
1.07732
1.25582
1.27152
1.06363
1.10139
1.10214
1.2652
1.10624
1.07844
1.07657
1.09912
1.11071
1.10131
1.11702
1.0783
1.09315
1.2109
1.15693
1.08437