/*--------------------------------*- C++ -*----------------------------------*\
| =========                 |                                                 |
| \\      /  F ield         | OpenFOAM: The Open Source CFD Toolbox           |
|  \\    /   O peration     | Version:  2212                                  |
|   \\  /    A nd           | Website:  www.openfoam.com                      |
|    \\/     M anipulation  |                                                 |
\*---------------------------------------------------------------------------*/
FoamFile
{
    version     2.0;
    format      ascii;
    arch        "LSB;label=32;scalar=64";
    class       volScalarField;
    location    "0.026";
    object      k;
}
// * * * * * * * * * * * * * * * * * * * * * * * * * * * * * * * * * * * * * //

dimensions      [0 2 -2 0 0 0 0];

internalField   nonuniform List<scalar> 
31639
(
0.0297056
0.0290523
0.0295597
0.0305501
0.0293556
0.028738
0.0290025
0.0299746
0.0296925
0.030144
0.0301839
0.0300269
0.0293062
0.0302932
0.0286736
0.0285806
0.0298276
0.0290045
0.0282819
0.0291128
0.0270047
0.0302659
0.030408
0.0284846
0.028311
0.0295356
0.0291119
0.0254318
0.0289578
0.030461
0.0301515
0.0287828
0.0303053
0.0283477
0.0275861
0.0304084
0.0264539
0.0307006
0.0302329
0.0261512
0.0275639
0.0273227
0.0299788
0.0302283
0.030364
0.0301602
0.0287161
0.0289969
0.0297586
0.0304578
0.0300507
0.0262846
0.0306838
0.0269297
0.0287005
0.0296781
0.0271393
0.0292487
0.029048
0.0270718
0.0293945
0.0300808
0.0283423
0.0289196
0.0296459
0.0304202
0.0292993
0.0292645
0.0279473
0.0303949
0.0304224
0.0279079
0.029845
0.0291533
0.0305874
0.0275308
0.0301496
0.0290696
0.0288192
0.0301769
0.028217
0.0261039
0.0302897
0.0295568
0.0294887
0.0301006
0.03045
0.0302744
0.0275549
0.0306407
0.0293777
0.0292972
0.0272379
0.0289164
0.027839
0.0287199
0.0291495
0.0291576
0.0293607
0.0271841
0.0305916
0.0300933
0.0287779
0.0268711
0.0271234
0.0302358
0.0268004
0.0266382
0.0280528
0.0269381
0.0295334
0.0272513
0.0289461
0.0286988
0.029191
0.0268414
0.0291326
0.0290877
0.0303234
0.029016
0.0299554
0.0300284
0.0297965
0.0296154
0.0294129
0.0303917
0.0291571
0.0281488
0.0279185
0.029921
0.0300613
0.0297904
0.0298673
0.0288133
0.0299271
0.0292664
0.0271133
0.0267925
0.0299456
0.0291978
0.0291331
0.0301645
0.0301757
0.0266498
0.0264786
0.0303949
0.0300993
0.0273611
0.0271439
0.0301956
0.0281823
0.0294204
0.0283382
0.0298871
0.0275022
0.0304292
0.02925
0.0279831
0.0274596
0.0284456
0.0301607
0.0276847
0.0281543
0.0270082
0.0274665
0.0287857
0.0275071
0.0304287
0.0299679
0.0266916
0.0278289
0.0285343
0.0275746
0.0293155
0.0305415
0.0301492
0.0294029
0.0305035
0.0294095
0.0291132
0.0288585
0.0288249
0.0283427
0.0263854
0.0296675
0.0305565
0.0284309
0.0303935
0.02744
0.0269471
0.0308324
0.0300906
0.0296294
0.0289686
0.0291235
0.0287681
0.0288548
0.0298688
0.0268847
0.0288129
0.0302657
0.0306126
0.0293612
0.0294635
0.0295075
0.0291516
0.0287508
0.0286208
0.0300613
0.0264541
0.0290035
0.0289703
0.0295946
0.0301137
0.0298657
0.0302046
0.0276462
0.0285036
0.0301855
0.0302015
0.029738
0.0290602
0.0269269
0.0293197
0.0269902
0.029445
0.0300742
0.0284039
0.0274311
0.0299109
0.029625
0.0306306
0.0275682
0.0271582
0.0296405
0.0297848
0.0270611
0.0301094
0.0283058
0.0267499
0.0287985
0.0294913
0.0289102
0.028487
0.0284804
0.0298672
0.0286396
0.0284639
0.0271596
0.0290388
0.0283878
0.0276913
0.0285655
0.0304751
0.0303061
0.0287993
0.0276193
0.0298119
0.0296599
0.0292353
0.0305161
0.0301287
0.0298782
0.0302374
0.028779
0.0292195
0.0266365
0.0283203
0.0298407
0.0284672
0.0295899
0.0285814
0.0294779
0.0305725
0.0305072
0.0293454
0.0270982
0.0290052
0.0280453
0.0300964
0.0290986
0.0302899
0.0305521
0.0287451
0.0273291
0.0282408
0.0275447
0.0270044
0.0299321
0.0277547
0.0305399
0.0287291
0.0284637
0.027701
0.0306875
0.028716
0.0287685
0.0302025
0.0295469
0.0283601
0.0290625
0.0275395
0.0290948
0.0287362
0.0275508
0.028877
0.0286555
0.0258777
0.0267175
0.0299972
0.0304247
0.0297427
0.0270196
0.0277939
0.0298607
0.0277564
0.0277624
0.0303765
0.0304261
0.0286079
0.0301546
0.0304456
0.0274755
0.0304582
0.0267862
0.0270406
0.0301313
0.0298978
0.030027
0.0304061
0.0298809
0.0276476
0.0287389
0.0287823
0.0302442
0.0306484
0.0306549
0.028845
0.0282785
0.0296355
0.0299036
0.0295616
0.0283676
0.0290423
0.0286719
0.0289958
0.0299458
0.0284029
0.0274766
0.0299474
0.0307963
0.0287903
0.0305512
0.0300615
0.0289468
0.0275303
0.0288459
0.0289453
0.0270087
0.0304628
0.0276345
0.0295867
0.0301801
0.0266394
0.0291166
0.0289536
0.027125
0.0294197
0.027694
0.029027
0.0305895
0.0298957
0.0267004
0.0296018
0.0275954
0.0296211
0.0300888
0.0303044
0.0303211
0.0277387
0.0296545
0.0268919
0.0286898
0.0268046
0.0302676
0.0298969
0.0302104
0.0300785
0.0280282
0.0305621
0.029103
0.0296617
0.0288928
0.028044
0.0291058
0.0296425
0.029374
0.0296778
0.0295032
0.0299291
0.0289857
0.0274877
0.0293164
0.0300152
0.0297536
0.0266383
0.0303003
0.0300243
0.0290245
0.0293312
0.029624
0.0294814
0.0301768
0.0270187
0.0296215
0.0302435
0.0267374
0.0294282
0.0295765
0.0277409
0.0269744
0.027169
0.0288753
0.0272439
0.029064
0.028883
0.0287168
0.0306099
0.0273832
0.0299262
0.0303432
0.0290507
0.0297816
0.0288483
0.030265
0.0291564
0.0295493
0.0304081
0.0290242
0.0271751
0.0291018
0.0304779
0.0301292
0.0298608
0.0305279
0.0285177
0.0296386
0.0299481
0.0304764
0.0306308
0.0274825
0.0289446
0.0262629
0.0292382
0.0287872
0.0274808
0.0270897
0.0288091
0.0296852
0.0300489
0.0272188
0.0297906
0.0285975
0.0289059
0.0299816
0.0238134
0.0287624
0.0269668
0.0285652
0.0300642
0.0307432
0.0297385
0.0291886
0.0264898
0.0298259
0.0290405
0.0298546
0.0270531
0.0274597
0.028919
0.02733
0.0276035
0.0295661
0.0270534
0.0287289
0.0270941
0.0298623
0.0272424
0.0304121
0.0299972
0.0300461
0.0301598
0.028393
0.0301374
0.030311
0.0295355
0.0301027
0.0292252
0.0299664
0.0308339
0.0286782
0.0302185
0.0304175
0.0289192
0.0279868
0.0304414
0.0291443
0.026395
0.0269043
0.029237
0.0304143
0.0303351
0.0287716
0.0307234
0.030942
0.0298304
0.0293972
0.0290867
0.0291896
0.0276867
0.0288747
0.0297364
0.0305135
0.0282733
0.0279789
0.0277898
0.0282722
0.0288555
0.0263076
0.0298389
0.0285066
0.0296404
0.0290666
0.0298511
0.0292317
0.0275082
0.0294902
0.0301523
0.0278807
0.0299477
0.0307241
0.0290286
0.0288176
0.0256706
0.0279898
0.0289647
0.0291848
0.0275817
0.0273952
0.0292414
0.0279736
0.0298033
0.0283211
0.0291133
0.0301701
0.0290386
0.026921
0.0286145
0.0292664
0.0302695
0.0272203
0.0261708
0.0301355
0.0270645
0.0293913
0.030634
0.0271993
0.0290812
0.0305571
0.0294106
0.0272562
0.0302156
0.0294146
0.0271476
0.0300543
0.0293993
0.0286881
0.0299673
0.0265449
0.0282864
0.0291341
0.0288136
0.0288074
0.0297101
0.0307006
0.0301094
0.0297919
0.0304392
0.0300239
0.0297311
0.0283292
0.0297155
0.0304589
0.0311435
0.0279785
0.0292243
0.0294669
0.0311405
0.0276271
0.0265699
0.0303771
0.0277751
0.0305976
0.0285367
0.0272947
0.0291835
0.0301203
0.0294732
0.0297059
0.0267629
0.0298676
0.0292899
0.0268462
0.0303405
0.0300166
0.0250056
0.0275228
0.0278961
0.0289961
0.0292284
0.0292087
0.0289823
0.0291429
0.0299996
0.0291832
0.0290583
0.027639
0.0303783
0.0270931
0.0291396
0.0291101
0.0288056
0.0306999
0.029093
0.0280275
0.0268234
0.0276719
0.0290759
0.0302027
0.0274871
0.03045
0.029337
0.0299248
0.0274221
0.0285572
0.0299469
0.0305032
0.030145
0.0297426
0.0292809
0.0293159
0.0306225
0.030552
0.0303472
0.0282674
0.0300149
0.0273803
0.0303626
0.0303138
0.0288695
0.0276741
0.0286098
0.0261919
0.030151
0.0295101
0.0307199
0.0290894
0.0283875
0.0272488
0.0300484
0.0268572
0.0264467
0.0279367
0.0283692
0.0274338
0.0290941
0.0272632
0.0294281
0.0296637
0.0262798
0.030506
0.0275508
0.0281279
0.0285231
0.0284729
0.0299106
0.0302377
0.0304573
0.0303666
0.028818
0.0290584
0.0288344
0.0288565
0.0267164
0.0220915
0.0303585
0.0288745
0.0299108
0.0301209
0.0272065
0.0302347
0.0305245
0.0298505
0.0298724
0.0298268
0.0294239
0.0303573
0.0305412
0.0292639
0.0301818
0.0301296
0.0277569
0.030148
0.0286587
0.0300527
0.0283362
0.028927
0.028224
0.0307194
0.0287594
0.0292818
0.0293035
0.0277139
0.0303902
0.029433
0.0286794
0.0274441
0.0297282
0.0265937
0.0299041
0.0300512
0.0284594
0.0306329
0.0305683
0.0305602
0.0272096
0.0290611
0.0294085
0.0294257
0.0276238
0.0297488
0.0299349
0.0283439
0.029123
0.0281649
0.0297724
0.0288932
0.028852
0.0266484
0.029847
0.0296083
0.0300506
0.0284321
0.0290106
0.0293455
0.0289386
0.0285277
0.0293826
0.0299061
0.0288376
0.0266048
0.026744
0.0287042
0.0263872
0.0272042
0.0295411
0.0294688
0.0298992
0.026557
0.0287119
0.0302514
0.0275574
0.0268046
0.029115
0.0276719
0.0301035
0.0280404
0.0304418
0.0283997
0.0285533
0.0304123
0.0266988
0.0286022
0.0286816
0.0300249
0.0303746
0.0302179
0.0278218
0.0297421
0.0304213
0.0286883
0.0304377
0.0299474
0.0298235
0.0304146
0.0291364
0.0308812
0.0305929
0.0307739
0.0296242
0.0287601
0.029282
0.0289857
0.0271641
0.0284828
0.0297637
0.0300378
0.0306599
0.028914
0.0305937
0.0300745
0.0282688
0.0301325
0.0301757
0.0299371
0.0300425
0.0273539
0.0285648
0.0302804
0.0265663
0.0291542
0.0288734
0.0290446
0.0287457
0.0303421
0.0296863
0.0299892
0.0290234
0.0297792
0.029265
0.0302579
0.0293181
0.0289457
0.0275174
0.0301466
0.0278287
0.0286264
0.0291283
0.0285156
0.0293779
0.0305632
0.0275078
0.0305417
0.0275283
0.0293249
0.0290982
0.0287937
0.0289265
0.0303475
0.0272838
0.029921
0.0301971
0.0305495
0.0294279
0.0296241
0.0264381
0.0304061
0.0301278
0.0297979
0.0298305
0.030075
0.0290583
0.029704
0.0292686
0.0275611
0.0291101
0.0304265
0.0267064
0.0280339
0.0311352
0.0300946
0.0283499
0.02864
0.029597
0.0283719
0.0287524
0.0277263
0.0299849
0.030576
0.0265526
0.0293856
0.0301147
0.0300772
0.0306637
0.0285913
0.0300817
0.0278188
0.0276921
0.0305403
0.0302233
0.0287882
0.0274463
0.0297244
0.0301987
0.0282818
0.0303168
0.029999
0.0301244
0.0297192
0.0299969
0.0293993
0.0292695
0.0286742
0.0284095
0.026896
0.0293654
0.0292587
0.027497
0.0301771
0.0268709
0.0285617
0.0289232
0.027518
0.0289005
0.0285789
0.0296705
0.029435
0.0301108
0.0274342
0.0275706
0.0288263
0.0272048
0.0283638
0.0301195
0.0287977
0.0302584
0.0294739
0.0290531
0.0304231
0.0287542
0.0294477
0.0288802
0.0289362
0.0296654
0.0280493
0.0293068
0.0300078
0.0302326
0.0306521
0.0274552
0.0270132
0.0290283
0.0301814
0.0276517
0.0286392
0.0298486
0.029067
0.0309888
0.0289181
0.0286165
0.0300663
0.0272223
0.0301729
0.0306338
0.0276105
0.0283675
0.0288718
0.028699
0.0305503
0.0303902
0.0298151
0.0279052
0.0300846
0.0271891
0.0288868
0.030382
0.0287002
0.0308886
0.026886
0.0290501
0.0296977
0.0291956
0.0271535
0.0268809
0.0300519
0.030391
0.0287316
0.0302792
0.0296957
0.0288477
0.0274303
0.0281321
0.0296431
0.0290968
0.0290925
0.0305737
0.0301429
0.0309668
0.030299
0.0295498
0.0296541
0.0298024
0.0276803
0.0301783
0.0297183
0.029279
0.0295922
0.0305416
0.0291189
0.030305
0.0289011
0.0265217
0.030603
0.0286073
0.0303845
0.0286821
0.0299913
0.0277673
0.0296989
0.0310227
0.0291776
0.0291707
0.0272962
0.0299028
0.0304714
0.0294957
0.0272398
0.031201
0.0291347
0.0294025
0.030426
0.0301958
0.029961
0.0289215
0.029335
0.0308856
0.0277519
0.0279675
0.0277063
0.0282148
0.0294915
0.0270205
0.0304934
0.0301707
0.0308096
0.0288278
0.0289411
0.0292371
0.0302947
0.0292746
0.0296049
0.0303341
0.0306516
0.0294491
0.030032
0.0291059
0.0287782
0.0297274
0.0287181
0.0307271
0.0306085
0.0304548
0.0306179
0.030324
0.028417
0.0309127
0.0294738
0.0295649
0.0287059
0.0294827
0.0306192
0.0291257
0.029957
0.0286701
0.0291053
0.0298162
0.0280155
0.0274363
0.0288784
0.0292048
0.0307764
0.0286203
0.0269208
0.0295498
0.0301122
0.0282927
0.0286557
0.0292005
0.0305145
0.0304139
0.0286115
0.0285261
0.0291339
0.0302131
0.0287509
0.0294008
0.0293056
0.0271735
0.0289436
0.0288422
0.0299287
0.0303186
0.0292894
0.0304903
0.0299976
0.029146
0.0296131
0.027351
0.0278068
0.0271873
0.0305607
0.0294566
0.0306741
0.0314646
0.0299873
0.0270845
0.0299944
0.028884
0.0299175
0.0297491
0.0298691
0.0271426
0.030624
0.0275357
0.0291363
0.0294034
0.0292343
0.0309352
0.0291092
0.0299647
0.0275187
0.0290195
0.0295115
0.0303497
0.0282024
0.028263
0.029674
0.0301941
0.0297064
0.0296607
0.0305574
0.0274805
0.0292989
0.0289131
0.0283426
0.0299656
0.030683
0.0305357
0.0301239
0.0306289
0.0277585
0.0276498
0.0276809
0.0307898
0.0273836
0.0297934
0.029493
0.0274963
0.0287364
0.03005
0.0303634
0.0283575
0.028748
0.0286601
0.029276
0.0305571
0.0295228
0.0274715
0.0291989
0.0307669
0.030405
0.0308753
0.0304286
0.0312831
0.0305294
0.0302408
0.0280594
0.027317
0.0293802
0.0282742
0.0305818
0.0276394
0.0294992
0.0289967
0.0303828
0.0279616
0.0299583
0.0300314
0.0297012
0.0289976
0.027594
0.0302139
0.0288223
0.0308085
0.0293454
0.031007
0.0305277
0.0293061
0.0273025
0.0275414
0.0288847
0.0297599
0.0286085
0.0310478
0.0278376
0.0302321
0.0297927
0.0289522
0.0296274
0.030194
0.0304516
0.0303987
0.0306719
0.0295171
0.0296204
0.0271509
0.0284802
0.0303644
0.0279847
0.0297596
0.0288878
0.0275781
0.0290383
0.0289476
0.028946
0.0297922
0.0301328
0.0277772
0.0288661
0.0293431
0.0275189
0.0285217
0.0287768
0.0290764
0.0298675
0.0277397
0.0276199
0.0290233
0.0287711
0.0303113
0.0307554
0.0302486
0.0285528
0.0287067
0.0292196
0.0284049
0.0305522
0.0276307
0.0291233
0.0290796
0.0305517
0.0301421
0.0293635
0.029598
0.0303069
0.0277096
0.0293895
0.0305189
0.0286589
0.0257518
0.0291089
0.0276332
0.0295375
0.0270054
0.0306797
0.0306892
0.0305268
0.0294734
0.027772
0.0272669
0.030152
0.0307411
0.0306521
0.0293191
0.0296505
0.0297068
0.0307741
0.0302442
0.0270458
0.029489
0.0293708
0.0296692
0.0288756
0.0300246
0.0267778
0.0305891
0.0301563
0.0293514
0.0294013
0.0298356
0.0291511
0.0305153
0.0297718
0.0278448
0.0289826
0.0300008
0.028837
0.0294004
0.0297628
0.0270709
0.0276477
0.0303124
0.0307243
0.0301871
0.0306248
0.0298922
0.030061
0.0295309
0.0293331
0.0295999
0.0302263
0.0287628
0.0292801
0.0283164
0.0291916
0.0302657
0.026802
0.0294475
0.0269226
0.030146
0.0269943
0.0272869
0.0288273
0.0265134
0.029496
0.029707
0.0301335
0.0301561
0.0284333
0.028248
0.0310108
0.0285665
0.0278863
0.0293458
0.0283442
0.030373
0.0298325
0.0295349
0.0277381
0.0303299
0.0304199
0.0303869
0.0273512
0.0282556
0.0292492
0.0303543
0.0309428
0.0273788
0.0272657
0.0303089
0.0296782
0.0306003
0.0290436
0.0267257
0.0298051
0.0302386
0.0273236
0.0269199
0.0302489
0.0276877
0.0276176
0.0302989
0.0307272
0.0297413
0.0310617
0.0288388
0.029004
0.030383
0.0284692
0.0302603
0.0286401
0.0297789
0.0302497
0.0287391
0.0273156
0.029867
0.0300409
0.0286677
0.0289672
0.0292173
0.0282453
0.0268026
0.0294137
0.0300133
0.0304603
0.0286241
0.0298472
0.0271988
0.0298747
0.0307039
0.0271564
0.0304605
0.0293613
0.0260706
0.0272596
0.0293136
0.0290445
0.0300077
0.0287897
0.027771
0.0301113
0.0307435
0.0304903
0.0296636
0.0303261
0.0272533
0.0303607
0.0291386
0.0273396
0.0274711
0.0260376
0.0273287
0.0297485
0.0289634
0.0295976
0.0292306
0.027785
0.0281122
0.0266851
0.0267289
0.0310851
0.0308299
0.0278316
0.0305403
0.030341
0.0278399
0.0289623
0.0295261
0.0282839
0.0284994
0.0302599
0.0281605
0.0268623
0.0303865
0.0308602
0.0285483
0.0304426
0.0292311
0.0281322
0.0276809
0.0291855
0.0272998
0.0275088
0.0293956
0.0295898
0.0289286
0.0305752
0.0303322
0.0290215
0.0305656
0.0221326
0.029198
0.027156
0.0291626
0.0306211
0.0288232
0.0284504
0.0289139
0.0274766
0.0295779
0.0289979
0.0283539
0.027485
0.0264537
0.0264432
0.0287381
0.027306
0.0291589
0.0272623
0.0289126
0.030224
0.02973
0.0290857
0.0294362
0.0298724
0.0290627
0.0299492
0.0270561
0.0292281
0.0305143
0.0304385
0.028745
0.0309355
0.0279684
0.0302804
0.0288581
0.0271255
0.0302167
0.0305093
0.0296391
0.0298408
0.0305344
0.0296938
0.0265446
0.0265924
0.0287693
0.0306618
0.0295621
0.0299723
0.0286636
0.0288774
0.0279947
0.027072
0.0270228
0.0271773
0.0297372
0.0294219
0.0304453
0.0284984
0.0287945
0.0308365
0.027256
0.0292204
0.030598
0.0305099
0.0281427
0.0286275
0.0300274
0.0306713
0.0304799
0.0252396
0.0295821
0.0301269
0.0296939
0.0292797
0.0310969
0.0302408
0.0304567
0.0293859
0.0283917
0.0291518
0.0306238
0.0298305
0.0291071
0.0273163
0.0302037
0.0302128
0.0305721
0.029957
0.0269089
0.0262597
0.0288344
0.029939
0.029405
0.0293271
0.0298905
0.0299181
0.0299764
0.0286289
0.0299254
0.0292801
0.030215
0.027623
0.027576
0.0285439
0.0307246
0.0275301
0.03016
0.0274009
0.028964
0.0291685
0.0307306
0.0290486
0.0300351
0.0305714
0.0302829
0.0294972
0.0301795
0.0292828
0.0287245
0.0266622
0.0305846
0.0262127
0.0272798
0.0254627
0.0265783
0.0269494
0.0287809
0.0293484
0.027484
0.0286394
0.0261419
0.0278436
0.0286772
0.0303726
0.0268767
0.0274555
0.0299494
0.0269041
0.0288129
0.0301339
0.0298064
0.0290377
0.0275986
0.0270562
0.0285723
0.0306153
0.0283483
0.0274406
0.0296879
0.0287111
0.0295263
0.0289371
0.0277769
0.030574
0.0267459
0.0274094
0.0292365
0.0306113
0.0287238
0.0290926
0.029318
0.0292284
0.0265589
0.0278714
0.0286957
0.0305061
0.0297918
0.0272543
0.0264859
0.0291318
0.0304949
0.028839
0.0290638
0.0285433
0.0284966
0.0289212
0.0271644
0.030384
0.0285024
0.0272254
0.026386
0.0298783
0.0290701
0.0305666
0.02933
0.0300943
0.0272429
0.0290746
0.0266434
0.0264651
0.0304637
0.0277541
0.02916
0.0291651
0.0290854
0.0273111
0.0304492
0.0300448
0.0304633
0.0296597
0.0258031
0.0292146
0.0265163
0.0307094
0.0275715
0.0304987
0.0262205
0.0295443
0.0302123
0.0287379
0.0288506
0.0264423
0.0283581
0.0290241
0.0301426
0.0297894
0.0303631
0.0305677
0.0272291
0.0305073
0.0266312
0.0294424
0.0296038
0.0301833
0.030278
0.0289174
0.0306717
0.0289531
0.028305
0.0283106
0.0294428
0.0305014
0.0280809
0.0279188
0.0304327
0.0299462
0.0289883
0.0309742
0.0295776
0.029696
0.0302045
0.0300556
0.0305146
0.0287579
0.0284468
0.0302811
0.0301233
0.0264563
0.0287937
0.0282791
0.0306025
0.0294474
0.030034
0.0274757
0.027324
0.0292544
0.0299038
0.0302059
0.0304936
0.0302507
0.0292985
0.0297173
0.0275435
0.0296854
0.029178
0.0303046
0.0304902
0.0303787
0.0293128
0.0303785
0.0280355
0.0303342
0.0281569
0.0287295
0.0287211
0.0292546
0.02854
0.0299429
0.0271964
0.0302236
0.03026
0.0291273
0.0273641
0.0308545
0.0297217
0.0302896
0.0290165
0.0292221
0.030063
0.0270929
0.0303552
0.0292369
0.0294341
0.0280921
0.028218
0.0283593
0.0271242
0.0285329
0.030638
0.0293798
0.0265696
0.0299446
0.0270127
0.0295463
0.029467
0.0266542
0.026874
0.0284586
0.0293485
0.03009
0.0286196
0.0295517
0.0290764
0.0265068
0.0286056
0.0303389
0.0303679
0.0303757
0.0296511
0.0296899
0.0274433
0.0272398
0.030598
0.0290261
0.0296511
0.030174
0.0309062
0.0292989
0.0294063
0.0266048
0.0298619
0.030276
0.028601
0.0304402
0.0301619
0.0296216
0.028193
0.029927
0.0288344
0.0265852
0.0292341
0.0277262
0.0272528
0.0296
0.0292753
0.0304575
0.0303725
0.0294658
0.030516
0.0263928
0.0286345
0.0307351
0.0307228
0.0270184
0.0295929
0.0276087
0.0282476
0.0302755
0.028653
0.0296319
0.0308435
0.0297782
0.0265109
0.0301105
0.0272431
0.0301268
0.0296773
0.0294046
0.0301138
0.0293969
0.0301475
0.0272955
0.0303213
0.0303711
0.0276801
0.0295995
0.0290162
0.0289988
0.0301681
0.0291312
0.0300435
0.0306166
0.0303722
0.029166
0.0305068
0.0291436
0.029701
0.0281449
0.0281729
0.0271772
0.0266069
0.0295316
0.0297033
0.0290374
0.0304889
0.0284853
0.0304364
0.0267424
0.0307227
0.0305931
0.0297867
0.0303056
0.0280195
0.0267349
0.0289802
0.0272762
0.0299824
0.0292637
0.0267022
0.0287805
0.0306895
0.0301487
0.0268676
0.028166
0.0265253
0.0308404
0.0272042
0.0301729
0.0278858
0.0275434
0.0304617
0.0305063
0.0303773
0.0298199
0.0271401
0.029582
0.030701
0.0276817
0.030415
0.0298619
0.0306789
0.0266558
0.0297663
0.0286376
0.0297856
0.028851
0.0287007
0.0286207
0.0287205
0.0290336
0.028891
0.0297092
0.0288765
0.0305923
0.0278976
0.0289269
0.0293315
0.0300035
0.0306763
0.0275357
0.0298396
0.0273446
0.0286052
0.0303423
0.0305604
0.0292576
0.0295097
0.0299314
0.0285057
0.0288659
0.0290436
0.0271878
0.0269272
0.0295413
0.0301509
0.02847
0.0287977
0.0302107
0.0274141
0.0294491
0.0275398
0.0296651
0.030498
0.0292187
0.027033
0.0301938
0.0271199
0.0296929
0.0305038
0.0266132
0.0308408
0.02772
0.028637
0.028901
0.0269925
0.028381
0.028351
0.0264886
0.0304386
0.0306487
0.026216
0.0285321
0.0297138
0.02967
0.0295416
0.0308093
0.0303474
0.0287229
0.0281569
0.0269349
0.026445
0.025524
0.030571
0.0299227
0.0296336
0.029704
0.0270869
0.0271614
0.0287866
0.0303768
0.0264203
0.0295821
0.0289451
0.0291558
0.0296054
0.0282219
0.0300066
0.028427
0.0291805
0.0308157
0.0258755
0.0290801
0.0301603
0.0301764
0.0296112
0.030115
0.0294944
0.0271299
0.0307997
0.0312718
0.0289963
0.0292125
0.0279903
0.0289048
0.0298048
0.0302189
0.0292287
0.0289455
0.028567
0.0268307
0.0287543
0.0305491
0.0296847
0.030846
0.0294569
0.0293576
0.030756
0.0275007
0.0301206
0.0271068
0.0307081
0.0298206
0.0285953
0.0310294
0.0284633
0.0291055
0.0307672
0.0287722
0.0306187
0.0297559
0.0299436
0.0273034
0.0291683
0.0288848
0.0281534
0.030031
0.0284191
0.0286061
0.0307147
0.0274036
0.0303261
0.0291628
0.0303811
0.0286992
0.0295422
0.0274055
0.027857
0.0308251
0.0273759
0.0290774
0.0301561
0.0271753
0.0291023
0.0301542
0.0284729
0.0275103
0.0282695
0.0289508
0.0285537
0.0301065
0.0290824
0.0304665
0.0294709
0.0303231
0.026692
0.0278602
0.0305938
0.0287979
0.0271059
0.0276014
0.0292088
0.0249606
0.0268638
0.0290124
0.0288716
0.0305167
0.0282637
0.0301078
0.0304166
0.030541
0.030059
0.0303731
0.0285164
0.0281936
0.029887
0.0287833
0.0283328
0.030362
0.0289123
0.0268018
0.0269011
0.0288734
0.0253663
0.0299368
0.0300357
0.0282143
0.0299266
0.0300787
0.0298982
0.0309913
0.0288978
0.0273801
0.0284867
0.0288477
0.0300996
0.0282361
0.0295717
0.0306235
0.0288599
0.0286008
0.0293228
0.0305965
0.0300189
0.0313716
0.0305097
0.0293471
0.0296417
0.02784
0.0288244
0.0304906
0.0280673
0.0304794
0.0282914
0.0299771
0.0264752
0.0299432
0.0290195
0.0300836
0.0286346
0.0296608
0.0289807
0.0299684
0.0264367
0.0279934
0.0289611
0.0286188
0.0292375
0.0293026
0.0292013
0.0304417
0.0296185
0.0270702
0.0283794
0.027224
0.0293412
0.0292063
0.0274746
0.0311456
0.0291611
0.0290912
0.0300807
0.0280718
0.0276008
0.0303913
0.0274603
0.0267574
0.0266845
0.0268338
0.0270995
0.028401
0.03046
0.0300828
0.0289268
0.0294029
0.0299833
0.0288882
0.0298847
0.02681
0.030243
0.0227309
0.0300555
0.0270474
0.0270521
0.0300923
0.0269505
0.0292001
0.0297964
0.0301235
0.0282564
0.0292991
0.0286716
0.0289165
0.0277235
0.0298328
0.0293561
0.0301012
0.0291786
0.0273345
0.0296695
0.0287594
0.0288875
0.0268821
0.0278408
0.0277604
0.0267035
0.0269337
0.0290285
0.0288224
0.0275988
0.0286933
0.0304279
0.0302669
0.0306197
0.0226259
0.0270568
0.0304157
0.0272745
0.0301317
0.0267759
0.0303528
0.0301991
0.0302403
0.0272412
0.0291066
0.0306007
0.0305488
0.0296792
0.0304091
0.0290322
0.0294838
0.0288484
0.0270136
0.0295237
0.0285307
0.0289552
0.0290148
0.0275786
0.0288349
0.0302025
0.0282125
0.0280747
0.0271479
0.0296942
0.029719
0.0266276
0.0290399
0.0290325
0.0298681
0.0274632
0.0293322
0.0292059
0.0310235
0.0243997
0.0292995
0.0288845
0.0269466
0.0301795
0.0278047
0.0277302
0.0296533
0.0304228
0.0266826
0.0302343
0.0295072
0.0273854
0.0268693
0.0304067
0.0304012
0.0269502
0.029107
0.0267143
0.0279321
0.0305067
0.0286427
0.029752
0.0301849
0.0304447
0.0284851
0.0285129
0.0285936
0.0291763
0.0293928
0.028344
0.0300051
0.0271599
0.0278752
0.029264
0.029006
0.0296752
0.0286383
0.02977
0.0299753
0.0291004
0.0303499
0.02974
0.028765
0.0281743
0.0297843
0.0285958
0.0280949
0.0295669
0.0305406
0.0298806
0.029488
0.0275883
0.0297062
0.0282794
0.0271242
0.0287096
0.0293861
0.0271731
0.0296885
0.0282565
0.0260331
0.0267649
0.0298756
0.0255486
0.0288044
0.030099
0.029555
0.0272929
0.0297187
0.0311919
0.0272645
0.0269721
0.0275452
0.0301358
0.0290116
0.0288617
0.030366
0.0269871
0.0299042
0.0290181
0.030516
0.0307277
0.0230163
0.0291078
0.030005
0.0302421
0.029142
0.028627
0.0249586
0.0295685
0.0303704
0.0283159
0.0268554
0.0289767
0.0300002
0.0294543
0.0269288
0.0293469
0.0299031
0.0302462
0.0287957
0.0292924
0.0266489
0.0271699
0.0270999
0.0291761
0.0286751
0.0294952
0.0305415
0.030246
0.0259466
0.0301401
0.0302673
0.0296124
0.0286159
0.0300867
0.0283026
0.0274699
0.0285013
0.029308
0.028297
0.0268334
0.029636
0.0287954
0.0300507
0.0277453
0.0261687
0.0283939
0.0303405
0.029896
0.0282602
0.0287335
0.0301925
0.030248
0.0283807
0.0285747
0.029973
0.0304687
0.0298079
0.0305162
0.0297808
0.0294673
0.0267381
0.0289215
0.0273169
0.0299837
0.0298829
0.0283877
0.0271598
0.0306804
0.0269475
0.0286224
0.0275053
0.0290033
0.0262699
0.0294188
0.0289749
0.0290081
0.0290888
0.0279456
0.0303395
0.0274088
0.0298097
0.02892
0.028874
0.0265983
0.0299748
0.0294412
0.0272303
0.0280613
0.0290433
0.0289579
0.0295985
0.0243744
0.0294972
0.0286809
0.0290609
0.0281888
0.0283413
0.0282716
0.02457
0.0302843
0.0289578
0.0190629
0.0273041
0.0295987
0.0302122
0.0298164
0.0276507
0.0249585
0.0300117
0.0272442
0.0299188
0.0304593
0.0294796
0.0277161
0.0301257
0.0268703
0.0264401
0.0265068
0.0295968
0.0288342
0.0285551
0.0305318
0.0298188
0.029431
0.0278688
0.0262419
0.0307114
0.0292015
0.0308236
0.0299782
0.0273057
0.0287222
0.0294649
0.027414
0.0290384
0.0284284
0.02914
0.0315332
0.0292614
0.0288712
0.027056
0.0293107
0.0286209
0.0298381
0.0287393
0.0268683
0.0275623
0.0294851
0.029844
0.0276186
0.0298846
0.0280715
0.0295892
0.0281028
0.0279962
0.0248369
0.0304218
0.0299711
0.0294951
0.0304539
0.0287343
0.0277005
0.0267508
0.0250254
0.0294807
0.0270525
0.0289795
0.0286178
0.030242
0.028846
0.0300348
0.0283154
0.0198159
0.0273592
0.0300938
0.0208815
0.0291045
0.0307055
0.029628
0.0304641
0.0272484
0.0274667
0.0278308
0.0305485
0.0246317
0.0306607
0.0273185
0.0256857
0.029922
0.0275318
0.0301688
0.0202882
0.0263263
0.0295264
0.0300789
0.0304555
0.0296172
0.030204
0.0295375
0.0294583
0.0299812
0.0297956
0.0287561
0.028537
0.0248165
0.0300586
0.0284821
0.0283441
0.0304807
0.0304977
0.0297735
0.027226
0.0302764
0.0296526
0.0286472
0.0276252
0.0267576
0.0297373
0.0304598
0.0300308
0.0302377
0.0295184
0.0291847
0.0269199
0.0299982
0.0290525
0.0292261
0.0289167
0.0267993
0.0255576
0.0284563
0.0310267
0.0296168
0.0293594
0.0275546
0.02833
0.0281788
0.0272129
0.0302331
0.0287396
0.0231533
0.024197
0.0262237
0.0274084
0.0299033
0.0291048
0.0294558
0.0282893
0.0260923
0.0295381
0.0301063
0.0262787
0.0308949
0.026925
0.0304362
0.0280828
0.0300014
0.030156
0.0291562
0.0297167
0.0286857
0.0277403
0.0277053
0.028302
0.0297198
0.0292215
0.0276556
0.0282036
0.029349
0.0268468
0.0290277
0.0277147
0.0301243
0.0283138
0.0288609
0.0238417
0.0301524
0.0305965
0.0291241
0.0297493
0.0284171
0.0287941
0.0301247
0.0295102
0.0294061
0.030587
0.0291874
0.0270574
0.0267974
0.0311136
0.0271697
0.0270405
0.0267447
0.0298611
0.0305217
0.029346
0.0305133
0.0311281
0.0304833
0.0295736
0.0285085
0.0273022
0.0294731
0.0259956
0.0293545
0.0293531
0.0286192
0.028414
0.0277545
0.029109
0.030625
0.0263037
0.0283502
0.0292869
0.0265527
0.0301851
0.02554
0.0261945
0.0270613
0.0303139
0.0274379
0.027016
0.0276524
0.0267027
0.0291537
0.0246482
0.0251126
0.0290174
0.0273657
0.0262718
0.0288803
0.0272974
0.0280251
0.029243
0.0279427
0.0269348
0.0295506
0.0278687
0.0282758
0.026939
0.0285245
0.0284574
0.0253583
0.0303641
0.0289605
0.0295425
0.0283472
0.0272973
0.0268964
0.0288367
0.0287166
0.0303564
0.0291816
0.0299774
0.0280789
0.0290368
0.0301087
0.0301951
0.0247346
0.025285
0.0268293
0.0300335
0.0269012
0.0290045
0.0235794
0.0280521
0.0292545
0.0284487
0.0289872
0.0277754
0.0285319
0.02855
0.0304371
0.0274132
0.0286522
0.0307868
0.0266962
0.0288221
0.0272626
0.0297297
0.0276284
0.0269103
0.0290986
0.0270711
0.0245688
0.0256646
0.0269661
0.0280816
0.0253007
0.0304562
0.0278796
0.0263808
0.0286664
0.0300219
0.028767
0.0256837
0.030697
0.0294064
0.0268676
0.0286322
0.0287802
0.0274394
0.0287812
0.0289622
0.0289246
0.0268275
0.026354
0.0287327
0.0274543
0.0254269
0.0261762
0.0266137
0.0292809
0.0266417
0.0298564
0.028685
0.0290769
0.0277347
0.0301514
0.0271179
0.0290916
0.0278731
0.0201876
0.0303737
0.0256288
0.029109
0.0300981
0.0302716
0.0246898
0.0300225
0.0303594
0.0272119
0.029251
0.0286752
0.0277782
0.0246241
0.0289705
0.0277253
0.0299817
0.0307741
0.0281294
0.0304625
0.0274499
0.0276127
0.0264228
0.0248669
0.0254487
0.0303781
0.0252365
0.0299373
0.0277338
0.0260195
0.0282522
0.0303012
0.0253548
0.0213442
0.0274189
0.0294599
0.0301675
0.0292083
0.019641
0.0280544
0.0299411
0.0293444
0.0306563
0.028388
0.0255705
0.0303311
0.0255493
0.0294167
0.0281841
0.0280777
0.0279809
0.0296174
0.0270603
0.0270856
0.0251261
0.0273984
0.029709
0.0290399
0.0288549
0.0265264
0.0273067
0.028058
0.027108
0.0293745
0.0262903
0.0267546
0.0291831
0.0301023
0.0263267
0.0299302
0.0277264
0.0309316
0.0259194
0.0303031
0.0285568
0.0292111
0.029133
0.0278485
0.0271682
0.0309154
0.0288884
0.0288631
0.0287125
0.0267326
0.0297216
0.0303727
0.0265414
0.0270283
0.0279705
0.025721
0.0277019
0.029254
0.0244682
0.0304575
0.0248362
0.0281009
0.0291402
0.0255478
0.0279339
0.0286533
0.0269864
0.0287033
0.0271478
0.0288678
0.0259032
0.0294065
0.0260076
0.0280861
0.0228355
0.0288375
0.0260218
0.0267415
0.0293737
0.0267312
0.0275658
0.0306868
0.0291296
0.0292783
0.0301329
0.0251626
0.0290318
0.0273684
0.0288701
0.0288882
0.0281892
0.0301164
0.0291459
0.0265852
0.0264244
0.0298208
0.0288296
0.0290339
0.0249415
0.0301416
0.0309589
0.0296894
0.028942
0.0270166
0.0272087
0.0282586
0.0264469
0.02661
0.029536
0.0285243
0.0278751
0.0283216
0.0282389
0.0286387
0.025822
0.0274244
0.0267752
0.0247189
0.0304806
0.028574
0.0273335
0.0300243
0.0286564
0.0278091
0.0295467
0.0252123
0.0269292
0.0256726
0.0261964
0.0305325
0.0293865
0.0239576
0.0300667
0.0256821
0.0286667
0.0288982
0.0285487
0.0300411
0.0280356
0.0289638
0.0282487
0.0280189
0.0278414
0.0298084
0.0257344
0.0262856
0.0278894
0.0248161
0.0278518
0.0254279
0.0270647
0.0302602
0.0286551
0.0237045
0.0239926
0.0266521
0.0260058
0.0277774
0.0268393
0.0281107
0.0292169
0.0245146
0.0290146
0.0281516
0.0277933
0.0256832
0.0285451
0.0253135
0.0234731
0.0268105
0.0266097
0.0264889
0.0275014
0.0275508
0.0281151
0.0262739
0.0298982
0.0264373
0.0284621
0.0268633
0.0286076
0.0275261
0.026033
0.0291376
0.0282872
0.0247234
0.026911
0.0279017
0.0307313
0.0300721