/*--------------------------------*- C++ -*----------------------------------*\
| =========                 |                                                 |
| \\      /  F ield         | OpenFOAM: The Open Source CFD Toolbox           |
|  \\    /   O peration     | Version:  2212                                  |
|   \\  /    A nd           | Website:  www.openfoam.com                      |
|    \\/     M anipulation  |                                                 |
\*---------------------------------------------------------------------------*/
FoamFile
{
    version     2.0;
    format      ascii;
    arch        "LSB;label=32;scalar=64";
    class       volScalarField;
    location    "0.026";
    object      nut;
}
// * * * * * * * * * * * * * * * * * * * * * * * * * * * * * * * * * * * * * //

dimensions      [0 2 -1 0 0 0 0];

internalField   nonuniform List<scalar> 
31639
(
6.25285e-05
6.01208e-05
6.16754e-05
6.59274e-05
6.06249e-05
5.89037e-05
5.85553e-05
6.31904e-05
6.24043e-05
6.43171e-05
6.41327e-05
6.38121e-05
6.11803e-05
6.53715e-05
5.89976e-05
5.70809e-05
6.28708e-05
5.93523e-05
5.69505e-05
6.04349e-05
5.03624e-05
6.44637e-05
6.54173e-05
5.735e-05
5.63878e-05
6.17605e-05
6.05786e-05
5.40789e-05
5.88963e-05
6.53792e-05
6.44259e-05
5.83838e-05
6.51013e-05
5.66093e-05
5.25653e-05
6.51719e-05
4.86406e-05
6.62912e-05
6.46761e-05
4.70199e-05
5.29929e-05
5.20531e-05
6.39328e-05
6.44701e-05
6.47555e-05
6.44799e-05
5.87951e-05
5.94078e-05
6.2775e-05
6.56034e-05
6.40663e-05
4.81318e-05
6.59821e-05
4.97918e-05
5.83827e-05
6.20696e-05
5.10666e-05
6.07886e-05
6.01783e-05
5.07805e-05
6.12093e-05
6.37047e-05
5.58015e-05
5.98071e-05
6.22513e-05
6.56383e-05
6.13041e-05
6.08874e-05
5.41377e-05
6.54278e-05
6.54025e-05
5.64134e-05
6.33836e-05
6.05785e-05
6.56846e-05
5.22723e-05
6.44746e-05
5.96262e-05
5.94404e-05
6.40608e-05
5.62361e-05
4.679e-05
6.50022e-05
6.18977e-05
6.23586e-05
6.42307e-05
6.55502e-05
6.48575e-05
5.33172e-05
6.62172e-05
6.13774e-05
6.08687e-05
5.1762e-05
5.9765e-05
5.50307e-05
5.90118e-05
6.02138e-05
6.06204e-05
6.12423e-05
5.12333e-05
6.60009e-05
6.41573e-05
5.95208e-05
5.01548e-05
5.13962e-05
6.46597e-05
4.98863e-05
4.90904e-05
5.5212e-05
4.99371e-05
6.29546e-05
5.17676e-05
5.95245e-05
5.80277e-05
6.08797e-05
4.98376e-05
5.91749e-05
5.91757e-05
6.45191e-05
5.99763e-05
6.34514e-05
6.38165e-05
6.32916e-05
6.21696e-05
6.09895e-05
6.51766e-05
6.03957e-05
5.58773e-05
5.49776e-05
6.37558e-05
6.4327e-05
6.36203e-05
6.3931e-05
5.8592e-05
6.34727e-05
6.09419e-05
5.10926e-05
4.97855e-05
6.3626e-05
6.06271e-05
6.04584e-05
6.44251e-05
6.44207e-05
4.94224e-05
4.82198e-05
6.56214e-05
6.41655e-05
5.18388e-05
5.13203e-05
6.44744e-05
5.50831e-05
6.10244e-05
5.70378e-05
6.33254e-05
5.25428e-05
6.55864e-05
6.06922e-05
5.42175e-05
5.31336e-05
5.71618e-05
6.45329e-05
5.29705e-05
5.49268e-05
5.04676e-05
5.20752e-05
5.9363e-05
5.2276e-05
6.54281e-05
6.37088e-05
4.98769e-05
5.62109e-05
5.83313e-05
5.26983e-05
6.12084e-05
6.60693e-05
6.42365e-05
6.13969e-05
6.56634e-05
6.1496e-05
6.08117e-05
5.95407e-05
5.93978e-05
5.82196e-05
4.79734e-05
6.20028e-05
6.59796e-05
5.8672e-05
6.52631e-05
5.1897e-05
5.05933e-05
6.66206e-05
6.38889e-05
6.26105e-05
5.99271e-05
6.05613e-05
5.8544e-05
5.84126e-05
6.34876e-05
5.04264e-05
5.87197e-05
6.49566e-05
6.58662e-05
6.24089e-05
6.26944e-05
6.11007e-05
6.04387e-05
5.91939e-05
5.8896e-05
6.38658e-05
4.80903e-05
5.99e-05
5.90049e-05
6.19327e-05
6.41592e-05
6.28455e-05
6.49237e-05
5.31577e-05
5.68656e-05
6.39925e-05
6.45669e-05
6.29746e-05
5.93769e-05
5.03114e-05
6.04055e-05
5.04543e-05
6.04948e-05
6.3792e-05
5.65576e-05
5.22002e-05
6.32256e-05
6.22196e-05
6.62449e-05
5.33154e-05
5.08536e-05
6.26863e-05
6.31541e-05
5.14382e-05
6.47124e-05
5.53446e-05
4.98178e-05
5.9395e-05
6.22538e-05
6.00416e-05
5.71281e-05
5.57842e-05
6.30375e-05
5.89805e-05
5.81995e-05
5.20571e-05
5.99931e-05
5.83292e-05
5.27072e-05
5.70548e-05
6.56816e-05
6.4748e-05
5.81727e-05
5.30204e-05
6.32983e-05
6.27826e-05
5.97939e-05
6.58001e-05
6.44361e-05
6.2768e-05
6.4718e-05
5.91666e-05
6.02122e-05
4.9773e-05
5.66599e-05
6.4168e-05
5.85449e-05
6.29319e-05
5.78307e-05
6.10553e-05
6.53197e-05
6.56749e-05
6.09732e-05
5.12254e-05
5.92938e-05
5.49274e-05
6.42987e-05
5.98146e-05
6.46526e-05
6.58166e-05
5.80128e-05
5.21874e-05
5.47745e-05
5.28201e-05
5.03838e-05
6.3935e-05
5.37123e-05
6.52387e-05
5.9368e-05
5.73778e-05
5.35111e-05
6.61762e-05
5.81555e-05
5.67361e-05
6.46141e-05
6.08025e-05
5.50366e-05
5.99867e-05
5.33792e-05
6.03836e-05
5.93066e-05
5.25137e-05
5.90515e-05
5.89948e-05
4.66687e-05
4.92033e-05
6.39052e-05
6.53706e-05
6.34286e-05
5.05699e-05
5.31542e-05
6.33151e-05
5.40626e-05
5.46703e-05
6.51648e-05
6.53259e-05
5.86272e-05
6.45294e-05
6.55899e-05
5.25166e-05
6.59628e-05
4.9402e-05
5.02085e-05
6.4236e-05
6.3587e-05
6.4122e-05
6.54897e-05
6.32228e-05
5.33846e-05
5.96836e-05
5.94465e-05
6.45325e-05
6.57041e-05
6.60909e-05
5.93798e-05
5.79541e-05
6.19842e-05
6.35006e-05
6.24275e-05
5.78243e-05
6.01756e-05
5.89828e-05
5.98878e-05
6.36403e-05
5.8558e-05
5.22612e-05
6.27181e-05
6.67746e-05
5.85349e-05
6.54174e-05
6.47314e-05
5.9923e-05
5.26066e-05
5.96396e-05
5.97201e-05
5.04039e-05
6.53256e-05
5.31867e-05
6.1559e-05
6.4494e-05
4.92428e-05
6.02814e-05
5.97654e-05
5.09908e-05
6.13484e-05
5.31354e-05
6.00155e-05
6.57569e-05
6.28258e-05
4.91166e-05
6.21349e-05
5.31216e-05
6.22259e-05
6.42772e-05
6.48466e-05
6.44929e-05
5.32607e-05
6.30478e-05
5.0453e-05
5.89296e-05
4.98705e-05
6.51141e-05
6.37521e-05
6.46753e-05
6.418e-05
5.57435e-05
6.55057e-05
6.01249e-05
6.20646e-05
5.95889e-05
5.38313e-05
6.03397e-05
6.28575e-05
6.19802e-05
6.31043e-05
6.17601e-05
6.32154e-05
5.97246e-05
5.20323e-05
6.035e-05
6.37798e-05
6.30556e-05
4.92369e-05
6.47631e-05
6.39639e-05
5.98836e-05
6.20772e-05
6.27423e-05
6.10013e-05
6.50447e-05
5.1213e-05
6.22795e-05
6.47697e-05
4.939e-05
6.11742e-05
6.19437e-05
5.32135e-05
5.08245e-05
5.13107e-05
5.81372e-05
5.09303e-05
6.00093e-05
6.00651e-05
5.764e-05
6.55e-05
5.21228e-05
6.38099e-05
6.52473e-05
6.01488e-05
6.32646e-05
5.89031e-05
6.45071e-05
6.02032e-05
6.07507e-05
6.57006e-05
6.01554e-05
5.12591e-05
6.03957e-05
6.53582e-05
6.43372e-05
6.30263e-05
6.57457e-05
5.85402e-05
6.22519e-05
6.35115e-05
6.57601e-05
6.57446e-05
5.26355e-05
5.9538e-05
4.77284e-05
5.94631e-05
5.92597e-05
5.21605e-05
5.0156e-05
5.86205e-05
6.30795e-05
6.39943e-05
5.12142e-05
6.28949e-05
5.7131e-05
5.98129e-05
6.34426e-05
4.76448e-05
5.92905e-05
4.99611e-05
5.85708e-05
6.42468e-05
6.64437e-05
6.31273e-05
6.00859e-05
4.95549e-05
6.29505e-05
6.04694e-05
6.34922e-05
5.0577e-05
5.20064e-05
5.97224e-05
5.17274e-05
5.29793e-05
6.2155e-05
5.0493e-05
5.8411e-05
5.13897e-05
6.28652e-05
5.19594e-05
6.54886e-05
6.39337e-05
6.40989e-05
6.47887e-05
5.53647e-05
6.41732e-05
6.48432e-05
6.15415e-05
6.38256e-05
6.0733e-05
6.39164e-05
6.64527e-05
5.77871e-05
6.47746e-05
6.55922e-05
5.98814e-05
5.56099e-05
6.56556e-05
6.04953e-05
4.8419e-05
4.94879e-05
6.05564e-05
6.46965e-05
6.53078e-05
5.91259e-05
6.61837e-05
6.65217e-05
6.32573e-05
6.11115e-05
5.9196e-05
6.06908e-05
5.34087e-05
5.94976e-05
6.22485e-05
6.55636e-05
5.48495e-05
5.45468e-05
5.397e-05
5.74912e-05
5.97505e-05
4.82759e-05
6.31094e-05
5.71535e-05
6.25481e-05
6.01812e-05
6.37359e-05
6.03247e-05
5.23444e-05
6.17311e-05
6.49255e-05
5.43481e-05
6.38289e-05
6.62197e-05
6.04247e-05
5.93446e-05
5.44541e-05
5.44197e-05
5.99793e-05
6.06387e-05
5.27914e-05
5.22373e-05
6.07332e-05
5.61236e-05
6.28733e-05
5.53987e-05
5.94802e-05
6.44237e-05
6.01885e-05
5.07679e-05
5.63565e-05
6.06955e-05
6.49959e-05
5.13692e-05
4.76922e-05
6.41847e-05
5.08487e-05
6.14619e-05
6.61344e-05
5.13488e-05
6.04934e-05
6.50049e-05
6.06038e-05
5.07086e-05
6.44768e-05
6.02568e-05
5.14114e-05
6.41088e-05
6.13044e-05
5.87457e-05
6.39175e-05
4.91083e-05
5.69733e-05
6.00446e-05
5.88374e-05
5.64113e-05
6.10316e-05
6.5351e-05
6.49138e-05
6.32036e-05
6.51791e-05
6.42513e-05
6.32275e-05
5.61518e-05
6.29041e-05
6.52242e-05
6.7595e-05
5.45983e-05
6.07554e-05
6.14735e-05
6.73776e-05
5.27869e-05
4.89047e-05
6.53796e-05
5.47511e-05
6.61612e-05
5.82597e-05
5.2252e-05
6.06076e-05
6.44144e-05
6.04127e-05
6.25794e-05
5.02427e-05
6.37774e-05
6.13772e-05
4.95979e-05
6.52505e-05
6.37205e-05
5.24994e-05
5.25702e-05
5.32742e-05
5.8968e-05
6.08394e-05
6.0681e-05
5.97111e-05
6.05995e-05
6.39121e-05
6.06348e-05
6.00955e-05
5.27806e-05
6.56071e-05
5.03697e-05
6.03399e-05
5.96936e-05
5.82602e-05
6.65053e-05
6.03938e-05
5.48924e-05
5.0043e-05
5.22759e-05
5.95321e-05
6.48665e-05
5.34907e-05
6.5687e-05
5.98704e-05
6.38185e-05
5.20473e-05
5.85161e-05
6.33659e-05
6.57673e-05
6.44808e-05
6.33685e-05
6.09443e-05
5.99872e-05
6.58074e-05
6.56377e-05
6.48137e-05
5.51865e-05
6.43929e-05
5.2481e-05
6.51116e-05
6.39417e-05
5.94129e-05
5.33239e-05
5.85267e-05
4.79104e-05
6.46653e-05
6.08694e-05
6.61665e-05
6.0124e-05
5.77325e-05
5.20731e-05
6.47864e-05
5.04515e-05
4.78877e-05
5.3414e-05
5.51569e-05
5.26586e-05
5.9962e-05
5.10194e-05
6.2711e-05
6.22302e-05
4.78056e-05
6.56866e-05
5.24679e-05
5.64638e-05
5.85614e-05
5.77291e-05
6.33708e-05
6.50509e-05
6.60372e-05
6.49995e-05
5.92109e-05
6.06407e-05
5.84827e-05
5.88687e-05
4.98816e-05
4.07547e-05
6.513e-05
5.94806e-05
6.33532e-05
6.41065e-05
5.14002e-05
6.46375e-05
6.56188e-05
6.33039e-05
6.37406e-05
6.33941e-05
6.15606e-05
6.52365e-05
6.59001e-05
6.06562e-05
6.42722e-05
6.41986e-05
5.33385e-05
6.43816e-05
5.80355e-05
6.37129e-05
5.79872e-05
5.9957e-05
5.64282e-05
6.62589e-05
5.88162e-05
6.07247e-05
5.98458e-05
5.25895e-05
6.55574e-05
6.14118e-05
5.78147e-05
5.18835e-05
6.31203e-05
4.9476e-05
6.42983e-05
6.32498e-05
5.81665e-05
6.55814e-05
6.60471e-05
6.5344e-05
5.1249e-05
6.02129e-05
6.00248e-05
6.06864e-05
5.31568e-05
6.32269e-05
6.40825e-05
5.76602e-05
6.02986e-05
5.73284e-05
6.27348e-05
5.84148e-05
5.95515e-05
4.93076e-05
6.36522e-05
6.20355e-05
6.46776e-05
5.57534e-05
6.029e-05
6.15352e-05
5.98665e-05
5.69799e-05
6.12783e-05
6.37215e-05
5.92329e-05
4.93907e-05
4.95976e-05
5.92604e-05
4.87466e-05
5.26775e-05
6.15115e-05
6.14822e-05
6.39511e-05
4.91457e-05
5.93603e-05
6.51139e-05
5.33016e-05
5.04092e-05
6.11794e-05
5.33113e-05
6.28646e-05
5.43429e-05
6.52205e-05
5.63438e-05
5.75971e-05
6.54591e-05
4.9727e-05
5.87005e-05
5.89092e-05
6.39737e-05
6.49362e-05
6.48889e-05
5.34121e-05
6.3162e-05
6.49194e-05
5.79199e-05
6.5541e-05
6.35929e-05
6.28643e-05
6.51013e-05
6.06879e-05
6.6623e-05
6.5916e-05
6.62836e-05
6.26331e-05
5.82435e-05
6.09842e-05
6.01876e-05
5.12155e-05
5.88324e-05
6.23089e-05
6.43106e-05
6.5644e-05
5.92e-05
6.59771e-05
6.38154e-05
5.78034e-05
6.37821e-05
6.44168e-05
6.31809e-05
6.34708e-05
5.21616e-05
5.84104e-05
6.48793e-05
4.87459e-05
5.99378e-05
5.9489e-05
5.95567e-05
5.91411e-05
6.54242e-05
6.3151e-05
6.41146e-05
6.02466e-05
6.29576e-05
6.11563e-05
6.44231e-05
6.10982e-05
5.89338e-05
5.25634e-05
6.44723e-05
5.30385e-05
5.84862e-05
5.99215e-05
5.81313e-05
6.13875e-05
6.57042e-05
5.22128e-05
6.57419e-05
5.25895e-05
6.11135e-05
5.88897e-05
5.93295e-05
5.98068e-05
6.53822e-05
5.1702e-05
6.35061e-05
6.43685e-05
6.50643e-05
6.10754e-05
6.17793e-05
4.82641e-05
6.5152e-05
6.40998e-05
6.31019e-05
6.34858e-05
6.42483e-05
6.03689e-05
6.12389e-05
6.08888e-05
5.33821e-05
5.97656e-05
6.54026e-05
5.01853e-05
5.44819e-05
6.74854e-05
6.41519e-05
5.6653e-05
5.83859e-05
6.12976e-05
5.69528e-05
5.93709e-05
5.42094e-05
6.36752e-05
6.54231e-05
4.86058e-05
6.11179e-05
6.4779e-05
6.36555e-05
6.52839e-05
5.87287e-05
6.42423e-05
5.36168e-05
5.30787e-05
6.56646e-05
6.43705e-05
5.98522e-05
5.31204e-05
6.33505e-05
6.44203e-05
5.52688e-05
6.47541e-05
6.43809e-05
6.46499e-05
6.24817e-05
6.44226e-05
6.10007e-05
6.14262e-05
5.93295e-05
5.74795e-05
5.07724e-05
6.1414e-05
6.09296e-05
5.32338e-05
6.48138e-05
4.99745e-05
5.8443e-05
5.97257e-05
5.25265e-05
5.94512e-05
5.78207e-05
6.29929e-05
6.11449e-05
6.40145e-05
5.17086e-05
5.22962e-05
5.88618e-05
5.17447e-05
5.78296e-05
6.44092e-05
5.92774e-05
6.47231e-05
6.05551e-05
6.01159e-05
6.48172e-05
5.81713e-05
6.08263e-05
5.98046e-05
5.95905e-05
6.2253e-05
5.39832e-05
6.0801e-05
6.36169e-05
6.51302e-05
6.63047e-05
5.16032e-05
5.12538e-05
5.99691e-05
6.47393e-05
5.38966e-05
5.87368e-05
6.20067e-05
6.01568e-05
6.71218e-05
5.96257e-05
5.88876e-05
6.3325e-05
5.15219e-05
6.46218e-05
6.51747e-05
5.2919e-05
5.66488e-05
5.95788e-05
5.79151e-05
6.56693e-05
6.48729e-05
6.22097e-05
5.36513e-05
6.4147e-05
5.15923e-05
5.90133e-05
6.43235e-05
5.70414e-05
6.65429e-05
5.01476e-05
6.00095e-05
6.21585e-05
6.0584e-05
5.04705e-05
5.04695e-05
6.46737e-05
6.51635e-05
5.84483e-05
6.53059e-05
6.20778e-05
5.97507e-05
5.2041e-05
5.4601e-05
6.16926e-05
6.02452e-05
6.01046e-05
6.58279e-05
6.45879e-05
6.67324e-05
6.52198e-05
6.19086e-05
6.19105e-05
6.34217e-05
5.23854e-05
6.40664e-05
6.28572e-05
6.10313e-05
6.16249e-05
6.52445e-05
5.94472e-05
6.53239e-05
5.93812e-05
4.87518e-05
6.60675e-05
5.69656e-05
6.51938e-05
5.81721e-05
6.41506e-05
5.30417e-05
6.29931e-05
6.73212e-05
6.00806e-05
6.0571e-05
5.12647e-05
6.37943e-05
6.54617e-05
6.21414e-05
5.17289e-05
6.79725e-05
6.04933e-05
6.22534e-05
6.51751e-05
6.42766e-05
6.37188e-05
5.96591e-05
6.00497e-05
6.65686e-05
5.29049e-05
5.35931e-05
5.2829e-05
5.53977e-05
6.16175e-05
5.04848e-05
6.56347e-05
6.45608e-05
6.60338e-05
5.91325e-05
5.99683e-05
6.07969e-05
6.49588e-05
6.06446e-05
6.1053e-05
6.49523e-05
6.52264e-05
6.02051e-05
6.42722e-05
6.05557e-05
5.91447e-05
6.32498e-05
5.8052e-05
6.60852e-05
6.57919e-05
6.59658e-05
6.59263e-05
6.50487e-05
5.6881e-05
6.70022e-05
6.11242e-05
6.17884e-05
5.90211e-05
6.17721e-05
6.64279e-05
6.03938e-05
6.38618e-05
5.83873e-05
6.02353e-05
6.30772e-05
5.39879e-05
5.13218e-05
5.9559e-05
5.91533e-05
6.57623e-05
5.75701e-05
5.04725e-05
6.18717e-05
6.39938e-05
5.5158e-05
5.78028e-05
6.08644e-05
6.57617e-05
6.54739e-05
5.87847e-05
5.57369e-05
6.04056e-05
6.35475e-05
5.83214e-05
6.15328e-05
6.07854e-05
5.07289e-05
5.82648e-05
5.78582e-05
6.30581e-05
6.47523e-05
6.06611e-05
6.52968e-05
6.33764e-05
6.06374e-05
6.1677e-05
5.30086e-05
5.4753e-05
5.0219e-05
6.49349e-05
6.13624e-05
6.57065e-05
6.84901e-05
6.35183e-05
5.09219e-05
6.34826e-05
5.85646e-05
6.28574e-05
6.25829e-05
6.36024e-05
5.09341e-05
6.6131e-05
5.25199e-05
6.07477e-05
6.15259e-05
5.99436e-05
6.67949e-05
5.96722e-05
6.31699e-05
5.34632e-05
5.97038e-05
6.08753e-05
6.39265e-05
5.67178e-05
5.43958e-05
6.31172e-05
6.46426e-05
6.24354e-05
6.29375e-05
6.56967e-05
5.2678e-05
5.979e-05
5.93872e-05
5.53588e-05
6.41031e-05
6.57986e-05
6.57399e-05
6.45802e-05
6.62884e-05
5.34132e-05
5.25277e-05
5.31524e-05
6.64164e-05
5.12987e-05
6.34557e-05
6.21015e-05
5.26246e-05
5.83693e-05
6.39796e-05
6.48121e-05
5.64199e-05
5.78008e-05
5.86295e-05
6.08869e-05
6.55436e-05
6.14707e-05
5.29262e-05
6.06767e-05
6.61108e-05
6.48823e-05
6.61102e-05
6.55173e-05
6.8027e-05
6.57999e-05
6.41794e-05
5.37287e-05
5.15049e-05
6.0861e-05
5.67116e-05
6.53798e-05
5.18145e-05
6.16773e-05
5.97814e-05
6.56535e-05
5.3757e-05
6.28419e-05
6.39457e-05
6.19056e-05
5.86561e-05
5.23991e-05
6.40541e-05
5.75124e-05
6.61476e-05
6.0697e-05
6.77377e-05
6.57715e-05
6.10275e-05
5.12975e-05
5.22262e-05
5.96262e-05
6.1836e-05
5.7394e-05
6.70798e-05
5.29685e-05
6.5233e-05
6.33683e-05
5.84085e-05
6.26924e-05
6.44898e-05
6.51632e-05
6.53971e-05
6.59816e-05
6.16005e-05
6.25796e-05
5.09938e-05
5.76352e-05
6.53092e-05
5.36008e-05
6.27534e-05
5.93272e-05
5.32874e-05
6.02992e-05
6.24818e-05
5.98549e-05
6.32258e-05
6.4183e-05
5.27158e-05
5.94481e-05
6.10005e-05
5.21269e-05
5.7829e-05
5.93745e-05
5.8918e-05
6.31648e-05
5.31567e-05
5.28772e-05
5.9916e-05
5.84422e-05
6.51253e-05
6.65337e-05
6.51924e-05
5.87832e-05
5.90114e-05
6.11308e-05
5.79505e-05
6.52496e-05
5.29962e-05
6.05145e-05
5.977e-05
6.5867e-05
6.33706e-05
5.98509e-05
6.06505e-05
6.45957e-05
5.26761e-05
6.09924e-05
6.54624e-05
5.82447e-05
4.57362e-05
6.05206e-05
5.19612e-05
6.2059e-05
4.99521e-05
6.59716e-05
6.58249e-05
6.51955e-05
6.16533e-05
5.33963e-05
5.17299e-05
6.41945e-05
6.60581e-05
6.53491e-05
6.09038e-05
6.1034e-05
6.31707e-05
6.62514e-05
6.49654e-05
5.09674e-05
6.00621e-05
6.15512e-05
6.26856e-05
5.87781e-05
6.3185e-05
5.04671e-05
6.57775e-05
6.44471e-05
6.17314e-05
6.13748e-05
6.31292e-05
6.05258e-05
6.58708e-05
6.2744e-05
5.35286e-05
6.01067e-05
6.32852e-05
5.94738e-05
6.14343e-05
6.24005e-05
5.02162e-05
5.42718e-05
6.4861e-05
6.60737e-05
6.43451e-05
6.58459e-05
6.36448e-05
6.46177e-05
6.23776e-05
6.10607e-05
6.25938e-05
6.4731e-05
5.82112e-05
6.0091e-05
5.7869e-05
6.06183e-05
6.45347e-05
4.97166e-05
6.15867e-05
5.05851e-05
6.43204e-05
5.08165e-05
5.16183e-05
5.96864e-05
4.91459e-05
6.00392e-05
6.21582e-05
6.44719e-05
6.44799e-05
5.71006e-05
5.71649e-05
6.71021e-05
5.56587e-05
5.30042e-05
5.95693e-05
5.65741e-05
6.52587e-05
6.25313e-05
6.16562e-05
5.26352e-05
6.43259e-05
6.52565e-05
6.54712e-05
5.17681e-05
5.51337e-05
6.05341e-05
6.45479e-05
6.65894e-05
5.31092e-05
5.12626e-05
6.37425e-05
6.09398e-05
6.60147e-05
6.02909e-05
4.96713e-05
6.27259e-05
6.43754e-05
5.20171e-05
5.00328e-05
6.48883e-05
5.41124e-05
5.38218e-05
6.53351e-05
6.60734e-05
6.31777e-05
6.74242e-05
5.97306e-05
5.85968e-05
6.48885e-05
5.69794e-05
6.51792e-05
5.78061e-05
6.26893e-05
6.48418e-05
5.93875e-05
5.21453e-05
6.38744e-05
6.4612e-05
5.87199e-05
6.0004e-05
6.08813e-05
5.54513e-05
5.68336e-05
6.14573e-05
6.25678e-05
6.53904e-05
5.80773e-05
6.36334e-05
5.11742e-05
6.34158e-05
6.63575e-05
5.06002e-05
6.48215e-05
6.11998e-05
4.73611e-05
5.20311e-05
6.10566e-05
6.02146e-05
6.38073e-05
5.82975e-05
5.33285e-05
6.46036e-05
6.61923e-05
6.55128e-05
6.22964e-05
6.53837e-05
5.14694e-05
6.50209e-05
6.03905e-05
5.18123e-05
5.25607e-05
4.67314e-05
5.28108e-05
6.32112e-05
5.87858e-05
6.19624e-05
6.0705e-05
5.52847e-05
5.64238e-05
4.94879e-05
4.94732e-05
6.73819e-05
6.64228e-05
5.32132e-05
6.52151e-05
6.42652e-05
5.30525e-05
5.96606e-05
6.12213e-05
5.50114e-05
5.78249e-05
6.54306e-05
5.40644e-05
4.94012e-05
6.55312e-05
6.66379e-05
5.68173e-05
6.51588e-05
5.91694e-05
5.48861e-05
5.3024e-05
6.02636e-05
5.17894e-05
5.21012e-05
6.12727e-05
6.28831e-05
5.97048e-05
6.51478e-05
6.50664e-05
5.97711e-05
6.57175e-05
4.24056e-05
6.00582e-05
5.15132e-05
6.0833e-05
6.56208e-05
5.96493e-05
5.7184e-05
5.97589e-05
5.29969e-05
6.2271e-05
6.00007e-05
5.73895e-05
5.20384e-05
4.91892e-05
4.85125e-05
5.82552e-05
5.18891e-05
6.01031e-05
5.23244e-05
5.90136e-05
6.51146e-05
6.22881e-05
5.92597e-05
6.13826e-05
6.2941e-05
6.0121e-05
6.38871e-05
5.07085e-05
6.10837e-05
6.59077e-05
6.56371e-05
5.91847e-05
6.71974e-05
5.48135e-05
6.41877e-05
5.94897e-05
5.11506e-05
6.36138e-05
6.58219e-05
6.28694e-05
6.35787e-05
6.54001e-05
6.20849e-05
4.88017e-05
4.97168e-05
5.91892e-05
6.6161e-05
6.17758e-05
6.42158e-05
5.75413e-05
5.87635e-05
5.48089e-05
5.07938e-05
5.06799e-05
5.07482e-05
6.33406e-05
6.15673e-05
6.55764e-05
5.83723e-05
5.83675e-05
6.64794e-05
5.03869e-05
6.07291e-05
6.57251e-05
6.54723e-05
5.72899e-05
5.83635e-05
6.38423e-05
6.60745e-05
6.54624e-05
5.21001e-05
6.09801e-05
6.37632e-05
6.23254e-05
6.0916e-05
6.74299e-05
6.44021e-05
6.54334e-05
6.13447e-05
5.65726e-05
6.0702e-05
6.53818e-05
6.35687e-05
6.04282e-05
5.16119e-05
6.48622e-05
6.43961e-05
6.52707e-05
6.38483e-05
5.0887e-05
4.78863e-05
5.94288e-05
6.3435e-05
5.98823e-05
6.14975e-05
6.36999e-05
6.38549e-05
6.43783e-05
5.80448e-05
6.34597e-05
6.05428e-05
6.42206e-05
5.18126e-05
5.15348e-05
5.81448e-05
6.52725e-05
5.29185e-05
6.44841e-05
5.22312e-05
5.93956e-05
6.04832e-05
6.57774e-05
5.94563e-05
6.43866e-05
6.48029e-05
6.45122e-05
6.17156e-05
6.37401e-05
6.09941e-05
5.79899e-05
4.93241e-05
6.601e-05
4.71743e-05
5.04557e-05
5.20325e-05
4.98488e-05
5.01798e-05
5.88565e-05
6.10653e-05
5.25568e-05
5.78369e-05
4.73771e-05
5.34163e-05
5.88623e-05
6.50192e-05
5.02307e-05
5.16999e-05
6.39002e-05
5.03344e-05
5.95228e-05
6.38071e-05
6.21119e-05
6.03313e-05
5.25821e-05
5.07509e-05
5.83351e-05
6.58262e-05
5.50209e-05
5.21367e-05
6.18265e-05
5.78832e-05
6.16132e-05
5.98786e-05
5.26153e-05
6.56823e-05
4.96085e-05
5.11793e-05
5.94265e-05
6.51881e-05
5.77572e-05
5.94999e-05
5.98659e-05
6.08515e-05
4.89191e-05
5.37088e-05
5.87832e-05
6.59288e-05
6.29913e-05
5.07066e-05
4.82315e-05
5.97898e-05
6.60728e-05
5.96707e-05
6.00924e-05
5.76366e-05
5.85041e-05
5.99457e-05
5.16185e-05
6.53319e-05
5.71825e-05
5.18696e-05
4.7902e-05
6.36983e-05
6.04361e-05
6.60044e-05
6.16586e-05
6.40732e-05
5.14952e-05
5.94259e-05
4.92941e-05
4.75959e-05
6.44386e-05
5.29286e-05
5.92677e-05
6.05225e-05
6.27221e-05
5.19884e-05
6.56492e-05
6.41737e-05
6.55983e-05
6.2239e-05
4.5067e-05
6.05403e-05
4.963e-05
6.60827e-05
5.24517e-05
6.5534e-05
4.76788e-05
6.18063e-05
6.35341e-05
5.76177e-05
5.85923e-05
4.83558e-05
5.63735e-05
6.03576e-05
6.45787e-05
6.27808e-05
6.51234e-05
6.56239e-05
5.13508e-05
6.55581e-05
5.68463e-05
6.15432e-05
6.18668e-05
6.44012e-05
6.41038e-05
6.04364e-05
6.60842e-05
5.91487e-05
5.67778e-05
5.68961e-05
6.14807e-05
6.54016e-05
5.61704e-05
5.41277e-05
6.51153e-05
6.30482e-05
5.99915e-05
6.74605e-05
6.20476e-05
6.1919e-05
6.39033e-05
6.4745e-05
6.53693e-05
5.97082e-05
5.81169e-05
6.45506e-05
6.37262e-05
5.37761e-05
5.96378e-05
5.62718e-05
6.59403e-05
6.14715e-05
6.43325e-05
5.23099e-05
5.2548e-05
6.07433e-05
6.37906e-05
6.46299e-05
6.59245e-05
6.46853e-05
6.13327e-05
6.28506e-05
5.28099e-05
6.07641e-05
6.05926e-05
6.49468e-05
6.55596e-05
6.52808e-05
5.96571e-05
6.56012e-05
5.37096e-05
6.53521e-05
5.62714e-05
5.92727e-05
5.85822e-05
6.06874e-05
5.86186e-05
6.37409e-05
5.15447e-05
6.45727e-05
6.47115e-05
5.96619e-05
5.25113e-05
6.65237e-05
6.31969e-05
6.50906e-05
6.00137e-05
6.07739e-05
6.37138e-05
5.11628e-05
6.53572e-05
5.96304e-05
6.1182e-05
5.59407e-05
5.6371e-05
5.55521e-05
5.10395e-05
5.75937e-05
6.62812e-05
6.11372e-05
4.98738e-05
6.26498e-05
5.07537e-05
6.17044e-05
6.15552e-05
4.91937e-05
5.06871e-05
5.6845e-05
6.12597e-05
6.37927e-05
5.80066e-05
6.36941e-05
5.97125e-05
5.51793e-05
5.72189e-05
6.54216e-05
6.54034e-05
6.49214e-05
6.32968e-05
6.21826e-05
5.16329e-05
5.22896e-05
6.57358e-05
5.87462e-05
6.11074e-05
6.43509e-05
6.69006e-05
6.07629e-05
6.2276e-05
4.90545e-05
6.39338e-05
6.47211e-05
5.78461e-05
6.56445e-05
6.50291e-05
6.19074e-05
5.78862e-05
6.33328e-05
5.8311e-05
4.96704e-05
6.0848e-05
5.26468e-05
5.09639e-05
6.1386e-05
6.05646e-05
6.44425e-05
6.44282e-05
6.13559e-05
6.5109e-05
4.79704e-05
5.79947e-05
6.61169e-05
6.6044e-05
5.03262e-05
6.08171e-05
5.37784e-05
5.78189e-05
6.52132e-05
5.7777e-05
6.25038e-05
6.65954e-05
6.29183e-05
4.91432e-05
6.43887e-05
5.14433e-05
6.48036e-05
6.32863e-05
6.18036e-05
6.46873e-05
6.13926e-05
6.48478e-05
5.19816e-05
6.53903e-05
6.54264e-05
5.34313e-05
6.22222e-05
6.01527e-05
5.90674e-05
6.40881e-05
5.9773e-05
6.40619e-05
6.57666e-05
6.56986e-05
6.03534e-05
6.55313e-05
6.03546e-05
6.31984e-05
5.42624e-05
5.74191e-05
5.10498e-05
5.01377e-05
6.17993e-05
6.24605e-05
6.00754e-05
6.55455e-05
5.8962e-05
6.5612e-05
4.97812e-05
6.61314e-05
6.60021e-05
6.27072e-05
6.53786e-05
5.41104e-05
4.94703e-05
5.99483e-05
5.07663e-05
6.41823e-05
6.07406e-05
4.92172e-05
5.91463e-05
6.5944e-05
6.33708e-05
5.05724e-05
5.56502e-05
4.87955e-05
6.63029e-05
5.12677e-05
6.40445e-05
5.64912e-05
5.1732e-05
6.51047e-05
6.57159e-05
6.52539e-05
6.34707e-05
5.20192e-05
6.2518e-05
6.61011e-05
5.35596e-05
6.49714e-05
6.32187e-05
6.56511e-05
4.98134e-05
6.34818e-05
5.81279e-05
6.29194e-05
5.81976e-05
5.92191e-05
5.81598e-05
5.80039e-05
5.87058e-05
5.90048e-05
6.32663e-05
5.98097e-05
6.59146e-05
5.40439e-05
5.96732e-05
6.10918e-05
6.37617e-05
6.59151e-05
5.11774e-05
6.37391e-05
5.26729e-05
5.90707e-05
6.54631e-05
6.57445e-05
5.95778e-05
6.19362e-05
6.34663e-05
5.81318e-05
6.00563e-05
5.95822e-05
5.13681e-05
5.07846e-05
6.18485e-05
6.42832e-05
6.04181e-05
5.83421e-05
6.43988e-05
5.24684e-05
6.16059e-05
5.22569e-05
6.26923e-05
6.56335e-05
6.05304e-05
5.08645e-05
6.43754e-05
5.11263e-05
6.21482e-05
6.51792e-05
4.99802e-05
6.6273e-05
5.35046e-05
5.7833e-05
5.92649e-05
5.08802e-05
5.6782e-05
5.79818e-05
4.82575e-05
6.50717e-05
6.61122e-05
4.72816e-05
5.73569e-05
6.32826e-05
6.17515e-05
6.17806e-05
6.63727e-05
6.488e-05
5.94589e-05
5.61703e-05
5.01316e-05
4.85693e-05
5.40898e-05
6.61461e-05
6.41923e-05
6.29355e-05
6.2697e-05
5.14745e-05
5.1752e-05
5.95163e-05
6.49193e-05
4.88884e-05
6.2263e-05
6.01524e-05
5.93082e-05
6.30394e-05
5.75835e-05
6.40538e-05
5.57706e-05
6.03351e-05
6.67013e-05
4.6217e-05
6.11869e-05
6.50159e-05
6.44518e-05
6.29453e-05
6.41055e-05
6.158e-05
5.11064e-05
6.65307e-05
6.74356e-05
6.01706e-05
6.09574e-05
5.74927e-05
6.01061e-05
6.29201e-05
6.35796e-05
6.08563e-05
5.96523e-05
5.89185e-05
5.0339e-05
5.84669e-05
6.5853e-05
6.31643e-05
6.6916e-05
6.12915e-05
6.0211e-05
6.61924e-05
5.20892e-05
6.40256e-05
5.12831e-05
6.59663e-05
6.30897e-05
5.81643e-05
6.6905e-05
5.76072e-05
5.98954e-05
6.63091e-05
5.87267e-05
6.61658e-05
6.41747e-05
6.38564e-05
5.14555e-05
6.04823e-05
5.97445e-05
5.51498e-05
6.41159e-05
5.8364e-05
5.89159e-05
6.6315e-05
5.17234e-05
6.52321e-05
6.05308e-05
6.52692e-05
5.85238e-05
6.16443e-05
5.17792e-05
5.34728e-05
6.69771e-05
5.19714e-05
6.02994e-05
6.40937e-05
5.15368e-05
5.96366e-05
6.44388e-05
5.72593e-05
5.29421e-05
5.62338e-05
5.87341e-05
5.84375e-05
6.45164e-05
5.95016e-05
6.55485e-05
6.22582e-05
6.46436e-05
4.9334e-05
5.57109e-05
6.58599e-05
5.96631e-05
5.10521e-05
5.33239e-05
6.07259e-05
5.26156e-05
5.10466e-05
6.02797e-05
5.93636e-05
6.58138e-05
5.82995e-05
6.41894e-05
6.50381e-05
6.45451e-05
6.41866e-05
6.42236e-05
5.80408e-05
5.68812e-05
6.38335e-05
5.94757e-05
5.79324e-05
6.55891e-05
5.99064e-05
5.0486e-05
5.0287e-05
5.94435e-05
5.20436e-05
6.30765e-05
6.40324e-05
5.74993e-05
6.43093e-05
6.39868e-05
6.37856e-05
6.70795e-05
6.01878e-05
5.18161e-05
5.79213e-05
5.8592e-05
6.42825e-05
5.7744e-05
6.29497e-05
6.57169e-05
5.92611e-05
5.79183e-05
6.10804e-05
6.52446e-05
6.31509e-05
6.8317e-05
6.46565e-05
5.97765e-05
6.07251e-05
5.36408e-05
5.83247e-05
6.53366e-05
5.43802e-05
6.56485e-05
5.77464e-05
6.40825e-05
5.11622e-05
6.32811e-05
6.04151e-05
6.43057e-05
5.97817e-05
6.24787e-05
6.00252e-05
6.4194e-05
4.99924e-05
5.34692e-05
6.03598e-05
5.7603e-05
6.14795e-05
6.06331e-05
6.07157e-05
6.54743e-05
6.20348e-05
5.03626e-05
5.65926e-05
5.13217e-05
6.14376e-05
6.03599e-05
5.2442e-05
6.72606e-05
6.03513e-05
5.94876e-05
6.37998e-05
5.56522e-05
5.29523e-05
6.55914e-05
5.26349e-05
5.04988e-05
5.73116e-05
5.69647e-05
5.35473e-05
5.64497e-05
6.5322e-05
6.42117e-05
5.80871e-05
6.13783e-05
6.38946e-05
6.03144e-05
6.37744e-05
5.02073e-05
6.47657e-05
4.3718e-05
6.41603e-05
5.17809e-05
5.11995e-05
6.48187e-05
5.03943e-05
5.96593e-05
6.22356e-05
6.43363e-05
5.76398e-05
6.1817e-05
5.80408e-05
5.97337e-05
5.75187e-05
6.30695e-05
6.15083e-05
6.44276e-05
6.02344e-05
5.22852e-05
6.32022e-05
5.93573e-05
5.93962e-05
5.84432e-05
5.38377e-05
5.58825e-05
4.96114e-05
5.08024e-05
6.03118e-05
5.91227e-05
5.35527e-05
5.78103e-05
6.47951e-05
6.5276e-05
6.53655e-05
4.27328e-05
5.05995e-05
6.53622e-05
5.13164e-05
6.38877e-05
5.05149e-05
6.47525e-05
6.46964e-05
6.44789e-05
5.20393e-05
5.93702e-05
6.58906e-05
6.56941e-05
6.19994e-05
6.55093e-05
5.99389e-05
6.17287e-05
5.96269e-05
5.1332e-05
6.20008e-05
5.71149e-05
6.05435e-05
6.03876e-05
5.49537e-05
5.91267e-05
6.51704e-05
5.65358e-05
5.6484e-05
5.11973e-05
6.3263e-05
6.33294e-05
4.87586e-05
6.00839e-05
6.01047e-05
6.26999e-05
5.22079e-05
6.08829e-05
6.01449e-05
6.63899e-05
4.96149e-05
6.0034e-05
5.95419e-05
4.92338e-05
6.43256e-05
5.23326e-05
5.34374e-05
6.22916e-05
6.53579e-05
4.94038e-05
6.4524e-05
6.19265e-05
5.91891e-05
4.98818e-05
6.55115e-05
6.54504e-05
4.93257e-05
6.03025e-05
4.87203e-05
5.25496e-05
6.54181e-05
5.8351e-05
6.18127e-05
6.48548e-05
6.53837e-05
5.84529e-05
5.74163e-05
5.95114e-05
5.92578e-05
6.14696e-05
5.75118e-05
6.47204e-05
5.17609e-05
5.76425e-05
6.02194e-05
5.89101e-05
6.28108e-05
5.91681e-05
6.24401e-05
6.33153e-05
6.01875e-05
6.57111e-05
6.30348e-05
5.87262e-05
5.66065e-05
6.33907e-05
5.85754e-05
5.72846e-05
6.26839e-05
6.57984e-05
6.32089e-05
6.38759e-05
5.69073e-05
6.31591e-05
5.69245e-05
5.17418e-05
5.98609e-05
6.214e-05
5.19578e-05
6.25238e-05
5.91182e-05
4.75183e-05
5.08171e-05
6.36812e-05
4.94308e-05
5.92184e-05
6.41247e-05
6.21292e-05
5.17424e-05
6.24493e-05
6.68012e-05
5.23733e-05
5.16053e-05
5.21872e-05
6.47782e-05
6.00268e-05
5.95697e-05
6.5316e-05
5.07706e-05
6.27463e-05
6.02536e-05
6.56553e-05
6.63596e-05
4.54261e-05
6.04437e-05
6.32693e-05
6.44495e-05
6.12619e-05
5.89127e-05
5.2079e-05
6.2038e-05
6.56979e-05
5.65745e-05
4.97112e-05
5.86758e-05
6.44458e-05
6.23809e-05
5.11151e-05
5.9461e-05
6.35427e-05
6.46696e-05
5.9403e-05
5.91522e-05
4.88663e-05
5.19453e-05
5.16405e-05
6.0668e-05
5.87112e-05
6.16102e-05
6.5816e-05
6.49075e-05
5.34801e-05
6.42649e-05
6.48696e-05
6.19975e-05
5.7815e-05
6.42443e-05
5.86611e-05
5.26987e-05
5.76405e-05
6.12437e-05
6.07182e-05
5.53687e-05
6.2537e-05
5.86348e-05
6.45564e-05
5.28647e-05
4.97549e-05
5.8476e-05
6.56384e-05
6.40816e-05
5.78956e-05
5.90074e-05
6.43324e-05
6.48043e-05
5.78064e-05
5.83611e-05
6.44648e-05
6.58279e-05
6.31412e-05
6.56049e-05
6.36608e-05
6.25927e-05
5.0073e-05
5.87698e-05
5.16688e-05
6.30712e-05
6.45048e-05
5.75466e-05
5.14009e-05
6.60344e-05
5.11611e-05
5.69952e-05
5.36654e-05
6.0202e-05
5.02296e-05
6.2378e-05
5.98665e-05
5.97342e-05
6.09435e-05
5.41099e-05
6.52357e-05
5.25102e-05
6.27998e-05
6.0568e-05
5.92804e-05
5.11837e-05
6.43263e-05
6.24266e-05
5.26288e-05
5.50444e-05
5.91826e-05
5.8414e-05
6.1774e-05
4.89757e-05
6.17581e-05
5.85126e-05
6.06655e-05
5.69265e-05
5.64695e-05
5.63303e-05
4.94347e-05
6.48805e-05
6.02897e-05
2.95016e-05
5.23647e-05
6.05715e-05
6.50576e-05
6.37012e-05
5.32921e-05
5.23631e-05
6.4665e-05
5.15876e-05
6.36628e-05
6.5268e-05
6.19593e-05
5.2967e-05
6.45589e-05
5.06585e-05
4.91521e-05
4.92735e-05
6.28103e-05
5.94418e-05
5.79347e-05
6.57742e-05
6.29715e-05
6.12843e-05
5.31827e-05
4.76745e-05
6.61083e-05
6.05077e-05
6.65071e-05
6.41581e-05
5.18672e-05
5.93771e-05
6.0298e-05
5.73553e-05
5.99574e-05
5.70254e-05
5.87754e-05
6.8622e-05
6.11983e-05
5.7877e-05
5.15188e-05
6.207e-05
5.94612e-05
6.32938e-05
5.8296e-05
5.1092e-05
5.269e-05
6.24062e-05
6.26904e-05