/*--------------------------------*- C++ -*----------------------------------*\
| =========                 |                                                 |
| \\      /  F ield         | OpenFOAM: The Open Source CFD Toolbox           |
|  \\    /   O peration     | Version:  2212                                  |
|   \\  /    A nd           | Website:  www.openfoam.com                      |
|    \\/     M anipulation  |                                                 |
\*---------------------------------------------------------------------------*/
FoamFile
{
    version     2.0;
    format      ascii;
    arch        "LSB;label=32;scalar=64";
    class       volScalarField;
    location    "0.026";
    object      p;
}
// * * * * * * * * * * * * * * * * * * * * * * * * * * * * * * * * * * * * * //

dimensions      [0 2 -2 0 0 0 0];

internalField   nonuniform List<scalar> 
31639
(
0.0147005
0.0102565
0.0168318
0.00752781
0.010343
0.0144462
0.0161395
0.0153899
0.0109525
0.0093428
0.016053
0.0104305
0.0108345
0.0140878
0.0122771
0.0171963
0.0199252
0.0203931
0.0033556
0.0156483
0.0113807
0.00880379
0.0119989
0.00742516
0.0128662
0.0152284
0.0148177
0.046709
0.0154759
0.0154358
0.00830081
0.0220156
0.0109863
0.0059712
0.0267632
0.0153846
0.00885383
0.0160199
0.0160132
0.0131183
0.0105056
0.0150081
0.0117508
0.0163146
0.0167926
0.00703286
0.0105115
0.00832387
0.0179699
0.00755959
0.00698042
0.00561862
0.0271868
0.0166434
0.00546107
0.0203686
0.00896678
0.0148943
0.0102716
0.00716141
0.00787966
0.0150572
0.0124708
0.0153315
0.0270072
0.0044262
0.00272017
0.00858694
0.0106214
0.00665177
0.00949696
0.020073
0.00924716
0.00397203
0.027352
0.0217695
0.00948215
0.00879195
0.0101845
0.00961629
0.0146508
0.0140474
0.0138407
0.0077327
0.013696
0.0127124
0.0117963
0.0083111
0.00266548
0.0110634
0.00629169
0.0199662
0.00737871
0.00981816
0.00470169
0.0148034
0.00801405
0.00566445
0.0107299
0.0142144
0.0252741
0.025275
0.0128924
0.00981397
0.00545636
0.00682415
0.0143939
0.00725364
0.00837549
0.013029
0.0160872
0.0140592
0.0150118
0.00884874
0.0039477
0.015678
0.0268355
0.0165984
0.0254006
0.00791229
0.0222256
0.00685943
0.00355901
0.00754773
0.0143484
0.0140648
0.0101711
0.00765501
0.00933586
0.0113103
0.0265995
0.00117827
0.0170055
0.0040081
0.00479908
0.00856275
0.00895612
0.00981155
0.00703581
0.00785538
0.00779689
0.0115593
0.0125926
0.00721712
0.0105342
0.0137084
0.0255824
0.00893242
0.0132405
0.0273139
0.00802421
0.0183543
0.00575315
0.00516879
0.00671197
0.00515117
0.00377926
0.00943561
0.0179303
0.00850347
0.0046903
0.0201192
0.00901785
0.0149701
0.0213878
0.0214595
0.0166701
0.0187264
0.00589444
0.00410438
0.0190727
0.0141068
0.0190784
0.0109437
0.0135971
0.00918564
0.0123087
0.0221335
0.00859289
0.012964
0.0107752
0.0176989
0.0150617
0.0156791
0.0157514
0.0153468
0.0184659
0.0129564
0.0141156
0.01746
0.0177706
0.00931893
0.01805
0.00552663
0.00627186
0.0065404
0.0063
0.00999533
0.00643762
0.0158902
0.0133669
0.0202129
0.0177208
0.0187441
0.00915101
0.00765626
0.00320374
0.0054299
0.0225633
0.00618288
0.00615328
0.0131257
0.0254237
0.0136065
0.0163709
0.0137206
0.0137778
0.0137041
0.019177
0.0103006
0.0106594
0.0130879
0.013852
0.0191981
0.0167038
0.00954614
0.0172614
0.0168593
0.0119596
0.0219002
0.00578797
0.0158562
0.0201223
0.017442
0.0179376
0.00307751
0.00284081
0.0182664
0.0150396
0.00544737
0.00775411
0.0164677
0.019126
0.0179854
0.0079566
0.0206175
0.00610563
0.0213427
0.0174113
0.00311219
0.000900799
0.00703896
0.0178474
0.020487
0.00995221
0.0106589
0.0148975
0.00461446
0.0147185
0.0170233
0.00712737
0.00573543
0.00997695
0.0140959
0.0101144
0.0136623
0.00227274
0.0258927
0.0162253
0.0145313
0.0331432
0.00676932
0.0148109
0.018336
0.008835
0.017302
0.00630471
0.0192575
0.00857261
0.00704634
0.0215691
0.0221735
0.0220488
0.0292546
0.0158085
0.0158451
0.0192908
0.0184149
0.003519
0.0177443
0.0197661
0.00159628
0.00572324
0.00575695
0.0167386
0.00495074
0.0200239
0.00268243
0.00789001
0.00909278
0.0084496
0.0191958
0.00610729
0.00550339
0.0122413
0.00492448
0.0139754
0.00326218
0.0118221
0.0193158
0.00817464
0.03231
0.0258809
0.0114796
0.0105704
0.0148548
0.00285272
0.0223353
0.0173166
0.0170239
0.0163614
0.00684896
0.0249715
0.0050942
0.0134568
0.0182741
0.0164148
0.0184455
0.00594362
0.00687856
0.00713577
0.00751892
0.0195134
0.00562898
0.0201968
0.0268846
0.0275192
0.00853322
0.0187291
0.0210738
0.00479978
0.00235863
0.0205248
0.00431861
0.00615903
0.0190391
0.0052285
0.0168115
0.0166262
0.0250231
0.00938963
0.019218
0.00938496
0.0177742
0.00545416
0.00717702
0.00609907
0.0122896
0.0124935
0.0183887
0.0201972
0.012423
0.0322072
0.0035261
0.00861555
0.00778892
0.0041782
0.0124169
0.0132971
0.0184554
0.0120699
0.0225734
0.0141446
0.00665089
0.00448811
0.00748685
0.0259297
0.0216711
0.0181355
0.0226425
0.017159
0.00561826
0.00839406
0.0056076
0.0051614
0.00490068
0.00602672
0.0103811
0.000576602
0.0206685
0.00308412
0.0229245
0.00610411
0.0191602
0.00532504
0.0196181
0.020787
0.0156968
0.00753107
0.0303831
0.0203871
0.0160173
0.0153501
0.00514334
0.018067
0.00281401
0.00798361
0.00807184
0.00836327
0.0157649
0.00692206
0.00810492
0.0179349
0.033305
0.0164933
0.0181238
0.0132742
0.0141795
0.0127119
0.0105704
0.0101964
0.0249998
0.0121123
0.00108896
0.0180299
0.0328702
0.0117056
0.0244822
0.0141317
0.0168248
0.00738665
0.00610289
0.0191928
0.00697825
0.015322
0.0153438
0.0186886
0.00459379
0.00566147
0.0199647
0.00847
0.00300035
0.00359816
0.0138164
0.00479946
0.00859019
0.0090475
0.0209075
0.0204663
0.0221235
0.0208594
0.0181874
0.00885933
0.0186177
0.00839628
0.0198505
0.0222802
0.00690754
0.0182497
0.0076892
0.0150073
0.0214516
0.0142029
0.0038442
0.0175576
0.0488087
0.00381214
0.0114749
0.00778857
0.0170459
0.00220095
0.0059329
0.00707355
0.00589223
0.0186232
0.00151612
0.0118428
0.024071
0.0106211
0.0123242
0.00715571
0.0261566
0.00461129
0.0097361
0.0250181
0.0321742
0.0116835
0.0167215
0.0136203
0.00908422
0.00704781
0.00540902
0.0219437
0.00255973
0.0145003
0.0139409
0.0131887
0.00398038
0.00603425
0.0211002
0.0238342
0.00308895
0.00349481
0.0039178
0.00230413
0.028129
0.00809584
0.00336345
0.022468
0.0249914
0.0223371
0.00473568
0.0201206
0.0187229
0.0212702
0.00242251
0.0249963
0.0250627
-0.000351651
0.0216964
0.0209527
0.0218205
0.0138927
0.0232885
0.00104778
0.00382041
0.0211846
0.00317321
0.00385021
0.00650829
0.0158037
0.0106785
0.0195511
0.00132238
0.00698412
0.0112119
0.0235136
0.00151915
0.0186252
0.00288516
0.0325343
0.0329069
0.00777736
0.0470035
0.00799135
0.0079628
0.0129501
0.0132953
0.0092032
0.0126439
0.0338317
0.00929674
0.0182877
0.000776773
0.00829528
0.0128471
0.00728869
0.0208841
0.00160735
0.00501164
0.0125909
0.00452337
0.0114138
0.011641
0.0062851
0.0263702
0.00457435
0.00325507
0.000532779
0.0146687
0.0240017
0.00362438
0.000769731
0.00443494
0.00491948
0.00382644
0.0223332
-4.41281e-06
0.0015286
0.00106143
0.0200453
0.00252962
0.0210177
0.0214981
0.0224097
0.00659318
0.000105979
0.000374392
0.0034148
0.00101579
0.0137821
0.00120069
0.0137624
0.0218259
0.00186258
0.00801671
0.0107558
0.0262186
0.0242268
0.0190114
0.00911998
0.0043838
0.0251876
0.0216698
0.00204594
0.00223937
0.00936685
0.0158228
0.0065221
0.00144134
0.00014132
0.00110792
0.0209366
0.0175149
0.00804149
0.0480993
0.0172428
0.0133966
0.00928822
0.0144656
0.0185908
0.0184531
0.0129053
0.00824754
0.0103542
0.0107168
0.0175377
0.0040321
0.0125767
0.00149899
0.0137092
0.0318997
0.0221707
0.02049
0.015217
0.0120433
0.0290274
0.0135301
0.0162134
0.00717521
0.0257476
0.0242921
0.00357678
0.0133096
0.0151077
0.000297925
0.0294952
0.00813462
0.0013909
0.00396699
0.00226798
0.0262049
0.023928
0.0244145
0.00368692
0.000153962
0.0207103
0.0139503
0.0218552
0.0225515
0.022553
0.00147037
0.000103949
0.0214431
0.0186544
0.0192598
0.0225901
0.00127994
0.00809316
0.0331097
0.00469385
0.00264108
0.023209
0.0131463
0.00557257
0.0211498
0.0208288
0.0169323
0.00982191
0.00651518
0.0154049
0.00886679
0.00048781
0.000861135
0.00174476
0.00654295
0.00249859
0.0262447
0.00936393
0.000723738
0.00079938
0.0200928
0.00711839
0.000893308
0.048636
0.0065984
0.00788875
0.0105917
0.0119663
0.01015
0.0129608
0.0122629
0.00822466
0.00944748
0.0136369
0.00867612
0.00811079
0.00920503
0.0121562
0.0231394
0.0131258
0.0124041
0.02032
0.0262729
0.0221318
0.0062118
0.012204
0.0035262
0.0138131
0.0271247
0.00105034
0.00253136
0.00227221
0.00704374
0.0081579
0.0201705
0.0192675
0.00575973
0.00237435
0.0157441
0.026128
0.000678709
0.0214882
0.00854141
0.0197843
0.0182112
0.0191288
0.0247036
0.0230212
0.0296519
0.0210307
0.0176285
0.021961
0.019789
0.0204569
0.0073728
0.0257575
0.00725226
0.00191832
0.0048398
0.0199883
0.000131527
0.0165906
0.00392685
0.0054818
0.0166249
0.0100005
0.0248319
0.0046482
0.0174093
0.00564317
0.0286001
0.00825533
0.00084077
0.00121411
0.0233617
0.0156139
0.00105981
0.00258683
0.00151836
0.00500405
0.000690627
0.000350642
0.0196756
0.0190371
0.000270737
0.0191136
0.0169225
0.0204389
0.0112147
0.0111189
0.00898237
0.0143869
0.0150466
0.00703023
0.00113688
0.0131856
0.0180395
0.0133363
0.0247415
0.022111
0.0132152
0.0214394
0.00819203
0.0331866
0.00389259
0.0216855
0.0129748
0.000140255
0.014754
0.00377844
0.00785259
0.00328825
0.00331895
0.0166133
0.0235143
0.00579204
0.0208286
0.000966157
0.00104546
0.000993016
0.0273944
0.0275454
0.0261979
0.0281964
0.0232647
0.0214888
0.00723381
0.00470724
0.00798683
0.00211204
0.015346
0.00688395
0.018088
0.0100103
0.00801329
0.00251263
-0.000113997
0.00585791
0.00312865
0.0244405
0.0106503
0.00575897
0.00552117
0.010237
0.00103923
0.0171743
0.00559044
0.0214984
0.00415269
0.00283019
0.0141535
0.014092
0.0218466
0.0260084
0.0228155
0.0173942
0.00980813
0.0106381
0.0206702
0.000187079
0.00111994
0.0203386
0.0207792
-0.000106141
0.000486259
0.00296427
0.0204951
0.00542928
0.0124701
0.0264441
0.0257493
0.0131459
0.0308592
0.00994111
0.00861233
0.00886697
0.00574728
0.0035721
0.0215832
0.0036639
0.0132051
0.0159841
0.0243636
0.00769595
0.00885966
0.00846168
0.0196062
0.0198567
0.0199246
0.0282622
0.00264873
0.0229184
0.0226116
0.0230761
0.0125323
0.0004747
0.0270775
0.0279362
0.0257438
0.0151934
0.0160588
0.0175567
0.0163664
0.0194756
0.0149963
0.000589179
0.0205188
0.0095563
0.00656315
0.0208652
0.00159215
0.000946598
0.00364851
0.00341257
0.0250006
0.010067
0.00371522
0.0051568
0.0090735
0.0185042
0.00869443
0.00798876
0.0167114
0.0117062
0.000356831
0.0215265
0.0136443
0.0225999
0.0114205
0.00237671
0.0175425
0.0174193
0.000862515
0.0100639
0.0093851
0.000728787
0.000875833
0.0213331
0.024503
0.00989583
0.0127562
0.00149189
0.0226922
0.0282556
0.0236676
0.0163409
0.00765721
0.0220711
0.0167224
0.0088729
0.0123095
0.00686008
0.00696243
0.0110724
0.0209901
0.00381603
0.013733
0.00869495
0.00784887
0.000265534
0.0234461
0.00922433
0.0242101
0.00669961
0.0198286
0.0229194
0.0113947
0.0114661
0.0238923
0.019353
0.0217409
0.0084419
0.00979321
0.0192375
0.0183766
0.0145695
0.0154188
0.0224029
0.0229302
0.0301431
0.0177524
0.0200315
0.00129763
0.000881135
0.0205234
0.0187371
0.00963064
0.0222417
0.00321462
0.015706
0.0174804
0.021915
0.00271832
0.0224873
0.0204496
0.0243808
0.0231494
0.0242186
0.0114517
0.0208186
0.00925346
0.0159806
0.0155371
0.014762
0.0251656
0.0233227
0.0225809
0.0190978
0.0103761
0.013525
0.0148968
0.0229308
0.0147193
8.18605e-05
0.0238987
0.0262935
0.0124216
0.0105177
0.0044063
0.00319687
0.00875375
0.0231606
0.00727467
0.00779403
0.0284959
0.0116535
0.00434954
0.0059841
0.000538993
0.0111109
0.0125944
0.0114496
0.0213341
0.000798388
0.0247129
0.0021978
0.0240322
0.0232242
0.028351
0.0109588
0.0112468
0.00961111
0.0179958
0.015989
0.0187763
0.0288651
0.0210233
0.0222826
0.0147259
0.0179343
0.0106447
0.0188362
0.0163515
0.00357779
0.00322003
0.0132095
0.00108834
0.00941477
0.0248842
0.0262104
0.00480723
0.0240982
0.0156974
0.0253247
0.0138729
0.0142811
0.00193887
0.00106029
0.0184391
0.016651
0.00805656
0.0105967
0.00999864
0.0154557
0.0107014
0.0209031
0.0224217
0.0286908
0.022076
0.0238454
0.0144584
0.0101876
0.0119079
0.00107091
0.00203635
0.00392176
0.010493
0.00945787
0.0165931
0.00977315
0.0174778
0.0197888
0.0219189
0.0101309
0.00632385
0.0293896
0.0153962
0.0262492
0.0259137
0.0115741
0.0264788
0.00271365
0.0222586
0.00669588
0.0126365
0.00504766
0.00979181
0.0109335
0.0251104
0.0255151
0.000792952
0.0229814
0.0273746
0.0313402
0.0102252
0.019311
0.022174
0.0225318
0.0090992
0.00980934
0.0208914
0.0316084
0.020804
0.00386242
0.0184044
0.0309142
0.0178923
0.017722
0.0171405
0.00851946
0.0259222
0.0223863
0.0261427
0.00230815
0.018627
0.0015709
0.0154613
0.0219338
0.00469783
0.0220478
0.0067754
0.0209935
0.0285562
0.0123659
0.000642679
0.0139444
0.0149858
0.000856881
0.00926067
0.00941943
0.0147838
0.010799
0.0300831
0.0240718
0.00948509
0.00937566
0.0233107
0.0131194
0.0221628
0.0291944
0.02258
0.000817453
0.000786534
0.0238897
0.0207413
0.0145636
0.0161759
0.0185639
0.015362
0.0159648
0.0260773
0.0228968
0.0274897
0.0206381
0.0180856
0.00259668
0.0264768
0.00349343
0.0100335
0.0247318
0.0264696
0.0213862
0.0112059
0.0100075
0.000557979
0.0231625
0.0143718
0.0245268
0.0135026
0.0259502
0.0275092
0.0173772
0.0185531
0.0111092
0.00543261
0.0299987
0.0143302
0.0183993
0.0142838
0.0131998
0.019104
0.0303753
0.0175752
0.0165325
0.032651
0.00286194
0.0256559
0.0158524
0.0315947
0.0164057
0.0132121
0.0254827
0.0260775
0.00471495
0.00979493
0.00546104
0.00670427
0.0225462
0.0119877
0.0130109
0.000559794
0.0104227
0.0378139
0.0106811
0.0111905
0.0154179
0.0159096
0.0150473
0.0237535
0.0243379
0.0176427
0.0094532
0.0241074
0.0135525
0.0249805
0.0223677
0.0225531
0.0248793
0.0254202
0.023356
0.00894101
0.000760754
0.0266701
0.00809655
0.0280788
0.0312934
0.0293142
0.0107071
0.0267878
0.0179875
0.00287995
0.00236607
0.00394143
0.0239334
0.0248117
0.024641
0.0228704
0.0273059
0.0111618
0.00927777
0.0250685
0.0278153
0.0132712
0.0246966
0.026522
0.0176037
0.0102296
0.0301448
0.026916
0.0231815
0.0188063
0.0240199
0.0196422
0.0258876
0.0021917
0.0195102
0.0231777
0.0265232
0.018965
0.0251764
0.0126448
0.0317431
0.0198297
0.00267006
0.0240408
0.00578527
0.000179758
0.00546517
0.0189458
0.0161292
0.018728
0.0240264
0.0261165
0.00992828
0.0206822
0.0118243
0.0161026
0.0152224
0.0150211
0.00924857
0.0245674
0.0165009
0.0170958
0.0243488
0.0171091
0.00854172
0.00820387
0.0171843
0.0180338
0.0164207
0.0228897
0.0234079
0.0013709
0.0161916
0.0243691
0.0232712
0.0168359
0.017201
0.0141591
0.0175689
0.0307006
0.00153026
0.00845149
0.0255787
0.00397273
0.0113021
0.0122223
0.0116672
0.0284955
0.0302072
0.00379745
0.0308863
0.0274728
0.0197066
0.0196613
0.0279224
0.0203653
0.0258201
0.0242411
0.00488575
0.0108047
0.0293804
0.00054937
0.000846126
0.0280608
0.0261747
0.0045647
0.0277642
0.0204145
0.017927
0.01164
0.0263539
0.0257386
0.00936942
0.0243716
0.0226603
0.0199412
0.0178115
0.00111718
0.00191965
0.00134337
0.0205165
0.0235454
0.0151671
0.0267982
0.0296763
0.0146621
0.0130217
0.00914906
0.00548005
0.0324853
0.000155948
0.0037461
0.0117272
0.00144775
0.000337701
0.000626998
0.0125086
0.00917261
0.0011531
0.0403881
0.025526
0.0193372
0.0298874
0.0166958
0.0320623
0.00524987
0.0103291
0.0107919
0.0308566
0.030929
0.0167486
0.00877928
0.0175882
0.0158763
0.0207459
0.019248
0.0200483
0.023459
0.00176154
0.0250215
0.0252795
0.0254817
0.0247701
0.0207964
0.0205086
0.0158024
0.0145412
0.026633
0.0231082
0.00748539
0.00584941
0.0156826
0.0224404
0.0299403
0.00728673
0.00842456
0.00874933
0.0223469
0.0282575
0.0297317
0.0291674
0.002392
0.00144587
0.0277688
0.00090075
0.0273006
0.0284093
0.00577304
0.00800164
0.0035979
0.026562
0.0101086
0.0233337
0.0183287
0.0184491
0.0286749
0.0292155
0.0131678
0.0320857
0.031765
0.0216418
0.0198869
0.000129575
0.000800425
0.0220939
0.0200055
0.0241812
0.0313828
0.0477267
0.0320007
0.0252091
0.0320003
0.0253824
0.00317627
0.0234137
0.0269923
0.00366934
0.025318
0.00620454
0.000714478
0.0248101
0.000895111
0.0115932
0.0125895
0.0124569
0.0114803
0.000561761
0.00246399
0.00793706
0.0303914
0.0283102
0.0205538
0.0122371
0.0154619
0.00978419
0.0122985
0.00908369
0.0118877
0.0116533
0.0105213
0.0217216
0.0186191
0.0249678
0.018486
0.025
0.00176991
0.0244763
0.00130811
0.0323234
0.0252365
0.0165121
0.0207897
0.0101099
0.0132472
0.00461775
0.00340801
0.00811554
0.00548143
0.0149682
0.0244742
0.0114657
0.0191951
0.0175117
0.00690816
0.0172415
0.0302947
0.00172405
0.00391846
0.00164779
0.0200006
0.0284942
0.0230593
0.0074773
0.00591366
0.0280671
0.00363512
0.0281724
0.0266828
0.0485818
0.0282909
0.0279738
0.0319424
0.0299394
0.0287895
0.0224609
0.00579345
0.0232225
0.00552164
0.0237995
0.0246383
1.7908e-05
0.0301017
0.0140758
0.00282127
0.0236344
0.0297544
0.0232854
0.02672
0.0233019
0.0118098
0.014432
0.0224281
0.0253189
0.0276909
0.0297162
0.000921208
0.00394971
0.0189466
0.0250844
0.0235489
0.0208629
0.0219345
0.00162136
0.0208732
0.0112693
0.0118286
0.0115046
0.0100375
0.0133178
0.0160482
0.000684583
0.0255811
0.026658
0.0225311
0.00150277
0.0264942
0.0161215
0.0169753
0.0191699
0.0200073
0.0233401
0.0182566
0.0411083
0.00471024
0.016637
0.0258667
0.0199647
0.0199741
0.00389085
0.0181854
0.0283854
0.0319039
0.0233803
0.0107404
0.0275629
0.00985927
0.0183973
0.0293526
0.030976
0.0184114
0.0312906
0.0310047
0.0308154
0.0287166
0.0194532
0.0298817
0.0282659
0.0247656
0.0111239
0.0223181
0.00880722
0.00246448
0.022881
0.00724862
0.0291192
0.0296709
0.0289103
0.026905
0.0170725
0.0270826
0.0305831
0.00958371
0.00674422
0.0132729
0.0328034
0.0223566
0.0215108
0.00554893
0.00484316
0.0258264
0.00165729
0.0157005
0.0321303
0.0276091
0.0235351
0.0242838
0.0145929
0.0128989
0.00342492
0.0250013
0.000384451
0.00913497
0.0279879
0.00125821
0.00349526
0.00540417
0.00714205
0.00420253
0.0197773
0.0221654
0.0258664
0.0169862
0.0104585
0.0374285
0.0104104
0.0120291
0.0128145
0.0269546
0.0243407
0.0305583
0.0275458
0.00866393
0.0153743
0.0149606
0.0149367
0.0174243
0.0211281
0.0212029
0.0246623
0.023489
0.0219112
0.0161331
0.0119923
0.0121959
0.00301143
0.0231791
0.0275904
0.00988163
0.00409145
0.0414186
0.0156426
0.0282958
0.0190467
0.0286774
0.0344014
0.0222561
0.0100145
0.00851495
0.0183543
0.0304994
0.029182
0.00756159
0.0324034
0.000325619
-0.000197677
0.0279605
0.0311741
0.0156054
0.0129141
0.0261455
0.00672332
0.0291992
0.0314901
0.0126937
0.0257309
0.0267482
0.0397676
0.00721815
0.0301439
0.0177005
0.0184494
0.0253626
0.030236
0.00345413
0.0236691
0.0323751
0.0315222
0.0337208
0.00724929
0.0264528
0.0257755
0.00373091
0.0208985
0.0301862
0.0216151
0.00308074
0.00940536
0.0199427
0.00654649
0.0218726
0.00933192
0.000817134
0.00105712
0.0133222
0.00383677
0.0287345
0.0168184
0.00740824
0.012871
0.0298208
0.0298833
0.026449
0.0276762
0.0293777
0.0169615
0.00307292
0.00638105
0.0146913
0.025059
0.0251379
0.0258194
0.0261287
0.0179015
0.0175262
0.0158646
0.0217453
0.0193164
0.0194398
0.0209683
0.0317434
0.0228888
0.0251273
0.0214495
0.0237871
0.0235166
0.0119268
0.0230818
0.0180823
0.0111849
0.0162446
0.036655
0.0182952
0.0408267
0.024134
0.00704248
0.0109042
0.0212353
0.034688
0.0195157
0.0184278
0.00830723
0.0242531
0.000813276
0.00211322
0.000413481
0.0301555
0.0299293
0.0303765
0.0156407
0.0328436
0.00586802
0.0311423
0.0315638
0.0303261
0.00319632
0.0346376
0.0306032
0.00236576
0.0324007
0.01844
0.019328
0.0181816
0.0252496
0.0274308
0.0225146
0.0236889
0.0250418
0.015552
0.0149965
0.00389386
0.0315406
0.0248226
0.028386
0.0216614
0.0276025
0.0308792
0.011496
0.0296839
0.00306619
0.0221798
0.0105241
0.00122994
0.000201443
0.0133775
0.0277612
0.010519
0.0253573
0.0257834
0.00872092
0.0270806
0.0101481
0.0325265
0.0257729
0.0320668
0.0241777
0.0131548
0.0255183
0.0267106
0.0296482
0.00686433
0.0262818
0.026272
0.0275452
0.029628
0.021152
0.0279414
0.0225258
0.0030729
0.0267746
0.00681818
0.0200174
0.0211105
0.0145089
0.0231321
0.0349857
0.017692
0.0163631
0.0172345
0.0119977
0.0224387
0.00836851
0.0149332
0.0274939
0.0130734
0.0259375
0.00780572
0.0277518
0.0231534
0.00725292
0.0196239
0.0288869
0.00765297
0.0227692
0.0149874
0.00206177
0.000249298
0.00209843
0.0290225
0.0190691
0.0217407
0.0165879
0.0162567
0.0291254
0.0315958
0.0305673
0.0232006
0.0301164
0.024612
0.0318601
0.0167615
0.0324617
0.0322571
0.0322375
0.0312147
0.0303642
0.00367224
0.0254932
0.0304275
0.023238
0.0209825
0.0338601
0.0304782
0.015345
0.0316374
0.00321817
0.0287577
0.0300467
0.0210307
0.0200557
0.0272124
0.0284599
0.0271126
0.00136468
0.0316917
0.0239131
0.00905848
0.000505207
0.0313784
0.00967304
0.00406935
0.00264588
0.000373589
0.0224825
0.00718319
0.0377585
0.0114795
0.0270116
0.0144913
0.0110024
0.0157996
0.0264142
0.0113212
0.0313011
0.0260605
0.0153418
0.0293193
0.0261947
0.0225084
0.0351465
0.0237484
0.0301801
0.0194257
0.032561
0.0193202
0.0191909
0.00408084
0.0244101
0.0231214
0.0245399
0.0282316
0.0206883
0.0326648
0.0244437
0.0237562
0.00334818
0.00734675
0.0328136
0.0172824
0.00643853
0.0174239
0.043312
0.0105334
0.0339016
0.00790694
0.00154435
0.0130506
0.0135572
0.0120575
0.0224407
0.00697032
0.0209226
0.0261865
0.0187224
0.00628245
0.0068135
0.0307026
0.00195363
0.022865
0.0212712
0.0141428
0.0286564
0.034197
0.0149013
0.0286224
0.0267829
0.0237221
0.000486087
0.0231272
0.0258416
0.030545
0.0312153
0.0352698
0.0327327
0.00409767
0.00272656
0.0330403
0.00398801
0.0296473
0.0317345
0.0294293
0.00640908
0.0362367
0.0139546
0.0262733
0.0315525
0.0284861
0.0293361
0.0281715
0.0268193
0.0245427
0.0144364
0.0269237
0.0203583
0.00238854
0.0133639
0.0294597
0.0267968
0.0347428
0.0366535
0.0018864
0.0191379
0.0031439
0.00598986
0.0308439
0.00592265
0.00506043
0.0324039
0.00748883
0.0126316
0.0186808
0.0312522
0.000341396
0.0305701
0.0263212
0.0145404
0.0300758
0.031993
0.0165851
0.0301399
0.0244221
0.0324018
0.0300679
0.0295825
0.0218439
0.0335324
0.0233499
0.00682529
0.00718482
0.0325671
0.0242481
0.0297675
0.0361698
0.0267799
0.0285611
0.0356556
0.00716424
0.0323945
0.0316309
0.0325128
0.0178459
0.0468367
0.00550958
0.00921599
0.0144411
0.0133334
0.0351446
0.0106342
0.0258047
0.0204849
0.0213877
0.0200059
0.00731577
0.0131819
0.00857575
0.0305614
0.00145515
0.0325474
0.0331489
0.0335928
0.0158807
0.0278549
0.0416187
0.0258703
0.00234754
0.0297826
0.0100664
0.0125522
0.0342372
0.0160763
0.0338094
0.0343801
0.0230039
0.00371677
0.0305012
0.0293091
0.0303763
0.0226101
0.0300259
0.0299896
0.028964
0.0255661
0.0263266
0.0270949
0.0272323
0.0224004
0.0208637
0.00208691
0.0312433
0.0189209
0.0202621
0.022111
0.0112718
0.0094722
0.0376574
0.0292914
0.0268197
0.0341388
0.0353063
0.0132719
0.00545463
0.00917088
0.0369447
0.0190556
0.00975312
0.031578
0.00827485
0.0275264
0.0158284
0.0069762
0.00667155
0.0258555
0.0150508
0.0283318
0.00117544
0.0249629
0.00263759
0.0270316
0.0154958
0.0225956
0.0231746
0.021982
0.0284392
0.0275666
0.0310579
0.00961947
0.0425002
0.0410093
0.0360205
0.0247715
0.0245143
0.0191113
0.0259359
0.028986
0.030459
0.0348239
0.000123054
0.0135704
0.0150078
0.046017
0.0311877
0.0038855
0.0320953
0.00397665
0.0183306
0.0210305
0.0128812
0.00940235
0.0362024
0.0293013
0.0100094
0.0197629
0.0373708
0.0127649
0.00789682
0.00067095
0.0182556
0.00273264
0.0336286
0.00796765
0.0356948
0.0424173
0.0108987
0.0297455
0.000404598
0.000431129
0.0103678
0.034457
0.0344262
0.0328156
0.0291213
0.00220014
0.0224671
0.0481816
0.0215464
0.0289638
0.0276174
0.0286905
0.0290949
0.0230456
0.0318947
0.028243
0.0099551
0.00246941
0.00278563
0.00279538
0.0270916
0.030288
0.0169882
0.0302354
0.00717464
0.007435
0.00844985
0.0260928
0.0353109
0.0348412
0.0365719
0.0206515
0.0103173
0.0320709
0.00976479
0.0259447
0.0281496
0.0291771
0.0159173
0.0320276
0.0145257
0.0265461
0.0275653
0.0263684
0.0139652
0.019791
0.0489946
0.0123565
0.00317194
0.0251466
0.0215201
0.026835
0.0173625
0.0202241
0.0218149
0.0232807
0.0192656
0.0280799
0.0407144
0.0208918
0.0315318
0.0145548
0.0258525
0.019708
0.0249424
0.0271001
0.0256022
0.0345412
0.00493865
0.0339014
0.0224312
0.00108775
0.0147369
0.0355698
0.0318357
0.0188504
0.00449069
0.0287708
0.0104378
0.0365715
0.0104875
0.0297853
0.0281766
0.033199
0.0251479
0.0305991
0.0208978
0.00353296
0.0274044
0.00317112
0.0333048
0.000331605
0.00113553
0.00700403
0.00256207
0.0227887
0.00121205
0.0368915
0.0371513
0.0311821
0.0320965
0.034956
0.0350058
0.0338366
0.0342993
0.00961526
0.0373354
0.0337126
0.00747178
0.0319471
0.0393084
0.0220463
0.000131507
0.0307689
0.0334641
0.0287667
0.0268167
0.0302454
0.0359947
0.00343968
0.0316846
0.00157516
0.000863815
0.000110092
0.0275936
0.0195363
0.0085399
0.0160418
0.0313777
0.0462164
0.0220052
0.0286774
0.0294341
0.0357949
0.00290172
0.0486174
0.033002
0.00962385
0.0234531
0.0114147
0.0246394
0.0303502
0.0116198
0.0325634
0.0253462
0.013789
0.0216313
0.0132687
0.0267518
0.0215152
0.0342863
0.0352274
0.0100988
0.0183514
0.0222221
0.0216983
0.0294136
0.0414631
0.0150499
0.0293158
0.0224036
0.0148237
0.0190249
0.037418
0.021029
0.0193334
-0.000132526
0.0397431
0.0389616
0.00127605
0.0320809
0.00247867
0.0241502
0.036737
0.00549834
0.0341185
0.0340541
0.0362278
0.0347596
0.0279184
0.0287014
0.0313609
0.00857274
0.0302149
0.0105495
0.00283664
0.0160441
0.00434746
0.0286611
0.0310726
0.0132911
0.0132816
0.0162023
0.03635
0.00412671
0.0310433
0.0185374
0.0358913
0.0254294
0.0351102
0.0338432
0.0378512
0.0336235
0.00158685
0.0223651
0.0334693
0.0233565
0.0304431
0.0293647
0.00622801
0.0353074
0.0267601
0.036986
9.58636e-05
0.0336613
0.00854597
0.0181485
0.0024469
0.0286688
0.0277826
0.0434929
0.0265609
0.00891781
0.0329303
0.031433
0.000973374
0.00067644
0.0428655
0.029385
0.0102721
0.0476174
0.0117818
0.0185602
0.0320915
0.000434267
0.0037327
0.0485984
0.00938609
0.0140538
0.0138876
0.0228734
0.0313632
0.0181283
0.0132045
0.0320859
0.0360849
0.0333801
0.0311402
0.0183385
0.0314047
0.0220545
0.0135549
0.0276752
0.0272633
0.0221216
0.0250361
0.0181894
0.017088
0.0316973
0.0325753
0.0330243
0.0275106
0.0390662
0.0265552
0.0275535
0.0259094
0.0271913
0.0328701
0.0236467
0.00530883
0.0357753
0.0346529
0.0323158
0.00553234
0.0308107
0.0268099
0.0300368
0.0273454
0.0366904
0.0321138
0.00424175
0.0130048
0.0362958
0.0366022
0.039527
0.00357489
0.0176879
0.0124372
0.0338203
0.0327164
0.0350659
0.0392078
0.0395782
0.0340082
0.0388489
0.0335276
0.0329904
0.0212095
0.035043
0.0296752
0.0388546
0.0468621
0.0294045
0.0274829
0.0484773
0.0242833
0.0173173
0.0361924
0.0199588
0.0388279
0.00112006
0.0301789
0.0186787
0.044733
0.029105
0.0277362
0.0369743
0.0178157
0.00119829
0.0163743
0.0450362
0.000327374
-0.000155255
0.0297622
0.0116465
0.0125511
0.0123563
0.00888137
0.00754222
0.00842469
0.00682223
0.0133086
0.0345209
0.0386711
0.00396308
0.0348446
0.0309008
0.00312524
0.0292399
0.0357237
0.0362095
0.0204413
0.0251419
0.0192437
0.0354485
0.0200098
0.0309212
0.0274956
0.0204164
0.0284157
0.0347149
0.0196827
0.0192956
0.0281851
0.0276876
0.023461
0.0377848
0.00446222
0.0397703
0.0241318
0.0207117
0.0227585
0.0357777
0.0156564
0.0120828
0.0359088
0.031839
0.0327144
0.0349766
0.0445701
0.0403983
0.0361253
0.0326079
0.0356158
0.0374907
0.0362988
0.0225289
0.0381486
0.036481
0.010629
0.032631
0.0241764
0.0380575
0.0315917
0.0374844
0.0188654
0.0337289
0.0238278
0.0277282
0.03507
0.0379291
0.0102971
0.0309749
0.0246332
0.0238137
0.0251437
0.0388203
0.0317496
0.0335155
0.000697518
0.0284605
0.000104139
0.0333636
0.00283752
0.0457158
0.0115732
0.0236693
0.00933506
0.00900045
0.00810703
0.030724
0.0334202
0.0229662
0.0235288
0.0306704
0.0209365
0.0350968
0.0360138
0.0261705
0.039521
0.0342534
0.03975
0.0344315
0.0321701
0.0370345
0.0209223
0.027095
0.0280066
0.0222568
0.00504662
0.0373557
0.0366995
0.0434337
0.0113756
0.0343095
0.0305573
0.0121658
0.0277963
0.0339819
0.0296227
0.0386938
0.0367519
0.0350831
0.0382135
0.0284261
0.0365278
0.0381032
0.0368614
0.0361796
0.0302037
0.0338322
0.0267306
0.0391545
0.0327792
0.0486462
0.0479365
0.0315958
0.0387153
0.0310658
0.0305303
0.0297203
0.0253966
0.0358592
0.0317953
0.0343128
0.0358624
0.0392294
0.0345185
0.0293945
0.0327504
0.0328195
0.0382721
0.0317186
0.0338634
0.0360545
0.0374261
0.00269183
0.0346026
0.00369421
0.00424517
0.00467765
0.00235961
0.0340816
0.00731252
0.000816025
0.0250428
0.0338006
0.046188
0.0470127
0.0390575
0.0312379
0.0382585
0.0208329
0.0430186
0.0276437
0.0303636
0.0331068
0.0358141
0.0234616
0.0353564
0.0368985
0.0267977
0.028699
0.0368238
0.0289664
0.0424679
0.0370385
0.0410912
0.0127188
0.00231753
0.0342644
0.0339431
0.0333737
0.0412715
0.0350102
0.0420412
0.0350906
0.03777
0.0221575
0.0392694
0.0283494
0.0378897
0.0300626
0.0383544
0.0394288
0.0240255
0.0348451
0.0258677
0.0361362
0.025766
0.0364736
0.0317021
0.0305024
0.0364585
0.0352263
0.0317278
0.0352017
0.0241294
0.042096
0.0328806
0.0349136
0.0360494
0.0375628
0.0102714
0.0254229
0.0380499
0.00377068
0.00498798
0.0388215
0.0341139
0.000603237
0.0463319
0.0308379
0.0427138
0.0335746
0.0292554
0.0292703
0.0403733
0.0338106
0.0289911
0.0305226
0.0328981
0.0337473
0.0334388
0.0434481
0.0371232
0.0373084
0.0250928
0.0251763
0.0393052
0.0317516
0.0371983
0.0371951
0.041972
0.0461807
0.0442128
0.029508
0.039302
0.0310267
0.0365044
0.0356791
0.0305644
0.0139834
0.0387038
0.0466554
0.0379354
0.0291461
0.0335959
0.0291526
0.0480209
0.0269081
0.03454
0.0292424
0.0306149
0.036608
0.0386976
0.0308623
0.0370281
0.0363023
0.0329395
0.0376234
0.0365201
0.0364814
0.0326659
0.0392942
0.0395072
0.0388162
0.0332974
0.0383059
0.0383939
0.0380007
0.0121431
0.0389152
0.0276157
0.0285487
0.0350582
0.0419157
0.027876
0.0339204
0.0393531
0.0332657
0.0340342
0.0294289
0.0440534
0.0328011
0.0385618
0.0279412
0.0280236
0.0337153
0.0390351
0.0277808
0.0331751
0.0329006
0.0383931
0.0390335
0.0332341
0.033577
0.0418395
0.0417245
0.0343681
0.041233
0.0403862
0.0363802
0.0414476
0.0169676
0.041254
0.039036
0.0383883
0.0387868
0.0370879
0.0387501
0.0428192
0.0349862
0.0385638
0.0308026
0.0352777
0.0317459
0.0364402
0.0364456
0.0441481
0.0371249
0.043865
0.043991
0.0315853
0.0360593
0.0378009
0.0253677
0.0325852
0.0338095
0.0338318
0.0430282
0.0374564
0.0292689
0.033416
0.0273168
0.0398629
0.0277639
0.0291097
0.033319
0.0340235
0.0345014
0.0385868
0.0380726
0.0386391
0.0321223