/*--------------------------------*- C++ -*----------------------------------*\
| =========                 |                                                 |
| \\      /  F ield         | OpenFOAM: The Open Source CFD Toolbox           |
|  \\    /   O peration     | Version:  2212                                  |
|   \\  /    A nd           | Website:  www.openfoam.com                      |
|    \\/     M anipulation  |                                                 |
\*---------------------------------------------------------------------------*/
FoamFile
{
    version     2.0;
    format      ascii;
    arch        "LSB;label=32;scalar=64";
    class       surfaceScalarField;
    location    "0.026";
    object      phi;
}
// * * * * * * * * * * * * * * * * * * * * * * * * * * * * * * * * * * * * * //

dimensions      [0 3 -1 0 0 0 0];

oriented        oriented;

internalField   nonuniform List<scalar> 
68568
(
-1.4519e-07
1.5013e-07
-2.83743e-08
2.34335e-08
1.40228e-07
-7.16087e-08
-7.46167e-08
5.99782e-09
1.69316e-07
-1.29498e-07
-5.7739e-08
1.79205e-08
-4.31491e-09
2.20087e-09
-1.6206e-07
1.64174e-07
-1.25457e-09
1.35784e-07
9.90978e-10
-1.3552e-07
1.3429e-07
-4.84746e-10
-1.23187e-07
-1.06182e-08
8.01941e-08
-8.54566e-08
1.25138e-07
-1.19876e-07
-3.78726e-08
-2.58555e-08
1.43922e-07
1.25859e-07
-1.49825e-08
-1.06126e-07
-4.75101e-09
1.44218e-07
5.13806e-08
-5.53709e-08
9.68047e-08
1.32313e-07
-5.98019e-08
-6.19947e-08
-1.93892e-07
1.84278e-07
-1.35353e-07
6.62414e-08
-5.50532e-09
1.75796e-07
-1.81323e-07
1.33507e-08
-7.82379e-09
-6.79659e-08
-4.9816e-08
1.16661e-07
1.12074e-09
1.22979e-07
8.48401e-08
-1.25985e-07
-8.18343e-08
-4.91565e-08
-7.57514e-08
1.10738e-07
1.41704e-08
1.08888e-07
-1.13791e-07
-4.42539e-08
1.0759e-07
-4.4349e-09
-6.09978e-10
-1.02545e-07
8.28105e-08
-1.49176e-07
7.48442e-08
-8.47859e-09
1.09612e-07
-4.92401e-10
-1.09056e-07
-6.43802e-11
-1.71833e-08
8.76039e-09
1.35197e-07
-1.26774e-07
-4.42608e-08
1.83057e-07
-2.64793e-08
-1.12317e-07
-6.26834e-10
-3.68512e-10
-1.31693e-07
1.32688e-07
-7.274e-08
-4.7093e-08
1.13176e-07
6.65674e-09
-9.42543e-08
-3.85175e-08
-1.24179e-08
-6.29755e-08
1.37486e-07
8.29993e-09
7.50646e-08
4.46182e-08
-2.87759e-08
-9.09068e-08
-6.582e-08
-9.70034e-08
1.24951e-07
4.70788e-08
-1.16356e-07
3.45748e-09
1.48239e-07
-7.93542e-08
-1.39634e-07
7.07488e-08
-1.29961e-08
2.48922e-09
1.14043e-07
-1.03536e-07
1.51802e-07
-3.17692e-08
-1.07846e-08
-1.09248e-07
1.16454e-07
-8.94856e-08
-5.71063e-08
3.01376e-08
-3.00107e-10
1.06682e-07
-1.06384e-07
1.50758e-12
1.18028e-07
8.2969e-08
-8.31658e-08
6.40373e-10
-4.43643e-10
4.16042e-08
-1.54577e-07
9.00217e-08
2.29507e-08
-1.57569e-07
1.36903e-07
6.22704e-08
-7.22827e-08
-1.71599e-10
-2.85701e-10
-7.9726e-10
1.11423e-07
-1.01296e-09
1.09787e-07
-1.09544e-07
-4.54423e-10
2.12054e-10
-2.59216e-08
-1.53692e-07
1.16034e-07
1.88001e-07
-1.43191e-07
-1.60844e-07
-5.98175e-08
-1.00479e-07
2.83276e-07
-1.41855e-07
1.59191e-07
-1.33719e-07
1.16384e-07
-1.20957e-07
6.43088e-08
-5.34627e-09
1.11631e-07
-1.08968e-07
-3.44019e-09
7.77208e-10
9.54203e-08
2.45235e-08
1.13892e-08
-1.31333e-07
2.06897e-09
-1.4849e-07
1.43887e-07
3.32857e-08
-2.86827e-08
-8.11188e-09
-9.15328e-08
9.93009e-08
3.43821e-10
-1.68662e-07
1.33815e-07
1.77818e-07
-1.41268e-07
-3.60047e-10
-2.56473e-10
1.91917e-09
-1.5659e-09
1.05684e-07
-1.06037e-07
3.84544e-08
-1.12048e-07
-2.15807e-09
8.97763e-08
-9.60027e-08
3.67656e-09
2.54986e-09
-8.33352e-08
1.38485e-07
-6.10886e-08
5.93885e-09
1.43227e-07
-7.42566e-08
-7.23944e-08
3.42406e-09
8.88994e-08
-8.90858e-08
-4.40444e-10
-1.08839e-07
-1.72677e-09
1.12767e-07
7.35852e-08
6.94543e-08
-7.47307e-09
-1.35566e-07
-5.79866e-09
1.32235e-07
-1.27183e-07
7.46494e-10
8.66281e-08
-1.46551e-07
-3.05224e-09
1.05427e-07
-1.76384e-08
3.28703e-08
-1.20659e-07
1.45593e-07
-2.26725e-08
-1.64959e-07
4.20386e-08
3.9676e-08
7.94999e-08
-1.15862e-08
6.28572e-08
-1.24461e-07
6.83194e-08
-6.71518e-09
1.31551e-07
-1.32692e-07
-1.13883e-10
-9.77682e-08
1.39422e-07
-3.08611e-08
-1.0793e-08
-1.9975e-07
-1.46807e-07
2.8042e-07
6.61369e-08
-1.12967e-07
1.55578e-09
1.16419e-07
-6.43669e-09
1.31841e-07
-1.39858e-07
-5.23876e-08
6.04038e-08
-1.22513e-07
6.32753e-08
6.51403e-08
-5.90259e-09
-6.2564e-08
-4.97574e-08
-4.74184e-08
-9.8636e-08
9.89751e-08
-3.71611e-10
3.25324e-11
3.89571e-08
1.69499e-07
-6.52292e-08
1.02284e-07
-6.13579e-08
4.88502e-08
-7.13221e-08
-7.83696e-08
1.45755e-07
3.93692e-09
-5.33908e-10
-2.13234e-07
-6.71989e-10
2.1444e-07
7.25091e-08
-4.53876e-08
8.26651e-08
-1.28147e-10
6.33864e-08
-6.3284e-08
2.5817e-11
-1.85287e-08
1.36318e-07
6.51664e-08
-1.82955e-07
1.66013e-07
-8.38868e-08
-8.70822e-08
4.9557e-09
1.16724e-07
3.68451e-08
-3.5312e-08
-1.18257e-07
1.58758e-07
-7.48479e-08
7.41812e-08
-1.58091e-07
3.41581e-08
1.28123e-08
1.11788e-07
-8.63995e-08
8.22583e-08
-1.57919e-07
1.21687e-07
8.21115e-10
-1.18602e-07
-3.90568e-09
-3.85294e-08
-2.72341e-07
1.89913e-07
8.19337e-08
8.38329e-08
-6.57577e-09
-5.00976e-10
4.98153e-10
9.11557e-08
-9.11529e-08
-1.20672e-07
1.20585e-07
-2.80724e-10
-5.85567e-08
1.16928e-07
5.93764e-09
7.07338e-09
8.49328e-08
-4.76745e-09
-8.72387e-08
-1.24831e-07
5.50708e-08
8.71618e-08
-1.74016e-08
-4.2967e-08
-7.88048e-08
-9.9211e-09
-8.08289e-08
1.57312e-07
5.45106e-09
7.05259e-08
7.35897e-08
-1.39187e-07
-4.92845e-09
1.11223e-07
7.38864e-10
-1.11875e-07
-8.6212e-11
-6.15644e-09
-1.67628e-07
-1.33761e-08
1.7595e-07
-4.688e-09
1.14672e-07
-1.16877e-07
5.61045e-08
-7.34672e-09
9.53226e-08
-4.51675e-10
-9.37858e-08
-1.08505e-09
1.1917e-07
-7.9634e-10
1.32297e-07
-4.49083e-08
7.86245e-08
9.82339e-11
-1.01315e-07
-3.32475e-09
1.08964e-07
-4.32426e-09
8.89533e-08
-4.89513e-08
-8.81592e-08
1.40745e-10
8.79199e-08
9.85201e-11
-3.41503e-08
-1.3271e-07
1.41656e-07
2.52042e-08
-1.93945e-09
1.2733e-07
-1.25023e-07
-3.67486e-10
-8.58104e-08
-3.57202e-08
1.22087e-07
-5.56247e-10
-4.17743e-09
2.06795e-09
-1.0673e-07
-1.59563e-07
8.55425e-08
7.93203e-08
-5.30019e-09
2.454e-10
-9.85628e-08
9.85195e-08
-2.02055e-10
1.34183e-07
-6.6807e-10
-1.49778e-10
-1.07623e-07
2.74285e-10
1.07498e-07
-6.69839e-08
2.0084e-08
5.58322e-08
1.28142e-07
-7.01242e-08
4.83916e-09
1.36714e-07
-1.35841e-07
-1.38694e-08
-1.21173e-07
1.36621e-07
1.86644e-08
-3.41123e-08
7.03681e-08
-7.1575e-08
1.468e-07
3.79635e-09
1.09903e-07
1.47648e-07
-1.28713e-09
-1.483e-07
6.65676e-08
-1.39045e-07
-4.19644e-09
7.66737e-08
1.396e-07
-7.70385e-08
7.96466e-09
9.75613e-08
-9.54917e-08
-1.0972e-07
5.64554e-08
-2.99015e-08
-1.46331e-07
1.39534e-07
-1.86064e-08
2.54033e-08
1.59141e-07
4.43028e-08
-4.68225e-08
-1.55954e-07
-7.20958e-08
-2.92825e-08
7.86944e-08
2.26839e-08
-1.27311e-07
6.6919e-08
-5.30097e-08
1.13402e-07
-1.47916e-07
-3.24918e-09
1.54084e-07
-2.91876e-09
-1.05909e-07
2.01144e-08
-6.21216e-08
-1.59534e-07
-6.21938e-09
9.25483e-08
-1.40321e-09
-1.09769e-07
-4.84438e-10
-1.06131e-07
1.36505e-07
-7.21482e-08
5.91684e-09
1.52089e-07
-8.11875e-08
-7.74238e-08
6.52224e-09
-1.30721e-07
1.75588e-07
-4.51207e-08
2.53558e-10
8.0417e-08
-8.07276e-08
-1.3041e-07
9.26847e-08
7.20705e-09
-2.33051e-09
6.26467e-10
1.02297e-07
-1.01783e-07
-1.14082e-09
1.84928e-07
-4.69371e-08
-1.01146e-07
-1.05811e-07
9.9364e-08
1.12322e-07
-1.07666e-07
-2.5884e-09
-1.71313e-09
9.95841e-08
-9.8162e-08
2.91026e-10
-9.28772e-09
-1.31759e-07
1.28684e-07
1.23629e-08
-1.35903e-07
1.5248e-07
-9.68629e-09
-6.89011e-09
1.18363e-07
-4.01399e-08
-7.87454e-08
9.44117e-09
-7.68432e-09
-9.49464e-08
9.45189e-08
3.19579e-08
-6.45127e-09
-1.31415e-07
-1.97315e-08
1.07914e-07
-8.19819e-08
-6.20027e-09
1.55551e-07
-6.44423e-09
-1.32726e-08
-1.35834e-07
1.52237e-07
8.11464e-11
-2.45519e-09
-1.49863e-07
1.32974e-07
-1.37073e-09
-5.18602e-11
1.26237e-07
-1.26464e-07
1.968e-10
3.05658e-11
-1.21884e-07
-7.98494e-08
1.22929e-07
2.05784e-08
-1.65764e-07
-1.08257e-07
1.08145e-07
-1.14999e-11
1.23961e-10
-1.30718e-07
-7.04172e-09
1.85659e-09
-9.96213e-08
-6.4158e-11
9.96716e-08
1.3828e-11
-1.19347e-07
-4.05113e-10
1.19792e-07
-3.94504e-11
-1.07621e-08
1.20693e-07
-1.00612e-07
-7.8555e-09
-1.00195e-07
9.99345e-08
1.10455e-10
2.40303e-08
2.77941e-08
8.20976e-08
-1.33086e-07
7.08481e-08
-7.10987e-08
1.40138e-07
-1.39888e-07
1.00764e-07
-7.93725e-08
-2.3629e-08
2.23781e-09
8.87137e-08
1.19592e-08
-1.04391e-07
5.94789e-09
5.59757e-09
-1.05871e-07
1.19943e-07
-1.96695e-08
-4.96781e-10
9.98855e-08
-9.90164e-08
-3.72323e-10
-1.37207e-07
-8.3722e-09
1.60329e-07
2.00396e-07
-8.55486e-08
1.80961e-07
1.49672e-07
-7.48196e-08
5.5645e-09
-3.70037e-08
2.504e-08
-1.05792e-07
1.19987e-07
8.5888e-08
9.09887e-08
-7.37766e-09
9.05762e-08
7.06923e-08
-1.55667e-07
-5.60114e-09
7.98009e-08
7.71866e-08
-7.31539e-09
1.18488e-07
-7.31253e-08
8.08739e-08
7.1952e-08
-1.21918e-07
5.78897e-08
-7.92356e-09
5.95643e-10
-9.63703e-08
-1.22874e-09
2.73682e-10
-3.00454e-07
1.7908e-07
1.6506e-07
-1.1152e-07
2.76949e-08
9.08086e-09
4.20704e-08
4.39505e-08
-9.51018e-08
-1.2438e-07
1.84041e-09
1.23652e-07
-1.11209e-09
-9.57979e-08
9.53953e-08
-2.03007e-11
4.22909e-10
1.24324e-07
-1.61122e-07
1.90589e-07
-1.5379e-07
1.49275e-08
-1.43092e-09
1.22287e-07
-3.0714e-08
7.20617e-09
-7.12895e-08
9.47974e-08
-7.00806e-08
1.35707e-07
5.22165e-09
-1.41842e-07
7.34073e-08
7.35866e-08
-5.15214e-09
-1.07004e-07
-2.42645e-08
1.11537e-07
4.25702e-10
7.43267e-08
-3.3551e-11
-7.47189e-08
1.4151e-07
-6.4651e-08
7.4943e-08
1.26535e-09
-1.13459e-10
3.30298e-11
-9.40419e-08
1.72085e-07
-4.6002e-08
-2.83311e-08
-9.7752e-08
1.09738e-08
2.86589e-08
-1.21989e-07
8.5557e-08
-3.31522e-08
2.197e-08
1.7e-07
2.5766e-08
1.61153e-07
-1.79072e-07
-6.11953e-08
-6.5473e-08
5.49487e-09
1.27451e-07
6.19192e-09
-6.92692e-08
-6.99028e-08
1.31992e-07
7.18016e-09
-1.24199e-09
1.01001e-07
-1.36855e-07
-1.60433e-10
6.80365e-08
-6.83808e-09
-6.53876e-10
-1.30502e-07
1.01815e-10
1.31054e-07
-1.30204e-07
1.57545e-07
-3.89428e-08
1.07371e-08
-9.09866e-09
4.92723e-08
1.07474e-07
-1.24397e-07
7.2464e-08
-2.59215e-08
7.78542e-08
-1.36216e-07
9.18052e-08
-1.25078e-07
1.23474e-07
3.17693e-10
8.96312e-08
2.14005e-08
-1.61041e-07
-2.09884e-08
1.60629e-07
-1.77019e-07
9.70501e-08
-1.33265e-07
-1.64834e-09
1.60264e-07
2.36353e-08
6.47829e-08
-9.29024e-08
4.48407e-09
9.80736e-08
-6.53489e-08
-1.46939e-10
-9.70312e-08
3.00866e-10
-2.2811e-07
2.27999e-07
-5.60867e-10
-9.26373e-08
-9.66779e-08
-9.06868e-08
9.83778e-08
-1.07886e-07
8.17672e-08
-1.03676e-07
1.65256e-08
5.38344e-09
1.22006e-07
-8.79751e-08
-8.99088e-09
-1.50075e-07
-1.10561e-08
2.0512e-08
1.40619e-07
-2.99825e-07
-3.55308e-10
-1.27637e-07
1.26908e-07
2.27918e-10
-9.07378e-08
-8.13107e-11
1.32238e-10
-1.37665e-08
-9.14423e-08
1.46719e-07
-4.15101e-08
1.0472e-07
5.23788e-09
4.22787e-08
-1.31309e-07
1.30352e-07
-3.47732e-09
-5.92646e-08
1.42001e-07
-9.61966e-08
3.08546e-10
-1.24347e-07
-3.4145e-10
8.95597e-08
-9.12987e-08
1.73164e-10
-6.46428e-08
-6.45085e-08
1.21421e-07
7.72998e-09
1.10023e-07
1.72381e-08
-9.44641e-08
-3.27969e-08
1.6553e-08
1.48743e-07
-1.63266e-07
-4.35347e-09
-1.07697e-07
-1.88147e-08
1.23853e-07
-1.28544e-11
-1.24015e-07
1.74594e-10
2.33493e-08
7.33625e-09
5.29621e-08
-8.36477e-08
-1.38294e-07
7.40397e-08
-5.01473e-09
-1.115e-07
1.07101e-07
-7.0512e-09
-3.13017e-10
1.18454e-07
3.4751e-10
-7.844e-08
-7.0299e-08
1.41747e-07
6.99168e-09
1.26324e-07
-6.76893e-08
-6.52403e-08
6.6057e-09
1.25958e-07
-2.07478e-09
-3.08007e-11
-9.87694e-08
-8.88656e-08
9.68972e-08
-1.23469e-07
-4.54719e-08
-5.6611e-09
1.75136e-07
-1.03055e-07
2.87627e-08
-1.25458e-07
9.46339e-11
-1.02523e-07
5.07661e-10
-6.35325e-10
1.31252e-07
2.4917e-08
-2.66749e-08
-1.29494e-07
4.49231e-08
-1.26068e-07
-9.10363e-11
1.79482e-11
3.77617e-08
-1.88801e-07
-7.64151e-08
1.28652e-07
8.71858e-08
2.00185e-08
-1.4209e-07
-1.78149e-08
1.39886e-07
-7.96454e-08
6.42855e-09
1.29665e-07
-1.2875e-07
8.95889e-08
4.05713e-08
-1.40967e-09
-4.75191e-10
9.08176e-11
-9.44895e-08
6.49398e-08
-4.60062e-09
-1.38178e-09
-2.72671e-09
-2.34936e-09
9.27051e-08
-8.76291e-08
8.01505e-08
1.02574e-07
-1.00833e-07
-8.18921e-08
1.44738e-07
-1.61644e-07
3.06382e-10
2.1511e-10
1.53162e-07
-9.87951e-09
-1.34522e-07
-4.1288e-08
1.48767e-07
1.08836e-08
1.15749e-07
-1.09209e-07
-5.56966e-09
-9.70366e-10
-8.84769e-10
1.11126e-07
1.60386e-07
-5.5716e-08
-2.3863e-09
9.12982e-08
-8.1051e-08
-5.17249e-10
3.93761e-10
1.36838e-07
-1.47776e-07
4.83336e-09
1.34978e-07
6.31229e-09
-1.18719e-08
1.31552e-07
-1.64583e-07
3.51247e-08
1.03055e-09
8.79899e-08
-8.6723e-10
-8.81532e-08
-1.15073e-07
1.15205e-07
-9.95491e-11
1.07982e-09
-2.88668e-10
-1.09469e-07
1.08621e-07
-3.702e-11
-1.07639e-07
-2.50169e-10
1.92356e-10
6.99055e-08
-1.0003e-07
-7.47927e-08
1.04917e-07
3.38109e-11
-1.13073e-07
1.13188e-07
-1.48328e-10
-4.58237e-08
1.09509e-07
-3.46123e-08
-1.89653e-08
-1.37601e-07
7.16504e-08
-6.14538e-09
2.74527e-08
-1.55205e-08
1.03817e-07
-1.32606e-07
6.37388e-08
6.16197e-08
7.24729e-09
-1.5443e-07
-1.0777e-07
1.08809e-07
-1.23113e-07
-4.20362e-08
5.63397e-08
1.26726e-07
-1.2745e-07
2.39867e-10
4.84714e-10
-1.65212e-09
-1.79021e-07
8.33861e-11
1.8059e-07
-1.02564e-07
2.8784e-11
1.02522e-07
-1.24454e-07
1.94399e-11
4.20002e-10
7.06628e-08
-1.2503e-07
-6.82798e-09
1.83673e-10
-1.26434e-07
-2.13697e-10
7.47175e-08
7.47189e-08
-5.54972e-09
-7.20557e-08
-7.2371e-08
1.38134e-07
6.29301e-09
-1.14376e-07
9.40248e-10
1.13288e-07
1.47702e-10
1.21222e-07
2.99061e-08
1.08227e-07
-1.54675e-08
1.05653e-07
-5.49901e-09
-9.68819e-08
4.56628e-08
4.40005e-08
7.21864e-09
6.24734e-08
1.25195e-07
-6.81836e-08
-1.15708e-07
7.1618e-08
-6.96168e-08
-1.28084e-07
-1.0301e-07
1.13075e-07
1.18019e-07
1.06324e-07
-1.17199e-10
1.12784e-07
-1.14082e-07
1.40185e-09
-1.03823e-10
-1.27917e-07
-1.25936e-07
8.28846e-10
8.41984e-11
1.65783e-08
3.91342e-08
-1.58703e-07
1.49454e-08
-4.18277e-08
1.91129e-07
1.30546e-07
-8.76448e-08
-4.7781e-08
4.66546e-09
1.87223e-08
-2.05682e-08
1.29471e-07
-3.22346e-08
-7.66679e-08
1.03817e-07
-6.36262e-10
-1.02929e-07
-2.52365e-10
-4.0074e-08
-1.41133e-07
2.79893e-07
-9.86856e-08
1.01986e-07
-7.74508e-08
-8.99399e-10
6.29249e-11
1.00101e-07
-2.78787e-10
7.14612e-08
-7.18702e-08
1.20824e-07
-1.57728e-07
-1.26834e-07
7.72386e-08
1.23002e-07
-2.24974e-09
-2.96269e-08
-7.96272e-08
6.93054e-08
8.2734e-08
8.34689e-09
1.32327e-07
-1.22053e-07
1.7307e-09
1.44671e-07
-7.79938e-08
6.90912e-09
1.15251e-07
-1.51401e-07
1.30296e-07
-8.30713e-08
-3.21527e-08
-1.37441e-08
1.91732e-09
1.01121e-07
-1.12326e-07
6.65917e-08
-1.25947e-07
-5.28785e-09
1.45854e-07
1.17337e-08
-4.25601e-08
1.26522e-07
-8.37503e-08
-2.42575e-09
-2.5113e-08
1.363e-07
-1.52734e-07
4.15462e-08
1.13239e-07
2.02888e-08
-5.40281e-08
-1.12891e-09
-1.27325e-07
1.26914e-07
-8.7089e-10
-2.90865e-08
2.21394e-08
-9.4677e-08
1.01624e-07
7.37409e-08
-1.38569e-07
-5.07518e-09
-1.3233e-07
1.327e-07
-1.86104e-10
-7.47589e-08
1.54223e-07
-1.19538e-07
-7.07151e-08
-7.81016e-08
1.61064e-08
-9.82227e-08
-6.57887e-11
2.08037e-07
3.90967e-09
-1.10913e-07
-1.04172e-07
-7.20157e-08
1.29335e-07
2.231e-07
-2.25809e-10
-8.71526e-08
2.60242e-11
8.73523e-08
3.15293e-08
1.10162e-07
-6.71319e-10
1.45883e-07
6.07298e-09
9.42489e-08
5.55317e-08
2.69921e-09
7.18323e-08
-1.38406e-07
-5.48225e-09
-7.12283e-08
-8.03963e-08
1.42724e-07
8.90033e-09
-8.85483e-08
-4.2466e-09
-4.08705e-09
-3.35641e-08
-1.2285e-07
1.10779e-07
-8.23489e-11
-1.20388e-07
-3.23408e-09
1.17823e-07
-8.74495e-08
-1.32829e-07
9.47758e-08
1.25503e-07
-1.09529e-07
3.80304e-08
7.46707e-08
-3.17262e-09
6.87798e-08
6.8632e-08
-1.30443e-07
-6.96854e-09
-6.99265e-08
-6.73405e-08
1.3103e-07
6.23658e-09
5.05344e-08
4.69633e-08
-1.07442e-07
9.94407e-09
-6.56264e-08
1.09373e-07
-3.56162e-08
-8.13057e-09
1.03473e-07
-1.03881e-07
-2.4529e-10
-9.17962e-08
5.50626e-10
7.98828e-08
1.03322e-07
-2.75374e-08
-1.55668e-07
-3.04252e-08
8.66051e-08
3.75064e-08
-9.36863e-08
-9.58774e-08
3.68413e-11
9.74399e-08
-1.59933e-09
-7.19613e-08
-4.13978e-08
9.2791e-08
1.21313e-07
-3.3402e-09
6.86177e-08
-1.27714e-07
6.41383e-08
-5.04232e-09
-5.45856e-08
3.7354e-08
-1.14524e-07
1.13275e-08
1.30445e-07
-1.03535e-07
-3.77857e-08
1.02961e-07
7.97962e-08
-7.2474e-08
7.22879e-10
-1.19976e-07
-9.40919e-11
4.71136e-08
-3.456e-08
1.01235e-07
-1.15046e-07
5.5338e-08
5.24634e-08
7.24465e-09
7.21877e-08
-4.85497e-09
3.83845e-08
6.21329e-08
7.39632e-09
8.9057e-09
1.24252e-07
-1.01552e-08
-5.98568e-09
-8.06116e-08
7.86853e-08
1.31397e-07
-7.29193e-08
-1.53363e-07
1.53888e-07
1.60391e-07
5.73005e-08
-5.45858e-08
-1.63106e-07
1.41664e-08
-1.26678e-07
1.35861e-07
-7.69494e-08
-7.05269e-08
1.40837e-07
6.63976e-09
-4.42517e-08
-1.06634e-07
1.78311e-09
6.67488e-08
-6.65909e-09
1.27306e-07
-5.3088e-10
-4.93226e-11
2.18141e-08
-8.40486e-08
8.96873e-08
1.8752e-10
1.99997e-10
-1.32718e-07
-1.98262e-09
8.64987e-08
-8.43936e-08
1.12301e-08
-8.22973e-08
1.40636e-07
-6.95688e-08
-2.72801e-08
-1.32051e-07
1.15287e-09
1.58178e-07
9.08932e-08
-1.75048e-07
6.85856e-08
1.55696e-08
-1.20388e-07
8.84212e-08
-9.56695e-08
9.85071e-08
-5.82605e-10
-9.75459e-08
-3.78548e-10
-4.48702e-08
-1.26171e-07
4.52084e-08
1.25833e-07
-7.14481e-08
-1.20129e-07
1.46137e-07
4.54399e-08
-2.83008e-09
-1.40051e-07
1.40618e-07
2.26274e-09
-1.22894e-07
1.22783e-07
-1.54139e-09
-1.40974e-07
1.24555e-07
-6.27199e-08
1.34695e-07
6.96369e-08
-5.77443e-09
7.52347e-08
-1.34615e-07
-6.2538e-08
-1.2389e-07
8.57676e-08
-1.00172e-07
-1.33621e-08
1.38873e-07
-8.58349e-08
-3.42697e-08
1.18409e-07
-1.16329e-07
-3.32724e-09
1.24759e-09
-9.57004e-08
-2.36551e-09
4.02397e-09
2.27389e-10
-1.47105e-07
1.44048e-07
-8.88948e-08
-4.52385e-10
7.98892e-10
-9.07711e-08
7.63113e-08
1.49534e-08
-4.93604e-10
-5.43524e-08
-1.30445e-07
1.75405e-07
9.39241e-09
1.13414e-07
-5.34541e-10
5.54684e-08
4.70727e-08
-1.11462e-07
8.9213e-09
-1.07175e-07
-5.70806e-10
1.0746e-07
2.86078e-10
-1.04514e-07
1.48668e-08
-2.44353e-08
6.17975e-08
-1.19065e-07
5.02278e-08
7.0395e-09
-4.56518e-09
-9.23932e-08
4.321e-09
1.40593e-09
-1.31278e-07
1.7887e-09
5.25893e-08
7.29563e-08
-1.22744e-07
2.07209e-08
9.02634e-08
2.01961e-08
1.25159e-07
-1.25721e-07
5.72098e-10
-1.0802e-11
-2.01978e-07
1.90503e-07
8.40894e-08
-7.26144e-08
5.56684e-08
-1.43653e-07
1.10297e-07
-2.23123e-08
7.31729e-08
-6.63225e-09
-6.6104e-10
2.05783e-11
5.67482e-08
-6.00918e-08
-1.137e-07
1.61281e-07
-1.33392e-07
1.11339e-07
-1.47455e-08
6.37702e-10
-1.48115e-07
1.4754e-07
1.27272e-07
-1.55082e-07
-1.27655e-09
-8.55489e-08
-8.13962e-08
1.60252e-07
6.69272e-09
9.28301e-08
-3.39002e-12
-9.28612e-08
3.45058e-11
-1.448e-07
7.75314e-08
7.19113e-08
-4.64266e-09
-1.95613e-07
1.21161e-07
-1.35509e-07
2.09961e-07
-1.8851e-07
2.48321e-08
-4.48052e-08
-1.10529e-07
-1.60426e-07
9.82512e-08
3.70616e-08
-1.43398e-08
-1.2582e-07
1.37202e-07
2.9578e-09
-3.21747e-09
-1.09283e-07
-9.38435e-09
1.17517e-07
-1.06687e-07
1.1026e-07
-3.35515e-08
1.66113e-07
1.02626e-07
1.51351e-07
-1.26823e-07
-1.20293e-07
4.38996e-10
1.17091e-07
-1.17609e-07
7.92503e-11
1.01119e-07
-1.09483e-07
3.79945e-09
-7.85468e-08
-6.62153e-10
6.83381e-08
1.02871e-07
-4.3903e-08
6.28841e-08
-1.20958e-07
-4.64591e-09
-1.785e-10
1.13912e-07
-1.1386e-07
1.26668e-10
-1.179e-07
-1.53315e-10
1.18837e-07
-7.83338e-10
-1.19778e-07
4.38253e-08
-3.3257e-08
-1.17149e-08
9.82453e-08
7.88975e-08
-1.03316e-09
-1.7611e-07
2.78333e-09
-1.5367e-10
-1.70942e-08
8.1465e-08
-1.45993e-07
8.16222e-08
-1.25955e-07
1.27832e-07
6.58359e-08
-6.15881e-09
2.71942e-08
-1.31087e-07
-3.70712e-08
1.40964e-07
4.0883e-08
1.2078e-08
3.52056e-08
-8.81665e-08
6.94666e-08
7.54274e-08
-1.38716e-07
-6.17829e-09
-1.03936e-07
1.02172e-07
1.75592e-09
8.27536e-12
-6.83831e-08
7.37703e-09
5.58494e-08
-5.38033e-08
1.25841e-07
-1.27888e-07
-1.05098e-07
2.21994e-07
-4.60276e-08
-7.08676e-08
8.62777e-08
-7.26267e-08
-7.54309e-08
6.178e-08
6.85173e-08
-5.62503e-08
-1.37166e-07
5.36302e-08
8.77694e-09
5.83974e-08
8.05221e-08
7.58263e-08
7.74696e-08
-1.47114e-07
-6.18162e-09
1.35512e-07
8.0921e-09
-6.20188e-09
-1.37403e-07
1.03328e-07
8.4552e-10
-3.56695e-10
9.75618e-08
-9.9283e-08
2.30326e-09
-5.821e-10
-6.6313e-08
-7.82042e-08
1.37475e-07
7.04199e-09
-1.21737e-07
1.54101e-09
4.1789e-10
-1.07491e-07
-1.24655e-11
3.27989e-10
1.13903e-08
1.242e-07
1.12483e-07
1.95682e-09
-1.02607e-09
1.25108e-10
-1.04008e-07
1.03312e-07
9.82255e-08
1.75032e-08
2.68022e-09
-1.18389e-08
3.64782e-08
-1.21291e-07
9.66514e-08
1.26432e-07
-1.26247e-07
-7.17132e-11
-1.13736e-10
-2.99977e-08
-1.19584e-07
1.74414e-07
-1.20408e-07
-1.94136e-08
1.44865e-07
-5.04347e-09
1.55736e-07
-1.32302e-07
-2.28542e-08
-2.06422e-08
1.29774e-07
1.27351e-07
-1.28178e-07
4.32365e-10
3.94809e-10
1.52077e-07
-4.67933e-08
-1.49517e-07
4.42336e-08
1.2569e-07
-1.25915e-07
1.49067e-07
-1.48842e-07
9.07637e-09
-1.24567e-08
-9.94653e-08
1.02846e-07
2.70868e-08
-1.039e-07
-4.40857e-08
1.20899e-07
8.75932e-08
7.96906e-08
-1.60205e-07
-7.07866e-09
2.06104e-07
-2.17912e-07
-8.14121e-08
-1.43255e-07
1.03793e-07
-1.31684e-08
1.27035e-08
-1.87925e-07
1.62988e-07
-8.66692e-08
1.35096e-07
-2.29956e-07
1.81529e-07
8.10214e-08
-1.61474e-07
-6.21646e-09
2.06488e-08
9.04939e-08
-1.5651e-08
-9.54917e-08
-1.46552e-09
1.28963e-07
-1.42837e-08
-1.10341e-07
-5.96955e-08
1.55592e-07
-1.08806e-07
1.29094e-08
-2.77582e-08
8.0396e-08
-4.51419e-08
-7.49585e-09
3.32043e-10
-1.00991e-07
1.01057e-07
-3.98153e-10
2.6432e-09
1.26322e-07
-1.27848e-07
-1.11671e-09
-7.3794e-08
-1.27782e-07
1.408e-07
6.63605e-08
-2.39084e-08
1.25667e-07
3.14337e-09
-4.84309e-08
-4.48747e-08
1.28053e-07
-2.33711e-07
2.05255e-08
-1.54053e-07
1.21777e-07
-7.28217e-08
1.24648e-07
-1.21562e-07
-4.43014e-10
-9.89288e-08
1.55593e-09
-2.32452e-09
9.96973e-08
6.25992e-08
-1.92213e-07
-1.47453e-07
-1.33002e-10
1.2794e-07
-1.27629e-07
-1.78404e-10
-1.14682e-07
-4.05391e-08
1.47124e-07
5.70037e-09
-9.23852e-09
1.11844e-07
-1.00116e-07
-1.13664e-08
1.46133e-07
-1.18204e-07
3.69756e-10
-6.54642e-11
6.48819e-08
-1.54534e-07
8.38399e-08
5.81201e-09
-1.49995e-09
-1.14733e-07
-1.51792e-09
1.29204e-07
6.09846e-09
-1.06433e-07
5.41566e-08
5.04172e-08
1.85926e-09
-1.07495e-07
2.96453e-08
1.46367e-07
7.84391e-11
1.37256e-07
-6.7327e-10
-1.36661e-07
7.04184e-09
1.21167e-07
-2.58074e-08
-1.02402e-07
1.45044e-07
-1.65372e-07
8.60627e-08
-6.57342e-08
4.62822e-08
1.16413e-07
-5.70489e-08
-6.77466e-09
8.34645e-08
9.14906e-08
-1.62949e-07
-1.41767e-08
-6.623e-09
1.1042e-07
-1.3308e-07
1.17398e-07
2.7376e-10
-1.17754e-07
8.2437e-11
7.177e-09
1.01357e-07
-3.8138e-09
7.99188e-08
-1.9887e-07
3.15021e-08
-1.33828e-07
2.40512e-09
-7.56164e-08
-6.44926e-08
1.33299e-07
6.80992e-09
-1.08563e-07
-5.02166e-08
3.35806e-08
1.25199e-07
-1.20404e-07
-6.44992e-10
-6.87957e-10
-7.05374e-08
1.49157e-07
-8.45573e-08
5.93793e-09
7.59021e-08
-1.50377e-07
7.7962e-08
-3.48703e-09
-1.14042e-07
-2.32038e-10
1.03768e-07
-1.06446e-07
4.62429e-09
-1.94571e-09
1.52892e-07
-8.56709e-08
8.68115e-09
-1.16358e-07
1.95933e-08
-1.95641e-08
5.97567e-08
-9.88391e-08
-2.22756e-08
1.26578e-07
-1.25751e-07
-1.89753e-10
6.88351e-08
6.16005e-08
-6.1512e-08
-6.89236e-08
8.06169e-08
1.50162e-07
-1.61999e-07
7.99861e-08
6.83317e-08
-1.43143e-07
-5.17504e-09
-1.17462e-07
6.19822e-08
4.8031e-08
7.4485e-09
2.13965e-10
1.2697e-07
1.66775e-10
8.06345e-08
7.53787e-08
-1.50401e-07
-5.61204e-09
1.07012e-07
1.17934e-07
-9.62153e-09
-1.04628e-07
-3.68471e-09
9.65854e-08
4.76433e-11
1.48767e-07
-1.50444e-07
-8.21819e-08
8.38587e-08
5.0446e-08
6.01512e-08
7.33735e-09
-6.27226e-09
-2.06668e-07
1.88669e-08
1.23889e-07
-3.63801e-09
6.28837e-09
1.53843e-07
1.32255e-07
-2.24301e-07
-1.24244e-07
1.09821e-09
-1.47586e-09
1.24621e-07
6.59912e-10
1.00514e-07
-1.0102e-07
-1.54102e-10
-8.04631e-08
1.82902e-07
-1.79388e-07
5.25854e-08
1.24325e-07
-6.55667e-08
-1.11344e-07
4.64414e-08
5.92853e-08
-1.13193e-07
7.46585e-09
1.50642e-07
-1.1453e-08
2.10633e-08
-1.35121e-07
-5.70455e-09
4.31672e-08
-1.37165e-07
-1.90505e-08
-9.56244e-08
-1.12948e-07
1.06398e-07
2.04031e-08
-5.11367e-09
-2.04547e-08
9.7651e-08
2.92012e-08
6.48569e-08
-7.85733e-08
-3.23138e-09
1.26451e-07
3.50892e-09
1.31597e-10
4.71517e-10
-2.16671e-07
-1.54646e-08
-3.62727e-10
1.38236e-07
1.48869e-08
-1.45332e-07
-1.39306e-08
2.75922e-07
-1.21638e-07
-1.40353e-07
-1.69669e-07
1.37847e-07
1.1566e-07
-1.46402e-07
-6.88511e-08
7.46583e-08
-7.6472e-08
7.06648e-08
1.19397e-07
-1.23542e-07
-3.86099e-09
8.00522e-09
-3.9116e-09
-6.42295e-08
7.99957e-08
-1.85436e-07
-8.07774e-08
6.54993e-08
-1.21311e-09
-1.19855e-07
2.63481e-07
-4.18057e-08
-9.9184e-08
-1.35441e-08
-7.76111e-08
1.56094e-07
2.13378e-09
-3.32815e-08
-7.16163e-08
8.99214e-08
1.49764e-08
3.99002e-08
-1.79316e-07
8.13763e-08
5.80396e-08
-1.07741e-07
1.07476e-07
-5.8889e-11
3.24324e-10
9.28123e-08
-2.08029e-10
1.39098e-08
1.26169e-07
1.1385e-07
-7.31529e-09
-8.43956e-08
-1.54838e-07
1.83554e-08
7.97843e-10
1.36814e-07
-9.28049e-08
1.39619e-07
-4.38787e-08
-5.97804e-09
3.13693e-09
1.26411e-07
-3.09697e-09
1.05315e-07
3.94444e-08
-1.54248e-07
-2.99962e-08
-1.25458e-07
-1.08873e-07
-8.51296e-08
4.3927e-08
-1.12491e-08
1.09446e-07
-8.60828e-09
-9.48465e-08
-1.0912e-07
-3.02342e-09
9.53155e-08
-1.22393e-07
9.93583e-08
-6.52279e-10
-9.81493e-08
-5.56682e-10
-2.59125e-08
-1.48871e-07
-1.78009e-07
1.77719e-07
1.14805e-07
-4.79405e-08
1.11756e-08
-7.80397e-08
1.13531e-07
-6.18341e-10
-1.12862e-07
-5.1317e-11
9.42519e-10
1.0297e-07
-1.04161e-07
2.48305e-10
2.91155e-08
1.20066e-07
-3.66983e-08
-7.83215e-08
-8.25042e-08
1.04487e-08
7.7286e-09
1.09836e-07
-1.13519e-07
-4.0457e-09
-1.251e-07
1.35159e-07
-2.33041e-09
-1.34051e-07
-3.49001e-09
-1.48827e-07
1.50743e-07
-5.58579e-08
-8.51507e-08
1.47233e-07
-6.2248e-09
1.07934e-07
-1.50252e-08
6.41714e-10
-4.88315e-11
4.66642e-08
1.17568e-08
-6.42441e-10
-3.98584e-10
7.54539e-08
8.24025e-08
-5.77977e-09
-3.3688e-08
9.96688e-08
7.84755e-08
-2.7985e-07
-1.24499e-07
2.62689e-07
1.4066e-07
1.29974e-07
-5.4906e-08
-8.30619e-08
6.45374e-09
-6.25769e-10
-1.24761e-07
-3.34245e-10
5.43385e-08
6.29601e-08
-1.16218e-07
-1.08101e-09
-1.14381e-07
1.14213e-07
1.18839e-10
4.97096e-11
1.05058e-07
3.21257e-08
-1.37098e-08
1.62164e-09
1.93334e-07
-4.4525e-09
-5.28685e-08
-8.08363e-08
-3.46116e-09
-9.23027e-08
-2.29583e-08
7.2118e-10
1.06634e-07
-1.0651e-07
7.78173e-08
-1.90315e-07
1.06716e-07
-1.08673e-09
-5.71287e-10
6.98027e-08
6.49486e-08
-1.30773e-07
-3.978e-09
-1.60912e-07
8.04616e-08
-2.26375e-08
-2.65431e-08
-3.6323e-08
1.25899e-07
-6.30333e-08
-2.92445e-08
7.06987e-08
3.04571e-08
-1.39039e-07
-8.88597e-08
9.34532e-08
1.34445e-07
7.6128e-08
-5.94906e-09
6.45041e-08
1.27907e-07
-5.28089e-08
-1.39602e-07
-3.7522e-09
1.15363e-07
1.48342e-08
-1.26445e-07
1.09899e-07
-9.35051e-08
-2.03822e-08
3.98803e-09
1.40617e-07
-1.88879e-07
1.74584e-07
1.40352e-07
-6.8158e-08
-6.54113e-08
-6.78234e-09
4.16133e-08
-1.67336e-07
-1.19256e-07
-1.19958e-07
8.72977e-12
-1.85639e-07
1.5646e-07
-1.61889e-07
1.91068e-07
8.2213e-08
-1.50679e-07
-2.61621e-08
1.18432e-07
-1.17418e-07
-4.79608e-10
-5.34639e-10
5.97318e-08
-1.18631e-07
-5.33021e-09
-6.31243e-09
8.28875e-08
-1.76073e-07
7.67715e-08
-1.3414e-07
-7.86523e-11
2.73257e-10
1.33945e-07
-1.50524e-07
1.36515e-07
-1.17316e-07
-8.40715e-08
-2.84159e-08
-7.17657e-09
5.89737e-08
6.88928e-08
-6.08969e-09
-5.22191e-08
-5.94935e-08
-5.74915e-09
-3.63687e-09
-1.021e-07
-9.96968e-08
-1.01303e-09
-5.72323e-09
6.88477e-08
-6.84427e-08
6.55971e-10
-1.061e-09
1.05871e-07
-1.03803e-07
-1.36128e-09
-7.05781e-10
-1.07966e-09
1.25787e-07
-1.24545e-07
-1.62379e-10
-1.30698e-07
1.39264e-08
1.11025e-07
5.74592e-09
1.25559e-07
-1.19342e-07
-4.3247e-09
-1.89289e-09
-1.06089e-07
-1.11591e-09
1.07866e-07
-6.60931e-10
-1.02587e-07
-6.26175e-08
9.53273e-08
3.35045e-08
-9.30028e-09
-1.19532e-07
7.48808e-08
-7.94418e-08
3.73432e-09
8.26723e-10
4.4432e-08
3.67805e-08
-1.26083e-07
1.07984e-07
-1.05108e-07
-7.22768e-09
4.35172e-09
-5.00628e-08
5.05318e-08
1.50564e-07
5.25849e-09
1.26415e-07
-9.45408e-08
1.19507e-08
-2.72255e-08
-1.15497e-08
-1.00263e-07
-3.1757e-08
1.93875e-07
6.10472e-09
-1.68525e-07
1.28221e-07
-3.29684e-08
-1.90615e-08
2.07385e-08
-7.87704e-08
5.74885e-09
-1.23264e-07
1.23082e-07
5.75733e-08
-6.92731e-08
-2.96981e-08
7.63898e-08
2.19964e-09
6.23789e-08
5.57708e-08
-7.72668e-08
-8.17671e-08
1.12904e-07
-1.24726e-08
-6.9475e-08
5.80518e-09
9.26051e-08
1.11886e-08
2.20658e-08
2.41832e-08
-1.04785e-08
5.06648e-08
5.88191e-08
6.92899e-09
-4.84457e-08
1.58465e-07
-1.64372e-07
-1.71979e-07
8.54932e-08
2.1754e-07
-1.46536e-07
1.04747e-07
-3.16378e-08
6.01349e-08
-1.33244e-07
-1.22037e-07
-4.20117e-08
-1.42502e-07
-5.64691e-09
-1.00054e-07
7.92454e-08
-8.71897e-08
1.07998e-07
8.24689e-09
-1.1763e-07
-1.39168e-07
-7.39311e-09
-3.88284e-09
-1.25683e-07
1.13712e-07
1.2187e-07
1.92124e-08
1.01395e-07
2.08672e-09
-1.30953e-07
1.2103e-07
-8.40737e-08
9.39959e-08
-1.00272e-07
1.29432e-08
-2.01621e-08
-3.41938e-08
-1.6825e-08
1.09524e-07
-4.80978e-08
-1.10707e-07
-4.26142e-08
1.2188e-08
-6.99378e-08
-8.39689e-08
7.57569e-09
-6.87147e-08
7.89869e-08
7.8995e-08
2.30303e-08
4.19176e-08
-1.43943e-07
7.0288e-08
1.00729e-08
-6.99104e-08
-3.55119e-09
-7.9097e-08
-8.85204e-08
6.70532e-09
6.15801e-08
-7.14319e-08
-4.7348e-08
5.71999e-08
-4.86176e-08
-8.86707e-09
1.44432e-07
-1.82352e-07
3.84333e-08
-5.12754e-10
-8.03471e-09
2.67571e-08
7.789e-08
-9.66124e-08
4.92917e-10
-9.22542e-08
-7.77917e-10
9.25392e-08
-9.92395e-08
9.89295e-08
1.22753e-10
1.87268e-10
1.28206e-07
-7.05939e-08
-1.29983e-07
-6.02494e-08
-3.75523e-08
9.94885e-08
-1.68683e-09
1.51405e-07
1.14673e-08
-1.14148e-07
5.75724e-09
-1.37333e-07
1.64856e-08
-5.86192e-10
-1.58853e-07
-1.12661e-07
1.1289e-07
-3.07507e-10
7.99842e-08
7.52778e-08
-1.4007e-07
-1.30465e-08
-1.48156e-08
2.24736e-07
-7.93995e-10
-1.03075e-07
-1.86941e-09
9.61153e-08
-9.51141e-08
2.93848e-11
-4.06108e-09
1.34145e-08
2.59472e-08
1.201e-07
-2.25173e-08
1.1387e-07
-9.00641e-09
-3.23229e-09
1.25639e-07
-1.20961e-07
-1.44546e-09
-1.02788e-07
1.11099e-07
-5.83613e-09
1.19528e-07
5.37954e-09
-3.11236e-08
-9.37837e-08
1.16432e-07
1.62851e-09
-1.15975e-07
-2.08555e-09
-6.96053e-08
-5.28056e-08
6.95424e-08
8.79515e-08
1.54501e-09
1.54444e-07
1.90632e-08
-3.53733e-08
-1.42869e-08
3.74123e-09
-7.66069e-08
1.20475e-07
-1.69569e-07
-2.36095e-07
1.25597e-07