/*--------------------------------*- C++ -*----------------------------------*\
| =========                 |                                                 |
| \\      /  F ield         | OpenFOAM: The Open Source CFD Toolbox           |
|  \\    /   O peration     | Version:  2212                                  |
|   \\  /    A nd           | Website:  www.openfoam.com                      |
|    \\/     M anipulation  |                                                 |
\*---------------------------------------------------------------------------*/
FoamFile
{
    version     2.0;
    format      ascii;
    arch        "LSB;label=32;scalar=64";
    class       volVectorField;
    location    "0.026";
    object      U;
}
// * * * * * * * * * * * * * * * * * * * * * * * * * * * * * * * * * * * * * //

dimensions      [0 1 -1 0 0 0 0];

internalField   nonuniform List<vector> 
31639
(
(0.11857 0.00069758 -0.000515361)
(0.116401 -0.000328109 2.00235e-05)
(0.117848 -0.000207041 0.000729099)
(0.120402 5.8878e-05 -0.000120354)
(0.117181 -0.000663546 -0.000264732)
(0.116888 4.86452e-05 -6.8803e-05)
(0.115372 5.29867e-05 -0.000346566)
(0.117959 -7.72161e-05 -0.000105255)
(0.117887 0.000137604 -0.000205262)
(0.119153 -0.000309401 -0.00047724)
(0.119537 0.000480637 -0.000160475)
(0.118884 -0.000499189 -0.000693095)
(0.116975 -0.000307306 -9.55519e-07)
(0.118881 4.3753e-05 9.55076e-05)
(0.115653 -0.000382036 1.45764e-05)
(0.11565 -0.00033851 0.000661667)
(0.117385 0.000273633 0.000116168)
(0.115153 4.30317e-05 0.000350451)
(0.115938 0.000150739 -0.000407112)
(0.117383 -8.53258e-05 -8.04943e-05)
(0.111578 -0.000257711 -0.00038359)
(0.11927 -0.00020345 -0.000495039)
(0.119195 0.000661208 -0.000160184)
(0.116129 0.000149624 -0.000172139)
(0.114805 -0.000109107 -0.000104495)
(0.117803 -5.12403e-05 6.01938e-05)
(0.117389 3.58472e-05 -5.15943e-05)
(0.120271 0.000374119 -0.000158847)
(0.115508 0.000397482 0.00061)
(0.118891 4.58356e-05 0.000470366)
(0.119505 -0.000123738 -0.000105202)
(0.115034 -0.000106472 -0.000133891)
(0.119377 0.000289279 -0.000480801)
(0.116001 -0.000128822 -9.92546e-05)
(0.112917 -1.07544e-05 7.80998e-05)
(0.119422 0.000471757 -2.88989e-05)
(0.110532 -0.000261264 -5.04412e-05)
(0.12011 -0.00039715 0.000332233)
(0.119312 -0.000268425 0.000269475)
(0.110495 5.39617e-05 -7.70323e-05)
(0.11378 -8.16689e-05 -0.000330186)
(0.112392 -0.000338157 0.000154255)
(0.118762 0.000173388 -7.31863e-05)
(0.119749 -0.000767979 -0.000779772)
(0.118521 -0.000500079 0.000656574)
(0.120036 -0.000712881 -0.000368154)
(0.114794 0.000253171 -0.000241894)
(0.11679 0.00043057 -0.000385307)
(0.117112 -4.38537e-05 0.000195127)
(0.119962 -0.000372277 -0.000259674)
(0.119755 -0.000102694 -0.000382919)
(0.111765 0.000222724 -0.000171646)
(0.119371 0.000484659 0.000149268)
(0.110968 -0.000169751 0.000256367)
(0.117208 -0.000265596 -0.000179481)
(0.116925 0.000108687 0.000106727)
(0.112326 -1.87991e-05 -0.000599552)
(0.117328 0.000101072 0.000345247)
(0.117021 4.03548e-05 0.000334834)
(0.112915 0.000169549 -0.0001577)
(0.11812 -0.000114146 -0.000365648)
(0.118593 0.000351734 -0.000167081)
(0.115052 -0.000184378 -0.000345111)
(0.117021 1.4127e-05 -0.000115224)
(0.117826 0.000341216 2.22469e-05)
(0.120077 -0.000165864 -0.000532578)
(0.117594 0.00016331 -0.000923895)
(0.117145 -0.000261535 9.23584e-05)
(0.113767 -3.98589e-05 -0.000310634)
(0.120029 0.000325616 -0.000189134)
(0.118611 6.83372e-05 -0.000232133)
(0.114375 0.000109691 -0.00104979)
(0.118918 -0.000361647 -0.000724327)
(0.117509 -0.000100262 -0.000186801)
(0.1183 0.000382201 -3.76367e-05)
(0.111402 0.000200983 -0.000668025)
(0.119707 -0.00064788 0.000217342)
(0.116418 0.000292395 -0.000561714)
(0.116507 -0.000151681 0.000335447)
(0.118464 0.000276478 -7.52116e-05)
(0.115034 5.26563e-05 0.000149624)
(0.109285 -7.67805e-05 6.93271e-05)
(0.119574 -0.000205647 0.000118797)
(0.117899 -0.00023839 -0.000199474)
(0.117721 -4.49784e-05 -0.000139869)
(0.11956 -0.000300281 -0.00024339)
(0.120091 3.94687e-05 0.000116927)
(0.119881 -0.000167492 -0.000331529)
(0.112155 0.000895988 -0.00131579)
(0.119114 -0.000243784 -0.000408572)
(0.117882 -0.000239832 0.000271564)
(0.116237 -0.000386845 -0.000106729)
(0.113087 -0.000459106 -0.000300716)
(0.115862 0.000432637 -0.000695217)
(0.115039 -0.000688461 -0.000329073)
(0.116093 0.000910337 0.000268541)
(0.117366 0.000226897 -0.000381837)
(0.117475 -9.60882e-05 0.000191048)
(0.117011 0.000138266 0.000155445)
(0.112465 -0.000798174 -7.39102e-05)
(0.118187 5.23185e-05 -6.997e-05)
(0.118203 0.000289726 0.000576462)
(0.115866 -0.000240031 -0.00017817)
(0.111565 7.07545e-05 -0.000175158)
(0.112785 -1.23456e-05 -0.000331276)
(0.120121 -0.000513984 -0.000249765)
(0.111128 0.000376942 -0.000375252)
(0.112106 -0.000676963 -0.000757549)
(0.11426 0.00042356 2.74842e-05)
(0.110862 -7.38995e-05 0.000515302)
(0.118463 -0.000921574 0.000201935)
(0.113165 -5.48394e-05 -0.000256633)
(0.116873 -7.17816e-05 -0.000278795)
(0.116029 -0.000550235 -0.000590589)
(0.117392 0.000147568 -0.000612237)
(0.11156 -0.000417783 0.000257506)
(0.116185 0.000455657 -6.84874e-05)
(0.115645 -0.000548336 -9.30839e-05)
(0.118117 2.02882e-05 -1.22591e-05)
(0.116794 -0.000256477 0.000110652)
(0.117624 -0.000460701 -5.41514e-05)
(0.118925 -0.000504624 0.00036546)
(0.119435 9.1772e-05 -0.000575488)
(0.118091 0.000311515 -0.000673079)
(0.117915 -8.11433e-05 -0.000764162)
(0.118917 -0.00028579 0.00011344)
(0.116756 -1.42249e-05 0.000277381)
(0.115038 0.000182699 -0.000229544)
(0.114851 -0.00055603 -0.000248354)
(0.119041 -0.000249377 0.000107286)
(0.118734 3.56797e-05 -0.000294074)
(0.119266 0.000211584 -0.000376839)
(0.118677 -0.000366892 3.0282e-05)
(0.117106 -0.000105136 5.39229e-05)
(0.119074 -0.000101594 -0.000170184)
(0.117554 -9.72657e-05 7.7212e-06)
(0.112896 -0.00013024 -0.000314786)
(0.112165 -0.000690536 -0.000380469)
(0.119497 0.000416218 0.000525213)
(0.117218 -0.000369413 -0.000360429)
(0.116963 -6.63917e-05 -0.000316962)
(0.119852 0.000240852 0.00094577)
(0.119228 0.000488001 0.000209295)
(0.111584 -0.000281865 -0.000418242)
(0.11199 -0.000127777 -0.000624683)
(0.118812 -0.000180425 -1.08913e-05)
(0.118671 -0.000247165 -0.000297462)
(0.112552 -0.000184625 -0.000391619)
(0.113118 -7.79848e-05 0.000105788)
(0.119068 -0.000312718 -3.72241e-05)
(0.114908 -4.30164e-05 -0.00100247)
(0.116556 7.82788e-05 0.000185583)
(0.116604 -0.000209455 -0.000729844)
(0.118784 -0.000155042 -2.38823e-07)
(0.113237 0.000638466 -0.0010045)
(0.120328 8.62556e-06 7.70796e-05)
(0.118014 -0.000190313 -0.00026332)
(0.113884 -0.00113609 -0.000120191)
(0.112649 -0.00068168 0.000861113)
(0.115795 -0.000356215 -0.000249557)
(0.119908 -0.000106043 -0.000425047)
(0.111604 0.000250905 0.000148707)
(0.113216 9.81288e-05 -0.00100882)
(0.112224 -0.000348996 0.000145645)
(0.111824 -0.00108518 0.000166829)
(0.115645 6.69768e-05 -7.42765e-05)
(0.112267 0.00043318 0.000106708)
(0.119433 -0.000636962 0.000178191)
(0.119632 -0.000408891 0.000215999)
(0.112225 0.000194523 -0.00063686)
(0.113405 -0.000594267 0.00036272)
(0.11652 0.000528931 -0.000604443)
(0.112806 -0.000105063 -9.07066e-05)
(0.117552 -9.04276e-05 0.000437684)
(0.120039 -0.000214146 -0.000289929)
(0.118466 -0.000574634 -0.000371283)
(0.117319 0.000589906 0.000172758)
(0.119001 0.00023313 0.000402154)
(0.117815 -0.000429388 -6.09731e-05)
(0.116436 -0.000265905 -0.000241487)
(0.116765 0.000114898 -0.000113321)
(0.116155 -0.000531666 0.000684882)
(0.115954 9.91383e-05 0.000198192)
(0.110693 0.00102795 -0.000458071)
(0.117463 -4.33035e-05 0.00019369)
(0.119486 0.000422607 -0.00030382)
(0.115711 -8.78935e-05 0.000440779)
(0.119041 0.000250626 -2.5291e-05)
(0.112954 -0.000245854 7.67709e-05)
(0.111257 -0.000165616 0.000330546)
(0.119839 -0.000188435 -0.000132638)
(0.11883 -0.000208581 -0.00020763)
(0.11712 -0.000297629 0.000549265)
(0.116869 -8.62483e-05 0.000220298)
(0.117314 -3.63171e-05 -0.000270906)
(0.116819 -5.21271e-05 -0.000523704)
(0.116599 0.000504203 0.000424223)
(0.118946 0.000279545 -0.000388868)
(0.112731 -6.1474e-05 -0.000245294)
(0.115955 0.000215124 -0.000174048)
(0.119714 0.000140971 6.94818e-05)
(0.11896 -0.00028387 -0.000147619)
(0.118062 -0.000461105 3.77966e-05)
(0.117357 -0.00126813 -0.00032765)
(0.117068 -0.000499698 -0.000400967)
(0.116403 -6.47227e-05 -0.000338865)
(0.117115 -0.000129807 -0.000400315)
(0.116134 0.000485492 -0.000444512)
(0.118822 2.76018e-05 -0.000365178)
(0.1116 -0.000170089 -5.23416e-05)
(0.117161 -2.95304e-05 -0.000106359)
(0.11634 0.000471503 -4.92994e-05)
(0.117496 -2.97171e-05 -0.000426364)
(0.118964 -4.57152e-05 -0.00048777)
(0.118363 -0.000415811 -0.000399133)
(0.119397 -0.00010977 -0.000274701)
(0.112982 -0.00101197 -0.000372378)
(0.114987 -0.000415277 0.00038428)
(0.118807 -0.000328447 -0.000270331)
(0.119589 -0.000150038 0.00022213)
(0.118774 4.7629e-05 0.000223918)
(0.116841 -0.000335901 -0.000517547)
(0.110192 -0.000142713 0.000654229)
(0.117062 -0.000608479 0.000439014)
(0.112076 -0.000398773 -0.000287379)
(0.115243 0.000369279 2.11006e-05)
(0.118848 -0.000389787 0.000489855)
(0.115019 0.000273315 0.000406868)
(0.111784 0.000367502 -0.000232068)
(0.11728 0.000101654 0.00024816)
(0.118149 0.000304985 -0.000195508)
(0.119662 -0.000201236 -6.78239e-05)
(0.11217 -0.000225802 -4.86082e-05)
(0.111314 -0.000568636 0.000147187)
(0.117656 -0.000366667 0.000249662)
(0.118903 0.000109654 -0.00061478)
(0.112492 7.25088e-05 0.000420426)
(0.119185 -0.00076968 0.000222605)
(0.114539 6.89442e-05 -0.000430789)
(0.112945 -0.000334149 0.000132343)
(0.116787 0.000201677 -0.000269472)
(0.118033 -0.000233295 -1.78599e-06)
(0.115903 -0.000880184 2.04092e-05)
(0.114525 0.000241987 0.000834608)
(0.115297 0.000193344 0.000275656)
(0.117049 -0.000160915 -0.000106245)
(0.116354 0.000505611 -0.000341053)
(0.115115 0.000271024 -0.000828979)
(0.111807 -0.000461096 0.000451766)
(0.116548 0.000332558 -0.000440648)
(0.11678 0.000128401 -0.000569502)
(0.113789 -0.000213496 -3.29419e-05)
(0.115124 -0.000973693 0.00017392)
(0.119178 -9.63402e-06 -0.000134539)
(0.119514 0.000588401 8.5026e-05)
(0.116961 0.000534803 -0.000111029)
(0.112867 8.664e-05 -5.72244e-05)
(0.119232 0.000252026 -0.000218376)
(0.118532 0.000359728 -0.000520371)
(0.116617 -0.000334022 -0.0003846)
(0.120201 0.000180082 0.000756925)
(0.119857 0.000129327 -0.000357417)
(0.118191 0.000210792 -0.000454109)
(0.11963 6.19554e-05 0.000113114)
(0.115978 0.000404061 5.77464e-05)
(0.116705 -0.000271872 -0.000635185)
(0.111498 0.000322671 -0.00146846)
(0.115138 -0.000150245 -0.000213067)
(0.119074 -0.000755781 0.000180696)
(0.115771 6.83165e-05 0.00033103)
(0.118632 0.000281935 -3.84987e-05)
(0.116369 0.000458149 -0.000636994)
(0.117234 -0.000192791 4.10593e-05)
(0.118046 0.000210943 0.000330016)
(0.119928 4.87791e-05 -0.000602273)
(0.11752 0.000562683 0.000168012)
(0.112293 0.000199565 -1.37622e-05)
(0.116114 9.66226e-05 0.00010865)
(0.113618 0.00143384 -0.000349809)
(0.119668 -0.000146873 -0.000809643)
(0.116208 -0.000569065 -0.00023507)
(0.118769 -2.41278e-05 -0.00040673)
(0.117508 4.26395e-05 -0.000340574)
(0.115122 -9.71949e-05 -0.000465861)
(0.11184 1.08581e-05 1.37092e-05)
(0.11323 0.000158589 -0.000558947)
(0.112851 0.000236144 0.000165533)
(0.111509 -0.000285618 0.000104149)
(0.119947 -0.000374103 -0.000317405)
(0.11226 -0.00039286 -0.000505288)
(0.117963 -0.000321056 0.000229393)
(0.117612 0.000534693 -0.000234093)
(0.116065 -4.3646e-06 -0.000217944)
(0.113259 -0.000134003 -0.000146478)
(0.119355 -0.000709808 3.12642e-05)
(0.116346 9.87412e-05 -0.000709113)
(0.114456 0.000106383 0.000591077)
(0.119083 0.000240109 -0.00042074)
(0.117634 -0.000159742 -0.000107493)
(0.113269 0.000396873 0.000363355)
(0.116063 5.84352e-05 -9.00107e-05)
(0.112727 0.000208605 -3.30687e-05)
(0.117435 0.000326538 -0.000253534)
(0.116523 0.00023028 -0.000159369)
(0.113212 0.000351657 0.000762208)
(0.116701 -4.15146e-05 -0.000227886)
(0.116097 0.000893741 0.000318662)
(0.110491 0.000129275 -0.001085)
(0.11058 0.000339043 0.000318)
(0.118575 -0.000556475 0.000234796)
(0.119593 0.00014317 -2.209e-05)
(0.119941 0.000156869 -0.000104914)
(0.111889 0.000191091 0.000115264)
(0.113296 6.67616e-06 0.000329477)
(0.118965 0.000265095 0.000284804)
(0.114497 -0.000219329 -0.000245242)
(0.114134 0.00061647 -0.00075781)
(0.11882 0.000258964 0.000445104)
(0.119235 -0.000390404 -7.94025e-05)
(0.11606 -0.000697829 7.88388e-05)
(0.119036 -0.000797455 -0.00029795)
(0.120013 2.20264e-06 -0.000226616)
(0.112503 -0.00011952 -0.000207738)
(0.120059 -0.00081193 -0.000444954)
(0.110629 0.000320348 -0.000132031)
(0.11163 -5.15657e-05 -6.71269e-05)
(0.119478 -0.000409408 -0.000235719)
(0.118815 -0.000525266 -0.000129668)
(0.11991 0.000202252 -0.000596785)
(0.119953 0.000527261 -0.00085472)
(0.118588 -4.64241e-05 -0.000616463)
(0.113666 0.00102051 -0.000515092)
(0.115367 -0.000853902 0.000625219)
(0.116624 -2.94394e-06 -0.000109731)
(0.118301 -0.00083624 0.000100104)
(0.119471 0.000829143 0.000577854)
(0.119649 -0.000638756 0.000234726)
(0.116918 0.000152129 -0.000203013)
(0.115073 -0.000822399 0.000463488)
(0.116682 -0.000181254 -1.19974e-05)
(0.119254 3.50749e-05 -0.000190891)
(0.118344 -2.61388e-05 -0.000890321)
(0.115579 0.000135765 -0.000261355)
(0.117496 -0.000280099 -5.66455e-05)
(0.116579 0.000577138 -0.000477413)
(0.116095 -0.000317672 -0.00029651)
(0.118287 -0.000225409 2.73078e-05)
(0.11548 -0.000792544 0.000712487)
(0.112706 -0.000136435 4.21821e-05)
(0.117024 0.000590566 -0.000634988)
(0.118612 -4.38188e-05 -5.46886e-05)
(0.115622 4.56641e-05 -0.000176621)
(0.118206 0.000334116 0.000245394)
(0.119123 -0.000607449 0.000173962)
(0.117481 0.000114127 -0.000245183)
(0.113462 0.000362031 -0.000350045)
(0.116796 0.000324498 -0.000371638)
(0.116015 0.000308691 0.000249693)
(0.111669 0.000263808 -0.000418158)
(0.118702 -0.000804479 0.000185635)
(0.111737 0.000466794 0.000393333)
(0.117854 -9.94567e-05 -0.000436382)
(0.119594 -0.000799163 -0.000104398)
(0.112408 -0.000231497 0.000128254)
(0.117265 0.000265336 1.6618e-05)
(0.116316 0.000313886 0.000474346)
(0.112125 -0.000209066 0.000134003)
(0.117611 -0.000125379 -9.62316e-05)
(0.113478 1.03088e-05 -0.000228913)
(0.116362 -8.45218e-05 0.000547358)
(0.119111 0.000499273 0.000119716)
(0.117765 5.42915e-05 0.000203422)
(0.11136 0.000323445 -0.000135173)
(0.118164 0.000170116 1.42138e-05)
(0.11324 0.000167416 -0.000401004)
(0.118132 -0.000142525 -3.29901e-05)
(0.118351 0.000279281 1.39101e-05)
(0.118704 -0.000336711 -0.000403219)
(0.11934 -0.000275557 -0.000430268)
(0.112405 -9.79741e-05 -0.000449462)
(0.118612 -0.000909557 0.000201047)
(0.111826 -2.97143e-05 -0.000475517)
(0.116368 4.04496e-05 -0.000349484)
(0.112422 0.000148242 -0.000205143)
(0.120098 3.22467e-06 -0.000284345)
(0.11951 0.000118167 -0.000318656)
(0.120078 -9.67136e-05 2.85982e-05)
(0.119622 -0.000379483 -0.000488248)
(0.117021 -0.0001061 -0.000314054)
(0.118652 -5.98917e-05 0.000167383)
(0.116816 0.000213009 -1.7513e-05)
(0.117353 0.000106843 -0.00021601)
(0.117034 0.000137954 -0.000346815)
(0.113188 6.40732e-05 8.2303e-05)
(0.118287 -0.000133287 -0.000320602)
(0.116995 -0.00028963 -0.000146523)
(0.117366 -0.000265915 -0.000242141)
(0.119004 9.19285e-05 6.70642e-05)
(0.118458 -6.23896e-06 -0.000485838)
(0.118572 3.51158e-05 0.000118827)
(0.116211 -0.000623589 9.69294e-05)
(0.111654 -5.90545e-05 0.000629243)
(0.116147 0.000205393 0.000320489)
(0.118398 0.000126912 0.000181913)
(0.118014 -0.000285265 0.000172958)
(0.112349 -0.000489056 -0.000422447)
(0.119585 2.59943e-05 -0.000332497)
(0.119317 -5.30142e-05 -0.000666554)
(0.115889 0.000148093 -0.000526846)
(0.118593 -0.000334214 -0.000478543)
(0.118948 -0.000139078 -0.000940187)
(0.118044 -0.000197823 -0.000528307)
(0.11856 -0.000269759 -5.68551e-05)
(0.111982 -0.000246518 -0.000120602)
(0.117797 -0.000251357 9.68937e-05)
(0.118512 -0.000361388 0.000266181)
(0.110538 0.00014136 -9.48495e-05)
(0.117224 -0.000581161 5.93981e-05)
(0.118017 -0.000311184 -0.000224143)
(0.114412 0.00015145 0.000140398)
(0.111542 -0.000193919 3.11887e-05)
(0.111602 -0.000165875 0.000600518)
(0.115867 -0.00079316 0.000118856)
(0.111273 0.000238755 -0.000210666)
(0.116631 1.6425e-06 0.000184696)
(0.117425 -0.000172139 5.86747e-05)
(0.114641 0.000516443 0.000324458)
(0.118256 0.000567153 -0.000149123)
(0.112565 -0.000111801 0.000165365)
(0.1183 0.000396299 0.000150849)
(0.120165 0.000166631 1.69005e-05)
(0.116803 -0.000167019 6.34578e-05)
(0.118032 -7.37232e-05 0.000472602)
(0.116048 -9.80234e-06 2.90268e-06)
(0.119507 0.000668849 -0.00022712)
(0.117658 0.000442742 -7.11739e-05)
(0.117115 -5.47996e-05 -0.000534561)
(0.120213 -1.43304e-05 -0.000419925)
(0.117255 1.25025e-05 -0.000306888)
(0.112322 -7.211e-05 0.000186706)
(0.116949 -8.32492e-06 -0.000167326)
(0.119957 0.000206142 -0.000837374)
(0.119351 0.000261781 -0.000500285)
(0.118442 -7.43913e-05 0.000479028)
(0.119333 0.000191034 -6.98695e-05)
(0.117047 -0.000590049 0.0003588)
(0.118298 -0.000229586 0.000122266)
(0.11777 0.000136542 0.000291339)
(0.118871 0.000150496 -0.000269866)
(0.119104 -0.000558469 -0.000226033)
(0.111389 -0.000371434 -0.000201745)
(0.116344 -0.000375391 0.000167389)
(0.110282 -0.000219165 0.000128208)
(0.115803 0.00036965 0.000598134)
(0.115915 9.01849e-06 -0.000510591)
(0.112228 -0.00046371 0.000572352)
(0.111389 -0.000374241 -0.000460175)
(0.116608 0.00030834 -0.00024188)
(0.117822 -0.000332022 -6.99577e-05)
(0.119029 6.78587e-05 -0.000513569)
(0.112449 -2.92941e-05 0.000392456)
(0.1179 -0.000224322 0.000158194)
(0.116124 -0.000106573 0.000133274)
(0.116991 -0.000132137 -0.000505151)
(0.117707 7.95499e-05 -0.000478269)
(0.113508 0.00132478 0.00213267)
(0.117003 2.04194e-05 -0.000536063)
(0.112118 8.98022e-05 0.000345356)
(0.115779 -0.000268919 -0.000277653)
(0.118712 -0.00016118 2.00374e-05)
(0.12029 0.0011021 0.000429422)
(0.11919 0.000168546 -0.000804971)
(0.117141 0.000639864 -0.000530399)
(0.111263 0.000205431 0.000799899)
(0.118061 -0.000253831 5.06796e-05)
(0.117887 8.39465e-06 -0.00031045)
(0.118911 -0.000235335 -0.000356159)
(0.111462 6.93847e-05 2.8023e-05)
(0.113523 -0.0001183 0.000275132)
(0.116191 0.000349435 0.00038526)
(0.113347 0.000386898 -0.000276159)
(0.11112 -0.000421234 -8.51252e-05)
(0.118415 1.43232e-05 -0.000354049)
(0.112996 -3.80295e-05 -3.76387e-05)
(0.115411 0.000743585 0.00020025)
(0.11233 -0.000497115 -0.000771322)
(0.118203 0.000212835 2.13385e-05)
(0.11293 6.56586e-05 -0.000213037)
(0.119587 -8.71951e-05 0.000412901)
(0.118723 0.00016168 -0.00031606)
(0.119793 -0.000133645 0.000490553)
(0.11984 -9.833e-05 -0.000280395)
(0.112687 -4.8072e-05 0.000150851)
(0.119182 0.00018143 0.00022336)
(0.119894 -9.02106e-05 -0.000195321)
(0.117161 -0.000347225 0.000230168)
(0.118264 0.000449561 -0.000178479)
(0.117885 -0.000376739 -0.000232832)
(0.119553 0.000332183 -3.51755e-05)
(0.118803 0.000159733 0.000573679)
(0.114721 7.13096e-05 -0.000390675)
(0.120417 -7.05359e-05 -0.000103659)
(0.119954 -0.000201334 0.000114045)
(0.117384 -0.000134199 4.97644e-05)
(0.115832 -0.000341701 -0.00072334)
(0.119291 -0.000410166 -0.000211459)
(0.117498 0.000210652 -9.69319e-05)
(0.110781 0.000573633 -0.000284974)
(0.110802 0.000392458 -7.68572e-05)
(0.116867 2.27167e-05 0.00015976)
(0.118989 6.7326e-05 9.42477e-05)
(0.119962 -0.000149972 -0.000206221)
(0.11516 -0.000261452 -8.09718e-05)
(0.118928 0.000378662 0.000225595)
(0.11803 -0.00013844 0.00039173)
(0.119726 0.00101476 0.000860559)
(0.11712 -3.57386e-05 -2.51508e-05)
(0.116229 0.000437598 -0.000307832)
(0.11731 -0.00156846 0.000928243)
(0.112118 -7.1078e-05 -0.000165406)
(0.116399 5.04195e-05 0.000108259)
(0.117381 5.37778e-06 -0.000126068)
(0.119342 4.5985e-05 -8.58248e-05)
(0.113404 -0.000275747 3.7761e-05)
(0.113708 0.000385561 -0.000450639)
(0.11463 -5.62985e-05 -0.000359241)
(0.114846 -0.000413788 -0.000101311)
(0.117065 -9.4375e-05 -0.000487477)
(0.111711 -7.56337e-05 -0.000462988)
(0.118742 0.000366082 -0.000684315)
(0.115664 0.000129792 -0.000171251)
(0.117945 3.49136e-05 0.000791458)
(0.116056 -0.000195592 -0.00010377)
(0.120034 -0.000263402 -0.000297231)
(0.116932 -5.37892e-05 -0.00067659)
(0.111729 0.000139119 0.000511156)
(0.117537 0.000800638 0.000168412)
(0.12004 -0.000124773 -0.000817269)
(0.112527 0.000284152 0.000948994)
(0.118811 -1.06581e-05 -0.000653698)
(0.120191 -0.00102483 -0.000366209)
(0.117353 -0.000345205 0.0001038)
(0.116342 0.000253047 0.000115167)
(0.120806 -0.000245737 -0.000500125)
(0.114677 7.10242e-06 -0.000101268)
(0.117167 -0.000346561 -6.94517e-05)
(0.116924 0.000182848 0.000105502)
(0.112832 -2.47527e-05 2.96368e-05)
(0.113085 -7.19867e-05 -0.00110568)
(0.116246 0.000232323 0.000259097)
(0.114811 0.000517715 0.000157792)
(0.118494 -5.64189e-05 -0.000275465)
(0.11438 -0.00032338 0.000298554)
(0.115912 0.000335901 0.000442118)
(0.119787 9.99357e-05 0.000271453)
(0.116462 0.000152981 -5.04286e-05)
(0.111428 0.000229719 0.000185016)
(0.11465 0.000201769 -2.32784e-05)
(0.117414 0.000332387 -0.000150315)
(0.119915 -0.000158299 0.000132822)
(0.111614 0.000621812 0.000449971)
(0.111564 -3.8963e-05 0.000220337)
(0.119966 0.00015525 0.000761855)
(0.111808 0.000184306 8.40252e-05)
(0.117992 -0.000118303 -9.74459e-05)
(0.118567 0.000202207 -0.000212684)
(0.113037 -0.000137582 -0.00074022)
(0.117433 0.000294422 -9.5302e-05)
(0.119385 0.000254692 -0.000299227)
(0.1167 6.41085e-05 0.000650515)
(0.110431 2.90297e-07 0.000161551)
(0.119598 6.8222e-05 -1.70934e-05)
(0.116701 -6.23573e-05 -0.000345519)
(0.111261 0.000477649 -4.19635e-05)
(0.119681 0.000129137 -0.000118948)
(0.116193 -0.000133342 -0.000117857)
(0.115951 0.00038291 -0.000335685)
(0.118325 -0.000347958 6.31507e-05)
(0.111407 0.000769587 -0.000395958)
(0.11552 4.85771e-06 -0.000870759)
(0.115591 -0.000456288 2.83703e-05)
(0.116496 0.00014728 -0.000393736)
(0.112903 -7.28222e-05 0.000414713)
(0.11458 -1.69992e-05 -3.45989e-06)
(0.118499 0.000584515 0.000196879)
(0.120495 -0.000599568 -0.000729482)
(0.120665 -0.000390436 0.000323891)
(0.119588 0.000128051 -0.000111196)
(0.119604 -0.000510068 -0.000165993)
(0.118201 0.000124769 -0.00109418)
(0.114171 -0.000198803 0.000295153)
(0.120448 0.000152519 -0.000815572)
(0.118444 -0.00010044 -0.000120774)
(0.118554 0.000675123 0.000316765)
(0.113185 0.00077255 -0.000224845)
(0.117546 -0.0001716 -0.000229252)
(0.117606 0.000217327 0.000467461)
(0.120601 0.000834724 7.23781e-05)
(0.111922 -5.37697e-05 0.000233764)
(0.110941 -0.000574951 0.000293412)
(0.119446 7.11631e-05 -0.000478734)
(0.114752 -0.00017166 -0.000300514)
(0.119204 0.000117394 -2.54141e-05)
(0.115692 -3.10126e-05 -0.000307237)
(0.113016 -0.000109879 -0.000678484)
(0.117449 8.7124e-05 -0.000748115)
(0.119523 0.000373593 -0.000170663)
(0.116695 0.000228759 4.2964e-05)
(0.118651 0.000797219 -0.000220645)
(0.112394 9.94141e-05 -0.0014491)
(0.118831 0.00106482 0.000519115)
(0.118291 -8.65242e-05 -0.000415454)
(0.11107 0.000290786 -3.60458e-05)
(0.118668 -0.00010976 -0.000398522)
(0.118749 -0.000282938 0.000114717)
(0.11942 0.000590937 0.00138191)
(0.112639 -0.00060319 -0.000814754)
(0.111911 0.000236641 -0.000674044)
(0.115921 0.000319557 -0.000315564)
(0.116778 2.63782e-05 0.000804786)
(0.117143 -0.000188392 0.000135787)
(0.116634 0.000383685 0.000149335)
(0.1163 0.000362145 0.00050084)
(0.119267 0.000135649 -3.07417e-05)
(0.117406 -0.000232817 0.000111389)
(0.117705 0.000146646 0.000120386)
(0.113148 -0.000244316 0.000566759)
(0.119864 -0.000128109 -0.000895001)
(0.112181 -0.000170017 -8.24424e-05)
(0.117322 0.000745309 5.32336e-06)
(0.116311 0.000362233 -8.66598e-05)
(0.115936 -0.000781113 -0.000457069)
(0.118126 0.00034833 -3.73921e-05)
(0.115415 -0.00042876 -0.00042513)
(0.112955 -0.000659057 -0.000414644)
(0.111412 -9.47193e-05 -0.000435841)
(0.112558 -0.000258687 -0.000191641)
(0.115956 -0.000455786 -0.000349507)
(0.118608 0.000623958 0.000331112)
(0.112108 0.000424092 0.00138093)
(0.118731 -0.000201319 -9.24829e-05)
(0.116117 8.50038e-05 -0.000609028)
(0.119752 -0.000277526 -0.000399929)
(0.111914 -5.70738e-05 -0.000686034)
(0.115465 0.000393362 0.000555242)
(0.11892 3.79677e-06 -0.000504919)
(0.119485 -0.000638994 -3.036e-05)
(0.118761 0.00025883 -0.000328624)
(0.11959 -0.000217851 -0.000144537)
(0.117633 3.82283e-05 0.000197446)
(0.116484 0.000555658 0.00012727)
(0.119626 -5.36921e-05 0.000372653)
(0.119367 0.0002901 -1.67055e-05)
(0.119853 0.000211305 7.4478e-05)
(0.113542 0.00082882 -0.000294388)
(0.119619 -0.00049823 -0.000632225)
(0.111536 -0.000277186 0.000364147)
(0.119861 0.000657883 -6.20406e-05)
(0.117392 0.000246818 -0.000224594)
(0.116379 -1.37063e-05 -0.000366206)
(0.112488 0.000687743 4.17344e-05)
(0.11673 0.00106876 -0.00063609)
(0.110252 -0.000975628 -0.000324079)
(0.118651 -3.80996e-06 -0.000331279)
(0.116559 9.79433e-05 -0.000238778)
(0.119183 -0.000104884 -0.000228632)
(0.115983 0.000402736 -0.000274796)
(0.116347 0.00096659 -0.000237173)
(0.112075 -0.000267383 0.000542699)
(0.119951 0.00015518 3.03854e-05)
(0.113013 -0.000521326 0.000144361)
(0.110707 -0.000240518 -0.000314903)
(0.112827 -0.000212231 9.24025e-05)
(0.113311 0.0001677 0.000109373)
(0.112886 0.000672557 -4.86685e-05)
(0.116889 -0.000281822 8.9317e-05)
(0.111849 0.000135543 -7.87433e-05)
(0.118215 -0.000958962 0.000230157)
(0.118325 2.00311e-05 -0.000482879)
(0.110577 -7.68463e-05 6.43072e-06)
(0.118292 0.000380368 3.65422e-05)
(0.112559 0.000328447 -0.000647696)
(0.115766 0.000774719 1.13655e-05)
(0.11718 0.000290298 3.9273e-05)
(0.116221 -0.000149196 -0.000882643)
(0.118416 6.84694e-05 -0.000118703)
(0.12032 0.000173314 -0.000734816)
(0.118616 6.94348e-05 0.000455558)
(0.117859 2.21734e-05 -0.000252869)
(0.117388 -0.000168798 -0.000898479)
(0.118544 0.000415374 0.000257516)
(0.115556 0.000166363 8.00499e-05)
(0.116056 0.000257235 0.000119138)
(0.111212 0.0006628 -0.00067957)
(0.110754 0.00209312 0.00334166)
(0.119379 3.23591e-06 0.000105711)
(0.117094 1.0809e-05 -0.000169432)
(0.118287 -0.000253592 -0.000136838)
(0.118716 -2.38981e-05 6.07529e-05)
(0.111423 -0.000485726 -8.50038e-05)
(0.119208 -9.44171e-05 -0.000364857)
(0.119532 0.000476006 -4.23174e-05)
(0.119422 3.75073e-05 0.000153837)
(0.119379 0.000101837 0.000283198)
(0.118171 0.000323235 0.000364227)
(0.117727 -0.000466733 -0.000276009)
(0.119481 -6.22306e-05 5.58028e-06)
(0.119875 -0.000129548 0.000386374)
(0.117938 0.000321886 0.000337967)
(0.119455 0.000114602 -0.000184006)
(0.118652 -0.000351981 -0.000441612)
(0.113658 -0.000299189 -0.000415608)
(0.119211 -0.000109076 0.000219508)
(0.114139 3.28029e-05 0.000510996)
(0.117008 -1.27181e-05 -5.68163e-05)
(0.117351 -0.000653267 -0.000112329)
(0.116813 -0.000523592 0.000105848)
(0.115637 0.00059994 -1.32868e-05)
(0.118464 0.000262296 -0.000183945)
(0.116074 0.000454003 0.000335899)
(0.117769 0.000300684 -0.00035501)
(0.115865 0.00100291 -0.000456818)
(0.111585 0.000961195 -0.000623562)
(0.1203 0.000364233 -0.000268601)
(0.118106 0.000506621 -0.000169752)
(0.115323 -1.57736e-05 0.000576488)
(0.111871 -0.000541852 -3.19642e-05)
(0.119001 -0.000403674 -9.38385e-05)
(0.111417 -0.000601324 -0.000547945)
(0.119617 -0.000279687 1.16197e-05)
(0.118278 -4.22924e-05 0.000391683)
(0.116091 0.000986648 -0.000364607)
(0.118469 -0.000358062 0.00029811)
(0.119822 6.03494e-05 -0.000471309)
(0.117614 -0.00039604 -7.21498e-05)
(0.111528 -0.00014566 0.000175372)
(0.116188 -0.000199176 -0.000177553)
(0.114016 0.000413013 -0.000505316)
(0.116853 6.19068e-05 -0.000101192)
(0.11155 -0.000504294 -0.000850487)
(0.118047 -0.000122044 -0.000299456)
(0.118544 -0.000463483 0.000484914)
(0.114782 0.000433232 -0.000567708)
(0.11681 5.39261e-05 2.92631e-05)
(0.114502 -9.32718e-06 -0.000124816)
(0.118633 -2.61088e-05 -0.000347505)
(0.115433 -0.000614924 0.000186187)
(0.116655 0.000352917 0.000315226)
(0.112037 -0.000199626 5.14978e-05)
(0.119402 -5.3073e-05 -2.13242e-06)
(0.117374 -0.000456079 -0.000226839)
(0.11937 0.000193337 8.26037e-05)
(0.114303 0.000491175 -0.000324016)
(0.117175 -7.97851e-05 -0.000276077)
(0.117822 8.78369e-05 -0.000293507)
(0.116003 1.06364e-07 0.000355979)
(0.116909 -7.25653e-05 0.000122883)
(0.116777 -6.7282e-05 0.000456679)
(0.119214 -0.000373624 8.02548e-05)
(0.116868 -0.000212707 -0.000106005)
(0.112436 -7.61424e-09 -0.000182803)
(0.110893 -0.00020565 -0.000555242)
(0.118354 -0.00049952 -1.49338e-05)
(0.111557 0.000477651 -0.000778089)
(0.114578 -0.000626438 -0.00106314)
(0.116937 0.000275757 -0.000193766)
(0.117104 0.000236676 -7.41055e-06)
(0.119823 0.000548899 -0.000203533)
(0.111418 -0.000107256 -8.28417e-05)
(0.117001 -0.00010722 -0.000639405)
(0.120094 3.57909e-05 -0.000332961)
(0.112449 0.000809846 -0.00234686)
(0.11274 0.00136725 0.000144553)
(0.116248 -6.89186e-05 -0.000639185)
(0.112887 -0.000118664 -2.88162e-05)
(0.117807 0.000284908 -0.000496482)
(0.112822 -0.000287755 7.3836e-05)
(0.119397 -0.00072675 -0.000305857)
(0.114225 0.000138014 0.000460952)
(0.115187 0.000293329 0.000443068)
(0.120315 0.00027765 0.000697356)
(0.110862 -0.000189815 0.00037599)
(0.115497 0.000123862 0.000383527)
(0.115395 -3.86035e-06 0.000541575)
(0.119457 -8.58562e-05 -0.000633469)
(0.119618 4.21459e-05 0.000197617)
(0.119095 1.44046e-05 -0.000199954)
(0.112352 0.000669781 0.000357774)
(0.118287 -1.82422e-05 -0.000428765)
(0.118917 0.000190222 0.000738186)
(0.114553 -0.000290315 -0.000115836)
(0.119318 0.000287367 -0.000142408)
(0.118716 0.000226186 0.000184279)
(0.118322 0.00034048 3.05297e-06)
(0.119224 -0.000137025 -0.000506864)
(0.117283 6.31152e-05 -0.000209012)
(0.120335 6.94197e-05 0.000250935)
(0.119668 0.000658837 0.000757164)
(0.119544 -9.44074e-05 -0.000186833)
(0.117723 0.00047077 0.000334168)
(0.115997 -0.0002221 -0.000444885)
(0.117468 0.000301538 5.9443e-05)
(0.117122 0.000153081 -0.000352297)
(0.11152 -0.000779845 -0.000196994)
(0.11628 -0.00055828 8.58281e-05)
(0.117774 -8.91376e-05 0.000454878)
(0.119391 -0.000242443 -0.000243639)
(0.119423 -0.000327995 -0.000565759)
(0.116601 -0.000414835 0.00010364)
(0.120555 0.000928103 -6.66851e-05)
(0.118839 -3.38185e-05 -1.68281e-05)
(0.115396 -0.000650385 0.000625209)
(0.118125 -6.4746e-06 -0.000396182)
(0.119246 8.06014e-05 -0.000271545)