/*--------------------------------*- C++ -*----------------------------------*\
| =========                 |                                                 |
| \\      /  F ield         | OpenFOAM: The Open Source CFD Toolbox           |
|  \\    /   O peration     | Version:  2212                                  |
|   \\  /    A nd           | Website:  www.openfoam.com                      |
|    \\/     M anipulation  |                                                 |
\*---------------------------------------------------------------------------*/
FoamFile
{
    version     2.0;
    format      ascii;
    arch        "LSB;label=32;scalar=64";
    class       surfaceVectorField;
    location    "0.026";
    object      Uf;
}
// * * * * * * * * * * * * * * * * * * * * * * * * * * * * * * * * * * * * * //

dimensions      [0 1 -1 0 0 0 0];

internalField   nonuniform List<vector> 
68568
(
(0.117932 0.0003513 -0.000130901)
(0.117294 0.000630098 -0.000163318)
(0.117012 0.000440964 -3.61631e-05)
(0.119271 0.000838691 -0.000302784)
(0.117675 -0.000312084 -0.000216973)
(0.117602 -0.000400711 -0.000396874)
(0.116692 -0.000318547 5.97077e-06)
(0.11206 -0.000137417 -0.000165906)
(0.118578 0.000242644 0.000206714)
(0.1183 -0.000405532 0.000665663)
(0.117346 -0.000254668 0.000175915)
(0.114577 -0.000516285 0.000682444)
(0.120171 -0.000174016 -0.000201599)
(0.119059 2.77513e-06 -0.00031601)
(0.120185 -8.34451e-05 -0.000204949)
(0.120379 -0.000112024 -0.000224846)
(0.115477 -0.000213108 -0.000202422)
(0.117986 -0.000437161 -0.000237071)
(0.114942 -0.000187817 -0.000276693)
(0.117627 -0.000457652 -0.00030414)
(0.118051 -1.4393e-07 -6.18073e-05)
(0.116964 4.03653e-05 9.4616e-05)
(0.118154 3.28384e-05 0.000108986)
(0.113157 3.71774e-05 -0.000275633)
(0.116591 -5.52575e-06 -0.000253069)
(0.112618 -9.39268e-05 2.42811e-05)
(0.114167 0.00015833 -0.000481162)
(0.11662 2.05224e-05 -0.000313689)
(0.116665 0.000243486 0.000383228)
(0.118683 0.000158792 -6.61229e-05)
(0.117458 -4.70888e-05 -7.01232e-05)
(0.117898 -0.000163811 -0.000327929)
(0.11686 5.7253e-05 -0.000243378)
(0.116871 0.000198998 -0.000547148)
(0.118736 -0.000272208 -8.57485e-05)
(0.118112 -0.000385056 -0.000340029)
(0.119341 -5.94342e-05 -0.000566002)
(0.119561 -0.000379552 -0.000384688)
(0.119461 0.000491626 -7.53248e-05)
(0.11855 0.000353449 -0.000146339)
(0.119246 0.000320913 -0.000148788)
(0.116598 -9.5191e-05 -0.000445178)
(0.119776 -0.000411108 -0.0006606)
(0.119417 -0.000462387 -0.000583978)
(0.117705 -0.00013037 1.45798e-05)
(0.116873 -0.000317555 -2.50093e-05)
(0.112491 5.09632e-05 -0.00029402)
(0.119293 -0.000110242 -0.000193128)
(0.119245 -0.000105389 0.000195092)
(0.118605 -7.14634e-05 8.80976e-05)
(0.116683 -6.07838e-05 0.000117008)
(0.115764 -0.000307686 -7.26346e-05)
(0.117099 -0.000317666 -0.000179362)
(0.116577 -0.000267084 -6.79879e-05)
(0.111943 -0.00033102 -0.000114165)
(0.116674 -0.000347945 0.000689817)
(0.112719 -0.000261669 0.000386953)
(0.114263 -0.000318319 0.000623887)
(0.116851 -0.000249039 0.000263906)
(0.116333 0.000137612 0.000207533)
(0.117107 0.000240855 0.000226427)
(0.116759 0.000164126 0.000114132)
(0.118072 1.04074e-05 9.89725e-05)
(0.113204 0.000378314 0.000384049)
(0.113282 -0.000308283 0.000635633)
(0.116499 -5.95684e-05 0.000252055)
(0.116508 0.0001224 -0.000579084)
(0.114428 -0.000245972 -7.11921e-05)
(0.113245 0.000158601 -0.000655048)
(0.116918 -8.76473e-05 -0.000352387)
(0.117404 9.16699e-06 -5.77559e-05)
(0.118457 -0.000281584 -3.3127e-05)
(0.118142 -0.000423309 9.68065e-05)
(0.11395 -0.00014815 5.02166e-05)
(0.112711 -0.000193059 -0.000357311)
(0.114215 1.18964e-05 -0.000268227)
(0.11297 0.000244492 -0.000290506)
(0.104613 -0.000143281 -0.00043061)
(0.118192 -0.000347151 -0.000475366)
(0.119591 -9.07508e-05 -0.000539867)
(0.118601 -0.00018284 -0.000525173)
(0.11901 -0.000225455 -0.000642618)
(0.118956 0.000400234 -0.000219078)
(0.118862 0.000393429 -6.07203e-05)
(0.116766 0.000474888 6.87482e-06)
(0.119546 0.000559006 -0.000202018)
(0.11424 0.000220936 -0.000201475)
(0.114558 -0.000119674 -0.000158491)
(0.116837 0.000194135 -0.000291132)
(0.117231 4.39738e-05 9.88234e-06)
(0.112363 -9.51175e-06 8.23282e-05)
(0.115931 -8.32274e-05 -6.48155e-05)
(0.113966 0.000261278 -0.000390583)
(0.11605 -3.89478e-05 0.000204746)
(0.116711 9.67869e-05 -5.7164e-05)
(0.116729 -0.000238008 0.000150824)
(0.118633 -0.000110472 0.000669558)
(0.117239 -2.51978e-05 -0.000155818)
(0.118297 -0.000125079 -6.48479e-05)
(0.113738 -6.87243e-05 0.000313966)
(0.120414 0.000287919 0.000190882)
(0.118386 0.000340224 -0.000151692)
(0.120521 0.000252368 -7.59344e-05)
(0.119193 1.96313e-05 -0.00058193)
(0.11751 0.000253415 0.000377883)
(0.112328 0.000456462 -0.0001576)
(0.113896 0.000382003 0.000136245)
(0.119055 0.000179312 0.000221994)
(0.118221 7.82678e-06 0.000302527)
(0.119062 0.000158614 0.000230876)
(0.119733 -0.000248116 -0.000198557)
(0.11847 -4.27539e-05 -1.96032e-05)
(0.119835 -0.000203944 -0.00013336)
(0.118013 -0.00010834 -0.00017051)
(0.11624 -0.00026667 -0.000108682)
(0.116244 -0.000115134 -0.000197448)
(0.113252 0.000238725 5.08825e-05)
(0.112847 -0.000308499 0.000322639)
(0.119032 0.000178575 -0.000417499)
(0.11848 2.03852e-05 -0.000290045)
(0.118964 -4.23584e-06 -0.000401815)
(0.119401 -2.16989e-05 -0.000333848)
(0.114334 -7.68257e-05 -0.000223835)
(0.113366 -0.000233661 6.62165e-05)
(0.117188 -0.000156462 3.33743e-05)
(0.117312 -1.14358e-05 8.47582e-05)
(0.114402 0.000208039 9.14734e-05)
(0.112398 8.82217e-05 9.58287e-05)
(0.112371 -2.79955e-05 -0.000187088)
(0.105314 -2.67321e-05 8.16696e-05)
(0.119265 0.000441909 -0.000218085)
(0.112247 4.63117e-05 -2.6684e-05)
(0.112374 -0.000402242 -0.000163526)
(0.110404 -0.000218873 4.25124e-05)
(0.104705 -0.000249621 -3.10825e-05)
(0.119753 -0.000331135 0.00031052)
(0.119636 -0.000516582 0.000190727)
(0.119825 -0.000145853 0.000445035)
(0.119103 -0.000403014 0.000310684)
(0.118171 -0.00025614 0.000317981)
(0.118177 -0.000213345 0.000498258)
(0.119429 -0.000234084 0.000561144)
(0.11119 0.000476044 -0.00036627)
(0.112329 -0.000259496 2.48907e-06)
(0.105455 7.52495e-05 -0.000106047)
(0.115349 -6.7168e-05 -0.000142014)
(0.113204 -0.000102959 -0.000375194)
(0.105753 9.17966e-05 -0.000436787)
(0.113747 -0.000133579 0.000165109)
(0.11376 -0.000390693 -4.58523e-05)
(0.114647 -0.000324483 -3.53114e-05)
(0.104907 -0.000247137 0.000154865)
(0.119191 -0.000108885 9.7272e-05)
(0.117641 -9.41245e-05 -9.3278e-06)
(0.118271 -0.000266437 -0.000396914)
(0.11928 -0.000761265 -0.000422625)
(0.118072 -0.000760348 -0.000701278)
(0.119408 -0.000549233 -0.000814973)
(0.118729 -0.000462877 0.00057396)
(0.118982 -0.000621186 0.000198399)
(0.118365 -0.000172679 0.000244421)
(0.119897 -0.000540505 -0.000211638)
(0.118891 -0.000581212 -1.6349e-05)
(0.118393 -0.000350247 -0.000340701)
(0.119834 -0.000199861 -0.000433323)
(0.116687 -5.85606e-06 -0.000293755)
(0.11537 0.00039766 -0.000444988)
(0.111141 -2.37794e-05 -0.000270579)
(0.117244 0.000322501 -0.000471307)
(0.117538 3.75504e-05 -0.000345109)
(0.11532 0.000191443 -0.000715988)
(0.114125 0.000113902 -0.00028016)
(0.116279 -0.000158761 0.000197836)
(0.116001 -4.47962e-06 5.79081e-05)
(0.118001 1.22239e-05 -0.000232869)
(0.116989 -0.000175213 0.00013214)
(0.118915 -0.00010973 -0.000355141)
(0.118452 -0.000195413 -0.000404821)
(0.118627 0.000119569 -0.000329298)
(0.119861 0.00023832 -0.000666592)
(0.12021 -3.4871e-05 -0.000298032)
(0.114296 -8.0321e-05 -0.000470339)
(0.112315 0.000118179 -0.000200186)
(0.112914 7.53826e-05 -0.000104513)
(0.104194 0.00011285 -0.00024314)
(0.11859 0.00057222 0.000106375)
(0.11777 0.000442296 9.65924e-05)
(0.11937 0.000480731 0.000106736)
(0.118915 0.0002869 0.000127769)
(0.111486 -0.000262899 3.28237e-05)
(0.10498 -8.59166e-05 0.000237622)
(0.115151 -9.75969e-05 -0.000248417)
(0.114965 -0.000308439 -3.32642e-05)
(0.11776 -0.000138736 -0.00026887)
(0.117793 -0.000243515 -7.80048e-05)
(0.115489 0.000146643 0.000227136)
(0.115968 8.10782e-05 0.000190345)
(0.117785 -0.00019292 5.66593e-05)
(0.114024 7.80715e-06 -0.000644675)
(0.11287 -2.27292e-05 -0.000317717)
(0.114221 0.000106303 -0.000157003)
(0.105098 0.00036171 -0.000286493)
(0.1185 0.000146084 0.000467958)
(0.118179 -0.000129917 0.000154345)
(0.117281 6.23564e-05 0.000407706)
(0.113882 6.57765e-05 0.000373228)
(0.118383 -0.000316522 0.000141808)
(0.117309 8.3563e-06 0.000400702)
(0.118332 -0.000118008 -4.64173e-08)
(0.113198 1.37317e-05 0.000217869)
(0.112305 -1.40189e-05 -0.000128016)
(0.112433 0.00039793 -0.000117379)
(0.105932 9.43489e-05 -0.000109811)
(0.116794 -0.000367221 -0.00045956)
(0.116499 -3.89669e-06 -0.000295895)
(0.116747 -7.19603e-05 -0.000142257)
(0.118369 0.000371341 7.66394e-05)
(0.11719 0.00040013 0.000166373)
(0.119153 0.000140879 -0.000128293)
(0.11778 0.000274635 -0.000192394)
(0.116536 -0.000128597 -0.000381431)
(0.114183 -0.000194099 -0.000507408)
(0.114265 -0.000176643 -0.000281202)
(0.105821 -0.000280922 -0.000237481)
(0.118241 -6.61605e-05 -5.36532e-05)
(0.118315 0.000111315 7.69343e-05)
(0.112698 8.32787e-05 -0.000145992)
(0.116412 3.63737e-05 -0.000118886)
(0.116695 0.000312711 -2.86102e-05)
(0.118255 0.000353454 2.16426e-05)
(0.11686 0.00031756 0.000156142)
(0.119799 -3.8836e-05 -0.000579752)
(0.119989 -0.000139692 -0.000475532)
(0.119883 -0.000245838 -0.000408278)
(0.119235 -0.000145448 -0.000380412)
(0.115923 0.000317268 -0.000951979)
(0.117934 0.00020835 -0.000815912)
(0.118569 -0.000175977 -0.000680887)
(0.117016 -0.000349377 6.48185e-05)
(0.118098 -0.000277936 1.89777e-05)
(0.117005 -0.000119015 0.000154103)
(0.113349 -5.62291e-05 -0.000199747)
(0.11433 -0.000852836 -0.000380944)
(0.114777 0.000195126 -0.000287999)
(0.105134 -6.51104e-05 -0.000396853)
(0.119679 0.000313314 4.54546e-05)
(0.119951 0.00023282 -0.000274791)
(0.11944 7.23411e-05 -9.63828e-05)
(0.120018 0.000113145 -0.000388878)
(0.118952 0.000306326 -0.000100189)
(0.117404 0.000236542 -5.81527e-05)
(0.118392 6.02049e-06 -0.0001961)
(0.118117 0.000164833 -0.000330197)
(0.114824 -0.000161632 -0.000889376)
(0.114474 0.000142833 -0.000349238)
(0.115784 -7.57002e-05 -0.000699482)
(0.108538 -0.000627558 -0.000676995)
(0.11771 -0.00023893 -0.000547384)
(0.117756 -0.000310207 -0.000766333)
(0.119247 -0.000258119 -0.000435806)
(0.119057 -0.000223263 -0.000517229)
(0.118609 -0.000150233 -0.000211227)
(0.117361 -0.000209002 -0.000313551)
(0.117287 7.8295e-05 -0.000125786)
(0.113618 0.000118227 -0.000501665)
(0.118718 0.000417608 0.000239226)
(0.118271 0.000430627 -4.23554e-05)
(0.11687 0.000198417 -0.000176859)
(0.112484 -4.27915e-05 -0.000671946)
(0.112092 3.19223e-05 -0.000489147)
(0.113543 0.000224468 -0.000705182)
(0.104538 0.000319659 -0.000324406)
(0.119066 -0.000515897 -0.000100095)
(0.118906 -0.00056248 0.000115423)
(0.119951 -0.0005106 5.07751e-05)
(0.11476 0.000970468 -0.000573282)
(0.117655 8.49213e-05 -0.000390453)
(0.117258 0.000220908 -0.000397299)
(0.117088 -0.000224379 0.000430854)
(0.117478 1.25619e-05 0.000197243)
(0.117912 8.49631e-05 0.00030319)
(0.112719 -8.97914e-05 0.000314503)
(0.114369 -0.000207503 -0.000126184)
(0.118882 2.54938e-05 2.2888e-05)
(0.116922 0.000261578 -6.85141e-06)
(0.118926 0.000399323 -7.62351e-05)
(0.112631 0.000352721 -0.000254813)
(0.115954 -0.000114576 -3.50238e-05)
(0.116189 -3.64501e-06 7.24006e-05)
(0.11015 1.66412e-05 -0.000239643)
(0.111153 0.000129138 0.000269425)
(0.110764 -0.000158154 0.000107027)
(0.104996 -3.76823e-05 0.000117777)
(0.119729 4.11095e-05 0.000186506)
(0.118274 2.5087e-06 -0.000102194)
(0.119711 -0.000141222 0.000136149)
(0.119088 -0.000394209 0.000192977)
(0.119204 -0.000409294 -0.000244734)
(0.118858 -2.23982e-05 -9.91022e-05)
(0.118768 -0.000128452 -0.000256567)
(0.113209 -0.000162754 4.34684e-05)
(0.116675 -0.00022067 -0.000128223)
(0.118255 -0.00023901 -0.000131783)
(0.118551 -8.35625e-05 -0.000185118)
(0.116677 3.82048e-05 9.78257e-05)
(0.119668 -7.61394e-05 -0.000124939)
(0.118145 -2.19048e-05 -0.0002632)
(0.118366 0.000110389 5.71468e-05)
(0.119668 -0.000117628 -4.62599e-05)
(0.119762 2.52258e-05 0.000168819)
(0.11916 -9.96596e-05 1.24978e-05)
(0.11991 -7.65595e-05 -0.000187115)
(0.118599 -0.000143274 -0.000215908)
(0.118421 -0.000233546 -0.00034488)
(0.119686 -6.98169e-05 -0.000545629)
(0.112427 0.00123935 -0.000844711)
(0.115051 0.000271303 -0.00119139)
(0.114117 0.000598758 -0.000830963)
(0.103211 0.000193891 -0.00043558)
(0.118686 -0.000164575 -0.000209194)
(0.118816 -0.000272489 -0.000226969)
(0.119783 -0.000190756 -0.000458167)
(0.117674 -0.000174617 0.000224995)
(0.118962 -0.000117686 0.000105038)
(0.113046 -2.54184e-05 -3.15391e-05)
(0.114562 -0.000167888 1.51791e-05)
(0.11423 -9.66552e-06 2.76887e-05)
(0.117094 -0.000234994 0.000205045)
(0.116869 -0.000295206 -3.71105e-05)
(0.113612 -0.000347152 -0.00083078)
(0.114132 -0.000469414 -6.82799e-05)
(0.104507 -0.000361129 -0.000101087)
(0.115727 0.000404233 -0.000692916)
(0.117175 0.000183462 -0.000819785)
(0.112078 -0.000254096 -0.000430133)
(0.113449 -0.000462219 -7.29801e-05)
(0.116223 -0.000545793 -0.000141376)
(0.113035 -0.000355716 -0.000339267)
(0.11604 -0.000390412 -0.000174966)
(0.117527 0.000573511 4.37555e-05)
(0.117373 0.00076675 -6.90452e-05)
(0.116117 0.000928268 0.00032259)
(0.113249 0.000629355 0.000266119)
(0.115837 0.000304224 -0.000175294)
(0.116547 -3.75967e-05 -0.000277124)
(0.118488 0.000262839 -4.49335e-05)
(0.119044 -0.000161579 -1.14317e-05)
(0.118741 -0.000115828 6.1214e-05)
(0.112869 -9.19108e-05 8.44103e-05)
(0.116873 8.10181e-05 0.000202038)
(0.116535 0.000313967 0.000120797)
(0.117738 6.86431e-05 0.000111204)
(0.112556 3.63228e-05 -0.000208014)
(0.113481 -0.000648056 0.000127727)
(0.113995 -0.000222895 -6.38024e-06)
(0.112966 -0.000812194 -0.00025769)
(0.104903 -0.000540751 0.000154731)
(0.118184 0.00022104 0.00013183)
(0.118253 -8.34717e-05 0.000118737)
(0.116259 7.48815e-05 -0.000292478)
(0.118389 -0.000212355 -0.000162011)
(0.118149 0.00012712 0.000209119)
(0.11686 -0.000105657 0.000299431)
(0.116793 0.000467094 9.52138e-05)
(0.115658 -0.000298357 -0.000377272)
(0.112102 -9.83614e-07 -0.00018783)
(0.112252 -2.98836e-05 -0.000239151)
(0.113798 -0.000319284 -0.000276802)
(0.113001 8.76774e-05 -0.000339709)
(0.104948 -5.38522e-05 4.12694e-05)
(0.114414 -1.84913e-05 -0.000270628)
(0.104715 -6.03079e-07 -0.000306638)
(0.11866 -0.000332931 -5.83765e-06)
(0.120113 -0.000114925 0.000269659)
(0.120209 -0.000237881 -5.57255e-05)
(0.105859 8.01907e-05 0.000227545)
(0.113027 -0.000482007 -0.000629714)
(0.113984 -0.000359798 -0.000262697)
(0.11357 -0.000637516 -0.000569666)
(0.104187 -0.000291587 -0.000839602)
(0.112942 0.000578751 -0.000117596)
(0.116019 0.000436205 -3.29867e-05)
(0.112388 -0.000157012 0.000553861)
(0.11142 0.000135921 0.000256029)
(0.112972 0.000407719 0.000529774)
(0.104886 -9.92136e-05 0.00026665)
(0.118832 -0.000817288 0.000208582)
(0.11702 -0.00083379 0.000421818)
(0.11734 -0.000669723 0.000313278)
(0.118889 -0.000747306 0.000127059)
(0.115406 -0.000230363 -0.000596125)
(0.114467 -0.000256523 -0.000269959)
(0.113834 -0.000135848 -0.000250118)
(0.104584 0.000110708 -0.000261579)
(0.118059 0.000201677 -0.00022273)
(0.117235 0.000184742 -0.000222908)
(0.11766 -0.000444851 -0.000202264)
(0.113923 3.95724e-05 -0.000376528)
(0.114365 -0.000393649 -0.000445967)
(0.114327 -0.000374358 -0.000546033)
(0.116745 -0.000435881 -0.000555301)
(0.118396 0.000101335 -0.000445571)
(0.118265 0.000153427 -0.000456656)
(0.117432 0.000201822 -0.000388054)
(0.11264 0.000391096 -0.00055237)
(0.113846 2.14804e-06 6.98475e-05)
(0.112256 -0.000342322 0.000125048)
(0.113142 -0.000426036 0.000424174)
(0.104751 -0.000331256 -9.64024e-06)
(0.117791 0.000402963 9.75636e-05)
(0.11418 0.000349613 -0.000373911)
(0.113927 -9.64447e-05 -2.59273e-05)
(0.11731 -0.000619136 -4.34368e-05)
(0.114143 -0.00041388 6.47627e-05)
(0.117074 -0.000472817 0.000281325)
(0.1186 3.09414e-05 -4.13211e-05)
(0.117027 -5.87471e-05 -0.000208023)
(0.118467 -4.09975e-05 -0.00019906)
(0.118016 0.000131471 0.00020045)
(0.118104 -0.000205565 1.09348e-05)
(0.113215 -0.000229587 9.75812e-05)
(0.116759 -0.000412058 -0.000141372)
(0.11714 -0.000142499 -0.000352562)
(0.118325 -5.96929e-05 -0.000192723)
(0.11758 -0.000303254 -7.58919e-05)
(0.117894 -0.00034605 0.00027856)
(0.11917 -0.000206012 0.000193565)
(0.119724 -0.000356502 0.000175707)
(0.11821 4.92876e-05 -0.000522146)
(0.118142 -1.21967e-05 -0.00051463)
(0.11982 9.09466e-05 -0.000594457)
(0.11648 0.000244231 -0.000436354)
(0.118018 0.000183448 -0.000302214)
(0.118335 -7.80271e-05 -0.0006396)
(0.115291 -0.000664016 -0.000233931)
(0.119109 0.000243135 -0.00061172)
(0.117316 -0.000301129 0.000219403)
(0.118836 0.000142853 0.000375471)
(0.118761 2.0768e-05 0.000166145)
(0.11894 -0.000221684 0.000178448)
(0.117559 8.35923e-05 7.23779e-05)
(0.118224 -0.000135968 0.000171507)
(0.112365 -4.02552e-05 2.10064e-05)
(0.112808 -6.12469e-05 -0.000501851)
(0.112863 -0.000249236 -0.000272467)
(0.11348 -0.000645816 -0.000285217)
(0.11635 -0.000556408 -0.000282696)
(0.1166 -0.000489321 -0.000324209)
(0.117818 -0.000399939 0.000106501)
(0.117586 -0.000304891 -6.94103e-05)
(0.119374 -0.000238736 -0.000301039)
(0.119384 -0.000232313 1.09429e-05)
(0.118784 -0.000140104 -0.000293642)
(0.11743 -0.000311366 -0.000398333)
(0.117169 0.000104477 -0.00023843)
(0.118716 0.000198352 -0.000113035)
(0.118589 0.00033274 -0.000332898)
(0.119619 6.44229e-05 -0.00056694)
(0.118929 0.000157791 -0.000142184)
(0.119573 -6.64861e-05 -0.000516966)
(0.118611 -0.000323428 -9.53208e-06)
(0.117934 -7.94535e-05 -7.15314e-06)
(0.116933 -0.000692887 0.000188955)
(0.119029 -0.000461024 6.50087e-05)
(0.118035 -0.000100861 3.90844e-05)
(0.115003 -0.000116257 -0.000355713)
(0.118768 -8.30809e-05 -1.94381e-05)
(0.114792 9.34708e-05 -0.000626582)
(0.118861 -5.94504e-05 -7.15128e-05)
(0.119647 -0.00014291 -0.000409943)
(0.118572 -4.0641e-06 -0.000296371)
(0.11864 -8.43696e-06 0.000225567)
(0.112767 -1.53443e-05 -8.52422e-05)
(0.112377 -0.000194584 -0.000415119)
(0.105727 -8.85707e-05 -0.000288674)
(0.112911 -0.000595591 -0.000746367)
(0.104574 -0.000367289 -0.000184941)
(0.11981 0.000240527 0.000657301)
(0.118238 0.000256433 0.000186004)
(0.117307 -0.000390986 -0.000363986)
(0.112749 -0.000269605 -0.000255391)
(0.118407 -2.39886e-05 -0.0006555)
(0.118173 -7.07589e-05 -0.000458374)
(0.117182 -0.000193341 -0.000272173)
(0.112344 -0.000156268 -0.000301995)
(0.119509 0.000322705 0.000579833)
(0.119559 0.000106578 0.000608441)
(0.119625 0.00016612 0.00054553)
(0.118681 0.000275545 0.000588951)
(0.118212 0.000591458 0.000233466)
(0.118241 0.00041005 0.000167845)
(0.119252 0.000492301 0.000148899)
(0.112109 -0.000141627 -0.000332096)
(0.113657 -4.14956e-05 -0.000181578)
(0.104191 -0.00028182 -0.0003857)
(0.114508 0.000274845 -0.00033655)
(0.113544 -0.000100279 -0.000292155)
(0.112861 0.000215657 -0.000389431)
(0.104945 -8.63945e-05 -0.000664465)
(0.119185 -7.53361e-05 2.87608e-05)
(0.11769 -0.000225159 -0.000384851)
(0.119264 -0.000354435 -0.000117469)
(0.116511 -0.000161753 -0.000272658)
(0.118258 -0.00028991 -0.000351792)
(0.113289 -0.000232515 -0.000460677)
(0.113851 -0.000163756 -0.000567989)
(0.104916 -0.000295184 -0.000342147)
(0.114588 -0.000275882 -0.000155762)
(0.112687 -3.13772e-05 -2.58511e-05)
(0.112355 -1.18529e-05 0.000189434)
(0.105876 -0.000109694 8.64664e-05)
(0.119398 -0.000497071 0.000105617)
(0.118188 -0.000339627 0.000303776)
(0.118023 -0.000292378 -4.48722e-05)
(0.119358 -0.000242916 -0.000106496)
(0.114284 -5.98843e-05 -0.00108892)
(0.114085 0.000123804 -0.000686056)
(0.116557 -0.000129962 -0.000719221)
(0.105313 -0.000175268 -0.00096826)
(0.11692 0.000241496 0.000174406)
(0.117368 -0.000356753 0.000194501)
(0.117193 -9.90183e-05 0.000229404)
(0.112779 -0.000134995 0.0002671)
(0.114539 -0.000425981 -0.000356856)
(0.117273 -0.000164493 -0.000545657)
(0.117112 4.30722e-05 -0.000688567)
(0.117746 -0.000101997 -0.000118343)
(0.119345 -0.000154084 2.48998e-05)
(0.118444 3.98088e-05 0.000293448)
(0.115028 0.000265844 -0.000918455)
(0.112984 0.000439667 -0.00061652)
(0.114576 0.000835414 -0.000685141)
(0.103887 -0.000226073 -0.000702264)
(0.12036 -5.48201e-05 6.74695e-05)
(0.120248 -0.000154234 5.3198e-05)
(0.118612 2.23173e-05 -7.83812e-06)
(0.120262 4.7019e-05 4.7919e-05)
(0.11848 -2.20016e-05 -0.00044517)
(0.116176 -9.31336e-05 -0.000321705)
(0.115727 4.42012e-05 -0.00061121)
(0.118267 -0.000171913 -0.000202525)
(0.115277 -0.000907421 -0.000306646)
(0.115601 -0.000812648 -2.38276e-05)
(0.105114 -0.000298006 -0.000416788)
(0.114356 -0.00060567 0.000831553)
(0.113271 -0.00024329 0.000771893)
(0.114829 -0.000549141 0.000537032)
(0.103997 3.06983e-05 0.000159076)
(0.116899 -0.000305324 -8.25194e-05)
(0.112729 -0.000285681 -3.50716e-05)
(0.114663 -0.000282687 -0.000712188)
(0.120209 -0.000134469 -0.000195427)
(0.119029 -0.000113556 -0.000296713)
(0.113111 0.000274733 0.000278097)
(0.112382 0.000141567 0.000229219)
(0.114011 -0.000105733 -8.34106e-05)
(0.104151 -7.69287e-05 0.000214234)
(0.115119 -0.000165072 -0.0007503)
(0.114993 0.000338245 -0.000471196)
(0.105158 -0.000351695 -0.00082567)
(0.112458 -0.000162574 0.000267259)
(0.114658 -1.92866e-05 0.000267526)
(0.112744 -0.000387596 8.32216e-05)
(0.105347 -0.00021432 9.89792e-05)
(0.112613 -0.000854951 -0.000199782)
(0.11486 -0.000697896 0.000374841)
(0.113645 -0.000970134 -0.00013743)
(0.103744 -0.000504077 -0.000247411)
(0.115386 0.000228252 -0.000373542)
(0.116589 0.000117961 8.39186e-05)
(0.116882 -0.000138473 -0.00014068)
(0.111728 7.21879e-06 -6.41826e-05)
(0.113348 0.000426642 0.000130057)
(0.112655 0.000245767 0.000258572)
(0.105276 0.000131836 0.000201863)
(0.119167 -0.000548986 1.57759e-06)
(0.118746 -0.000397172 0.000103543)
(0.11943 -0.000470899 -4.01081e-05)
(0.119074 -0.000462081 0.000136143)
(0.118276 -0.00027038 0.000204356)
(0.118381 -0.000185224 2.74084e-05)
(0.119824 -0.000281201 0.000208094)
(0.120083 -0.000280013 0.000262535)
(0.111429 0.000165946 -0.000922864)
(0.111539 0.000116987 -0.000344803)
(0.11329 0.000171129 -0.000513009)
(0.105859 -0.000235067 -0.00044053)
(0.114254 -0.000380739 0.000411282)
(0.114964 -0.00106488 2.30341e-05)
(0.11497 -0.000507229 0.000151349)
(0.108057 -0.000405532 0.000119016)
(0.116301 0.000760672 -0.000255083)
(0.117748 0.000460787 -0.000439763)
(0.117783 0.00039858 -0.000607132)
(0.113467 0.000166004 -0.00070366)
(0.114404 -1.40521e-05 4.05296e-05)
(0.112219 -7.72268e-05 -7.81571e-05)
(0.111699 -0.000238827 -0.000220915)
(0.105388 0.000106829 -0.000102249)
(0.118425 -5.76851e-05 0.000413751)
(0.113529 2.749e-05 1.33978e-05)
(0.118236 -0.000407948 -0.00037998)
(0.119514 -5.74946e-05 -0.000393468)
(0.118811 -0.000116903 -0.000180516)
(0.11863 -6.71355e-05 -0.000210623)
(0.117373 0.000374389 3.41284e-05)
(0.116356 0.000336793 0.000112651)
(0.11323 0.000455638 0.000272678)
(0.118911 0.000139286 2.05722e-05)
(0.118108 0.000178578 0.000361058)
(0.118837 0.000112132 0.000375221)
(0.11882 0.000224933 0.000311813)
(0.118838 -0.000110811 -3.64395e-05)
(0.118707 -0.000351664 -9.43471e-05)
(0.11304 -0.000254126 -0.000110345)
(0.117422 -0.000118574 -0.000265998)
(0.116425 -0.000228855 -4.75859e-05)
(0.117404 -0.000238569 2.81471e-05)
(0.111524 -3.24113e-05 -0.000333043)
(0.117538 -2.49217e-05 -6.60913e-05)
(0.117808 0.000252975 3.74117e-05)
(0.112774 0.000150077 0.000116223)
(0.113941 -0.000466481 0.000566069)
(0.117048 -0.000435267 0.000417711)
(0.117239 -0.000692136 0.000526184)
(0.115818 4.33782e-05 0.000198525)
(0.117181 -0.000288907 -0.000104545)
(0.117286 -0.00019482 7.43006e-05)
(0.112553 -1.55786e-05 0.000227039)
(0.113855 0.000423742 -4.20724e-05)
(0.111456 0.000348271 -0.000410386)
(0.104335 0.000886022 -0.000395222)
(0.11808 -5.74924e-05 5.01834e-06)
(0.119325 6.45359e-05 -0.000164769)
(0.119774 0.000541752 -0.000223813)
(0.116879 -0.000262541 0.000198433)
(0.117167 -0.000221334 0.000408319)
(0.111305 -0.000525549 0.000529686)
(0.118303 0.000318734 0.000128668)
(0.119134 2.07829e-06 0.000101988)
(0.119012 0.000255817 -4.41445e-05)
(0.119141 0.000308585 -4.8458e-06)
(0.113856 -5.68654e-05 -0.000111249)
(0.114544 -0.000161694 0.00013195)
(0.11405 -0.000368303 -1.13522e-05)
(0.104244 0.000102517 5.64215e-05)
(0.112422 3.90194e-05 0.000345241)
(0.112255 -0.000177622 0.000311385)
(0.113526 -9.34435e-05 0.000526083)
(0.104677 -0.00025279 0.000304436)
(0.117824 -0.000222844 -0.000316711)
(0.118683 -0.000149297 0.000169788)
(0.119512 -0.000297183 -2.67948e-05)
(0.119207 -5.4053e-07 0.000154653)
(0.117967 -0.000316822 -0.00028118)
(0.119134 -6.32612e-07 -0.0003537)
(0.117618 0.000130407 -0.00027977)
(0.115817 -0.000176676 0.000671676)
(0.117771 -0.000215126 0.000166938)
(0.117373 -0.000143652 0.000337565)
(0.116293 -0.000210133 0.000666163)
(0.116836 -0.00012689 0.000142245)
(0.118153 -0.000324059 2.04819e-05)
(0.113 -8.30625e-05 0.000245803)
(0.118495 -0.000161946 -0.000538165)
(0.118623 8.08859e-05 -0.000436248)
(0.116979 -1.89225e-05 -0.000186915)
(0.112775 0.000217357 -0.000404434)
(0.117455 -2.31093e-05 -0.000597433)
(0.114468 -0.00010898 -0.000578514)
(0.117342 0.0001523 -0.000450771)
(0.11438 0.000261816 0.000266569)
(0.117348 0.000384843 0.000405517)
(0.115113 0.000139482 0.000598674)
(0.117667 0.000268483 0.000305401)
(0.119277 0.000139922 -0.000431185)
(0.117181 0.000306324 -0.000465411)
(0.117667 -0.000125257 -0.000680334)
(0.114343 2.50627e-05 -1.14905e-05)
(0.105024 -8.73777e-05 -0.000258901)
(0.114131 8.53269e-05 -5.02302e-05)
(0.116802 -8.90715e-05 -6.16642e-05)
(0.119618 0.000322631 -5.92386e-06)
(0.119443 5.00524e-05 -9.01209e-06)
(0.118874 0.00015435 0.000148416)
(0.119533 0.000103769 0.000233895)
(0.118664 -0.000449204 -3.11636e-05)
(0.118643 -0.000557173 -0.000196516)
(0.118536 -0.000474523 -0.000147347)
(0.118708 -0.000493131 -0.00032302)
(0.118686 -0.000532088 8.35931e-05)
(0.118478 -0.000578034 7.37874e-05)
(0.11692 -0.000524253 0.000231985)
(0.116179 -0.00103169 0.000143918)
(0.118001 -0.000998007 -0.000154861)
(0.117426 -0.00095544 -0.000374665)
(0.116299 -0.000140584 -0.000260058)
(0.116198 0.000119129 -0.000490191)
(0.112932 -3.1268e-06 0.000177075)
(0.11861 0.000183857 -0.000385916)
(0.113488 -8.04648e-05 -0.000310845)
(0.116266 0.000518923 -0.00034944)
(0.116378 0.00054281 -0.000514138)
(0.117316 8.70062e-05 -0.000375855)
(0.112398 -5.29133e-05 -0.000330733)
(0.119087 0.000142135 -0.000248554)
(0.117735 0.000251728 -0.000276035)
(0.118307 5.84176e-05 -0.000402892)
(0.105186 7.21394e-06 -0.000183368)
(0.117216 0.00011811 -0.000201704)
(0.113225 -7.02757e-05 -9.84216e-05)
(0.114769 0.000160272 -0.000157203)
(0.117217 0.000220011 0.000166813)
(0.114495 0.000243035 -0.000157505)
(0.117483 0.000473427 -5.08115e-05)
(0.117755 -1.09909e-05 -0.000282859)
(0.117285 -1.80569e-06 -0.000357099)
(0.116992 6.03362e-05 -5.94874e-05)
(0.113716 0.000182191 -0.000349242)
(0.119194 -4.80555e-05 -0.000382044)
(0.117737 -0.000146675 -0.000547898)
(0.118707 -0.000248597 -0.000534146)
(0.117447 -0.000355518 -0.000436374)
(0.1172 -0.000501614 -0.000383441)
(0.119001 -0.000346416 -0.000250498)
(0.118182 -0.000385414 -0.000124255)
(0.118888 0.000176247 -0.000397655)
(0.11912 -0.000107895 -0.000310294)
(0.113346 -0.000636583 -0.000398822)
(0.11423 -0.000821627 -0.000445428)
(0.104374 -9.24072e-05 -0.000374521)
(0.116348 -0.000547047 0.000235923)
(0.11774 -0.00037519 -6.3839e-07)
(0.119265 -0.000320118 -0.00019584)
(0.117495 -0.000158647 -0.000237546)
(0.119418 -0.000360695 -0.000161995)
(0.119175 -4.11939e-05 0.000137714)
(0.118919 7.15559e-05 -0.000122894)
(0.118247 0.00022833 0.000215567)
(0.115027 -0.000214382 -0.000455748)
(0.11843 -0.000237784 -0.000538281)
(0.110454 0.000222881 0.000188502)
(0.112214 -0.000193854 0.000657623)
(0.111961 -0.000323541 0.00033676)
(0.10302 -0.000378069 0.000399786)
(0.118189 -0.000432203 6.72635e-06)
(0.117549 -0.000488125 0.000211185)
(0.113791 -0.000437201 0.000694493)
(0.11205 -0.000857416 -0.000319782)
(0.10537 -0.000411836 -0.000203736)
(0.116671 0.00031735 -0.000189254)
(0.116846 0.00041917 0.000149363)
(0.102482 9.67025e-05 -0.000218272)
(0.117664 -0.00019269 0.000310654)
(0.119372 -0.000323782 0.000305081)
(0.112829 -0.000232237 0.000239102)
(0.115143 0.000335111 0.000290118)
(0.115758 -0.000205439 3.56703e-05)
(0.113551 0.000416521 -0.000200149)
(0.113653 0.00018298 -0.000268075)
(0.114033 0.000333595 -0.00050621)
(0.104216 3.66118e-05 -0.000113631)
(0.117402 -0.000114414 0.00012821)
(0.116871 -4.25172e-05 0.000163128)
(0.116355 -3.54955e-05 0.000223068)
(0.118097 0.000577361 -0.00023333)
(0.118903 0.000592743 -0.000223001)
(0.116347 2.20397e-05 -0.000158723)
(0.117127 -4.01681e-05 -0.000299604)
(0.119042 -0.000469569 -0.00019817)
(0.118631 0.000105211 0.000238772)
(0.11436 -0.000453367 -4.9025e-05)
(0.114169 -0.000209963 -0.000109655)
(0.10371 -0.00020993 7.14948e-05)
(0.112944 -0.000756401 0.000115509)
(0.111777 -0.000486351 0.000441586)
(0.105059 -0.000461141 0.000113694)
(0.118456 -0.000635923 0.000263264)
(0.116891 -0.000164693 0.00043655)
(0.117882 -0.000456796 0.000504777)
(0.116742 -0.000313286 3.9238e-05)
(0.118686 0.000210488 -0.000591577)
(0.119501 8.65203e-05 -0.000578462)
(0.11745 0.000227581 -0.000443932)
(0.113635 0.000481328 0.00010517)
(0.114339 0.000190005 2.6959e-05)
(0.103511 0.000310853 -0.000421856)
(0.119019 -0.000657014 7.49613e-05)
(0.118999 -0.000692899 0.000269049)
(0.118784 -0.00054447 0.000245651)
(0.115807 -6.02375e-05 -0.000198524)
(0.113812 0.00013511 -0.000455114)
(0.105288 5.66826e-06 -0.000359924)
(0.112309 -0.000160522 0.000183351)
(0.112301 -0.000412255 7.98401e-05)
(0.105767 -0.000225646 -4.87297e-05)
(0.116899 0.000192175 -0.000330928)
(0.116614 0.000163216 -0.000252633)
(0.117845 0.000291604 -6.02416e-05)
(0.113016 -0.00017753 -0.000263551)
(0.116864 -0.000247287 -0.000282778)
(0.118566 -0.000371383 3.95408e-05)
(0.116698 -0.000232504 0.000385088)
(0.118025 -0.000241104 2.32048e-05)
(0.115587 -0.000956679 0.00029831)
(0.11704 -0.000730087 8.10158e-05)
(0.117141 -0.000733343 -2.39968e-05)
(0.111276 -0.000694778 -7.38843e-05)
(0.112638 -0.00025056 0.000514396)
(0.115984 8.1054e-05 0.000475031)