/*--------------------------------*- C++ -*----------------------------------*\
| =========                 |                                                 |
| \\      /  F ield         | OpenFOAM: The Open Source CFD Toolbox           |
|  \\    /   O peration     | Version:  2212                                  |
|   \\  /    A nd           | Website:  www.openfoam.com                      |
|    \\/     M anipulation  |                                                 |
\*---------------------------------------------------------------------------*/
FoamFile
{
    version     2.0;
    format      ascii;
    arch        "LSB;label=32;scalar=64";
    class       volScalarField;
    location    "0.042";
    object      epsilon;
}
// * * * * * * * * * * * * * * * * * * * * * * * * * * * * * * * * * * * * * //

dimensions      [0 2 -3 0 0 0 0];

internalField   nonuniform List<scalar> 
31639
(
0.457378
0.455371
0.458176
0.452207
0.466746
0.46008
0.473849
0.46046
0.460245
0.452187
0.455891
0.452668
0.452945
0.450658
0.453641
0.476481
0.459621
0.468358
0.468279
0.457829
0.492491
0.45735
0.451938
0.469571
0.474457
0.46085
0.455563
0.37721
0.470097
0.454781
0.451882
0.471276
0.450548
0.474506
0.489311
0.454519
0.494066
0.454227
0.452881
0.505955
0.482799
0.489118
0.449223
0.457472
0.458894
0.45234
0.457169
0.466218
0.458142
0.452538
0.452271
0.497343
0.455581
0.500123
0.467177
0.462542
0.493781
0.456967
0.454543
0.491903
0.461185
0.461024
0.479903
0.456628
0.458954
0.451128
0.457669
0.455355
0.486436
0.451967
0.45283
0.455667
0.451249
0.455432
0.455495
0.491787
0.451023
0.467406
0.453871
0.458228
0.474094
0.506884
0.451391
0.455449
0.449175
0.451763
0.45181
0.45172
0.481162
0.451984
0.455406
0.462969
0.487904
0.455179
0.473073
0.456816
0.462341
0.455275
0.455677
0.491035
0.45392
0.452791
0.452319
0.491834
0.488747
0.452605
0.493211
0.499271
0.476055
0.498518
0.447721
0.488914
0.459037
0.469718
0.453252
0.496769
0.471935
0.470896
0.459205
0.456106
0.458797
0.45351
0.45153
0.459926
0.464161
0.454705
0.457368
0.47449
0.475294
0.450323
0.450052
0.449144
0.449709
0.471012
0.457226
0.454606
0.489141
0.4943
0.452527
0.455976
0.456112
0.453129
0.452747
0.49435
0.502192
0.451105
0.455431
0.489811
0.486053
0.452882
0.484488
0.462567
0.469298
0.457868
0.490021
0.452238
0.462576
0.48699
0.483683
0.471116
0.451715
0.492033
0.484001
0.494114
0.494855
0.456617
0.491603
0.453475
0.45296
0.488719
0.455133
0.45712
0.489228
0.453846
0.451313
0.455408
0.455488
0.453724
0.454012
0.450821
0.454969
0.463879
0.451602
0.502544
0.463598
0.452667
0.452732
0.453615
0.49459
0.493275
0.459529
0.458052
0.457755
0.456087
0.455286
0.469021
0.472012
0.4509
0.490337
0.467107
0.454237
0.454197
0.447894
0.448107
0.466876
0.456949
0.455941
0.453249
0.455143
0.504613
0.456854
0.469637
0.456823
0.45609
0.464053
0.44999
0.486701
0.473692
0.458166
0.454004
0.451261
0.466283
0.491675
0.463391
0.493144
0.469725
0.455576
0.477132
0.489853
0.459475
0.457133
0.453441
0.484446
0.497827
0.457247
0.456367
0.487409
0.450328
0.484629
0.492953
0.455
0.456305
0.456089
0.477422
0.483573
0.460661
0.453286
0.456313
0.486113
0.455764
0.453084
0.493388
0.478371
0.453747
0.45625
0.471907
0.487928
0.451552
0.4519
0.473841
0.451942
0.451747
0.462485
0.452474
0.455969
0.46659
0.488212
0.472708
0.447278
0.452628
0.443456
0.470766
0.466365
0.463498
0.452284
0.461417
0.491047
0.468464
0.48014
0.45239
0.46743
0.455211
0.453636
0.471878
0.486497
0.488345
0.487185
0.499429
0.450306
0.483312
0.459437
0.453893
0.470344
0.484133
0.456045
0.470857
0.48705
0.456253
0.467418
0.487332
0.457583
0.481868
0.455825
0.454247
0.490134
0.467201
0.455081
0.499714
0.497997
0.452037
0.451828
0.442233
0.492951
0.491295
0.452497
0.480184
0.473332
0.454191
0.456633
0.456819
0.453414
0.45181
0.487956
0.449772
0.499108
0.499804
0.456166
0.452613
0.45179
0.452354
0.458302
0.483545
0.452668
0.454146
0.454162
0.457588
0.453249
0.45618
0.454108
0.459147
0.4512
0.45486
0.455494
0.461198
0.453657
0.463975
0.455344
0.452132
0.489247
0.464403
0.452932
0.467784
0.458559
0.449113
0.455652
0.490406
0.455174
0.456233
0.493729
0.456803
0.486591
0.463911
0.447164
0.498126
0.456492
0.457177
0.489025
0.461112
0.487
0.463207
0.456649
0.463175
0.498672
0.458484
0.486046
0.458718
0.452575
0.455227
0.457545
0.488221
0.449977
0.489804
0.455341
0.497749
0.451416
0.450126
0.451535
0.451061
0.470764
0.459587
0.456165
0.458385
0.456166
0.496038
0.461533
0.454904
0.451141
0.452696
0.461722
0.45767
0.464626
0.491944
0.467833
0.456361
0.452052
0.498827
0.453441
0.452563
0.457781
0.448275
0.450585
0.467085
0.450777
0.478639
0.458328
0.453914
0.497002
0.461493
0.456782
0.488023
0.489985
0.490055
0.474438
0.496724
0.458476
0.445363
0.474239
0.458707
0.489499
0.45149
0.451674
0.456489
0.455331
0.466551
0.455096
0.459443
0.470655
0.450975
0.453847
0.490701
0.455937
0.455122
0.451943
0.45859
0.452528
0.455345
0.458211
0.456493
0.454054
0.457867
0.487887
0.458718
0.500776
0.477462
0.455684
0.493048
0.503611
0.470117
0.455046
0.455146
0.491022
0.458208
0.476805
0.454914
0.459054
0.398078
0.455049
0.500707
0.455077
0.45131
0.453665
0.452109
0.467357
0.487143
0.459873
0.453219
0.451095
0.496148
0.493533
0.456037
0.492624
0.485376
0.459044
0.496572
0.4673
0.480192
0.461233
0.488288
0.451651
0.452795
0.451815
0.451695
0.485035
0.451876
0.453356
0.461319
0.458237
0.454592
0.450345
0.459961
0.473991
0.454559
0.451899
0.454227
0.470406
0.452456
0.455538
0.498364
0.502722
0.457965
0.45875
0.451526
0.459542
0.4602
0.463495
0.451239
0.458422
0.47093
0.461186
0.486213
0.456151
0.463517
0.454392
0.488736
0.480946
0.48267
0.456551
0.45434
0.496177
0.45913
0.475394
0.457529
0.463414
0.450596
0.466879
0.490525
0.454822
0.449483
0.48252
0.454513
0.449401
0.446112
0.456956
0.379134
0.48419
0.454876
0.456035
0.487791
0.488602
0.456172
0.456141
0.457847
0.484981
0.467306
0.452681
0.455726
0.487225
0.482451
0.456679
0.452103
0.493487
0.498811
0.455205
0.493319
0.454483
0.455468
0.492781
0.453889
0.461459
0.469467
0.500507
0.452112
0.470818
0.484577
0.450325
0.455101
0.457756
0.452688
0.497209
0.469923
0.461654
0.468661
0.489472
0.47399
0.464412
0.449119
0.45313
0.455927
0.450296
0.453693
0.476913
0.451239
0.456735
0.458191
0.481228
0.455742
0.462461
0.456624
0.488827
0.498535
0.451168
0.476021
0.452808
0.457791
0.48602
0.461701
0.452144
0.469787
0.458896
0.487556
0.452
0.457182
0.499804
0.452713
0.454225
0.383117
0.48889
0.493176
0.471794
0.454911
0.457373
0.458822
0.454835
0.452829
0.456822
0.458529
0.491112
0.45044
0.497754
0.455445
0.468254
0.464768
0.45171
0.455263
0.479975
0.492883
0.496182
0.467026
0.451656
0.47641
0.452289
0.472637
0.451054
0.49085
0.456119
0.455321
0.452129
0.452595
0.449064
0.454224
0.467111
0.454484
0.455104
0.455237
0.483408
0.451755
0.486553
0.453759
0.466786
0.457923
0.486349
0.456542
0.496164
0.451848
0.467999
0.456482
0.458883
0.456085
0.484101
0.439852
0.489895
0.50709
0.49193
0.490619
0.487465
0.460465
0.499712
0.447264
0.461724
0.502126
0.454716
0.490529
0.46814
0.453848
0.467154
0.458957
0.450929
0.448941
0.455749
0.464139
0.452461
0.471533
0.467289
0.493057
0.417347
0.453305
0.456287
0.457503
0.453003
0.490752
0.453455
0.455627
0.452526
0.451005
0.451436
0.454984
0.452591
0.452954
0.459544
0.455087
0.455658
0.487127
0.453446
0.468955
0.458274
0.453097
0.453487
0.471985
0.455612
0.459842
0.458021
0.470156
0.492931
0.451902
0.461584
0.473729
0.4951
0.451191
0.490874
0.447257
0.461403
0.45554
0.461041
0.453148
0.459386
0.493514
0.45532
0.473504
0.464066
0.484852
0.450916
0.452821
0.45788
0.45806
0.455229
0.460413
0.472988
0.461631
0.496112
0.450238
0.459401
0.448298
0.485731
0.453338
0.453422
0.457331
0.476309
0.456111
0.451225
0.458251
0.492987
0.495632
0.455247
0.491411
0.476415
0.459422
0.456494
0.449205
0.494007
0.45294
0.451472
0.48315
0.488621
0.451253
0.484773
0.466289
0.487306
0.457027
0.478072
0.471882
0.453642
0.493151
0.455927
0.456194
0.452721
0.455716
0.450035
0.490506
0.450228
0.45813
0.471166
0.45187
0.453839
0.460365
0.449344
0.454112
0.457094
0.454343
0.456538
0.452142
0.467801
0.456615
0.453811
0.485552
0.452396
0.460628
0.451238
0.460468
0.460927
0.452191
0.454928
0.452218
0.459463
0.453507
0.457414
0.461067
0.489271
0.463804
0.45204
0.502
0.464401
0.457349
0.468901
0.457802
0.452056
0.453363
0.450006
0.459659
0.45719
0.45811
0.457732
0.456127
0.47113
0.490382
0.453174
0.496898
0.459457
0.467256
0.458498
0.459296
0.45243
0.492582
0.454801
0.4869
0.455114
0.47544
0.456409
0.456991
0.451238
0.489271
0.452862
0.453738
0.463393
0.460913
0.463365
0.498582
0.453876
0.455722
0.455803
0.449801
0.451125
0.45367
0.46997
0.453638
0.482392
0.467346
0.452638
0.487128
0.481181
0.458041
0.451273
0.472361
0.46658
0.463462
0.473042
0.455413
0.478086
0.454048
0.458723
0.503389
0.462453
0.448824
0.460447
0.464378
0.453176
0.452187
0.486602
0.487161
0.452218
0.454033
0.451376
0.480557
0.452676
0.453343
0.484944
0.455528
0.451461
0.451947
0.460657
0.450968
0.460875
0.451966
0.451647
0.467744
0.487713
0.457811
0.454592
0.480845
0.450901
0.496096
0.457393
0.463586
0.489916
0.459637
0.469389
0.453449
0.464263
0.457834
0.49514
0.49577
0.465484
0.487792
0.455642
0.451044
0.45674
0.452733
0.47315
0.456
0.458083
0.470263
0.468272
0.453211
0.45702
0.461705
0.490116
0.458812
0.455838
0.449545
0.452628
0.498449
0.488685
0.457818
0.450971
0.476999
0.457944
0.466004
0.455345
0.456498
0.464249
0.455439
0.464553
0.489339
0.452158
0.464202
0.488132
0.475746
0.454157
0.471547
0.455502
0.456449
0.467065
0.490544
0.451903
0.488742
0.461813
0.462984
0.48093
0.459233
0.493376
0.457411
0.459814
0.459268
0.501554
0.489134
0.448907
0.454883
0.469779
0.450742
0.459713
0.453994
0.493204
0.488282
0.461585
0.461309
0.458859
0.455374
0.449742
0.4596
0.45077
0.461454
0.46454
0.451428
0.497517
0.458633
0.453225
0.455294
0.460624
0.458096
0.471332
0.45145
0.458652
0.496777
0.45386
0.480081
0.45348
0.468122
0.449577
0.4918
0.452155
0.454393
0.461048
0.455073
0.495988
0.450368
0.454721
0.450606
0.489689
0.452591
0.461571
0.447974
0.458238
0.45551
0.453485
0.456433
0.473018
0.459269
0.491604
0.492729
0.492122
0.480079
0.456932
0.494527
0.453497
0.453144
0.462736
0.459502
0.458602
0.457257
0.452308
0.457859
0.471031
0.454012
0.464914
0.475231
0.450022
0.454188
0.457127
0.452621
0.472586
0.458536
0.455941
0.450742
0.457493
0.455458
0.47267
0.455116
0.46468
0.460819
0.454626
0.455862
0.451182
0.455543
0.452847
0.467572
0.458126
0.457748
0.490226
0.499588
0.452949
0.476486
0.462315
0.471628
0.492186
0.461634
0.454969
0.484325
0.470909
0.455031
0.45288
0.453457
0.456285
0.488525
0.457416
0.465443
0.46888
0.459067
0.459165
0.499336
0.476715
0.476775
0.461934
0.457598
0.458852
0.458069
0.461441
0.455824
0.461405
0.479477
0.474285
0.50456
0.463702
0.458658
0.458959
0.458833
0.454867
0.490676
0.458369
0.469578
0.463114
0.459623
0.451846
0.494432
0.452259
0.490565
0.454224
0.460298
0.466243
0.458178
0.464013
0.459286
0.480197
0.459424
0.468426
0.464518
0.467749
0.493725
0.449272
0.455792
0.461402
0.451323
0.455085
0.488245
0.47399
0.463219
0.48668
0.451909
0.458841
0.452696
0.450501
0.452703
0.489746
0.494898
0.487916
0.454519
0.498141
0.451178
0.458233
0.485539
0.469294
0.453602
0.454909
0.476327
0.472633
0.45679
0.456958
0.45734
0.461864
0.482075
0.457172
0.459639
0.457518
0.462016
0.453264
0.45709
0.453876
0.462132
0.493398
0.496537
0.458942
0.472268
0.460007
0.500859
0.455718
0.462387
0.451535
0.491509
0.464166
0.454138
0.46099
0.474436
0.491867
0.456307
0.481669
0.461472
0.464117
0.450842
0.452018
0.456312
0.498355
0.494045
0.457124
0.468622
0.47073
0.459471
0.497193
0.444431
0.453313
0.474918
0.452645
0.450463
0.456903
0.452
0.455788
0.458394
0.457667
0.49588
0.468533
0.453132
0.493851
0.458268
0.459136
0.48031
0.455005
0.418691
0.45631
0.451828
0.453191
0.496359
0.45739
0.458612
0.493638
0.468431
0.455931
0.47307
0.457293
0.488129
0.48808
0.45847
0.469046
0.45157
0.453854
0.451361
0.452664
0.456225
0.454188
0.454177
0.456494
0.484286
0.455737
0.46608
0.454353
0.462512
0.474104
0.469776
0.457726
0.493344
0.460482
0.456303
0.461421
0.508114
0.461286
0.499
0.45804
0.501692
0.457072
0.456473
0.461233
0.455705
0.484714
0.488428
0.455074
0.457986
0.462234
0.457656
0.472333
0.449321
0.457222
0.452933
0.489668
0.477186
0.452869
0.452685
0.46577
0.462828
0.487508
0.457334
0.452855
0.454715
0.456081
0.457774
0.456069
0.452973
0.454408
0.48841
0.4557
0.458315
0.455864
0.460213
0.459958
0.501533
0.476629
0.453919
0.45885
0.456728
0.4585
0.454815
0.450635
0.457438
0.459204
0.452227
0.452939
0.472233
0.468914
0.453489
0.455792
0.455094
0.496583
0.460415
0.489476
0.453249
0.490776
0.487856
0.452906
0.493962
0.475739
0.45738
0.451918
0.452712
0.471667
0.45919
0.455284
0.486813
0.4918
0.474476
0.475502
0.453547
0.459207
0.4618
0.495517
0.459088
0.45283
0.452724
0.48928
0.487587
0.461292
0.458832
0.460816
0.475514
0.490576
0.468208
0.474464
0.453364
0.453777
0.494145
0.459661
0.456848
0.485438
0.499311
0.452511
0.476175
0.478047
0.449749
0.459279
0.450064
0.455492
0.452335
0.471778
0.455099
0.473617
0.451691
0.472345
0.455313
0.456329
0.454121
0.485522
0.448738
0.447465
0.462636
0.456189
0.46032
0.482629
0.401323
0.457823
0.468988
0.45221
0.467893
0.446895
0.49116
0.453375
0.455767
0.496347
0.458336
0.458882
0.500806
0.487078
0.456493
0.454789
0.454201
0.47237
0.488403
0.451571
0.45755
0.455537
0.460123
0.450338
0.492018
0.45478
0.457191
0.490408
0.488367
0.507016
0.480046
0.449901
0.47184
0.458783
0.454559
0.470359
0.469122
0.496239
0.497724
0.456335
0.456214
0.490218
0.457043
0.463775
0.4928
0.460471
0.467635
0.487505
0.464286
0.448212
0.489225
0.500318
0.451476
0.455474
0.480016
0.457373
0.475445
0.482404
0.489669
0.459256
0.486407
0.494852
0.458186
0.448231
0.46013
0.463416
0.455239
0.459026
0.45213
0.382714
0.461301
0.48682
0.450047
0.458416
0.453964
0.470498
0.454098
0.482761
0.453389
0.456231
0.465671
0.493388
0.490427
0.500873
0.470733
0.489894
0.464366
0.48129
0.467759
0.451745
0.45862
0.469626
0.457019
0.460531
0.458577
0.451408
0.495257
0.459136
0.452368
0.451913
0.455226
0.453998
0.480707
0.462223
0.457336
0.491478
0.463464
0.450911
0.45237
0.446799
0.457824
0.462069
0.498456
0.488803
0.456136
0.453598
0.461828
0.450642
0.472698
0.467764
0.483579
0.494391
0.493853
0.499421
0.453782
0.455964
0.449339
0.455022
0.468883
0.457545
0.505244
0.453623
0.459268
0.45581
0.453665
0.459487
0.45283
0.453371
0.456371
0.398805
0.468949
0.45725
0.455257
0.453784
0.456528
0.458686
0.453127
0.45452
0.474955
0.453512
0.459608
0.451593
0.452824
0.49445
0.451332
0.455622
0.459614
0.450527
0.486116
0.498848
0.45595
0.456662
0.474222
0.451579
0.450219
0.449918
0.448249
0.470016
0.458662
0.460514
0.455794
0.500728
0.501556
0.460282
0.464486
0.484624
0.45222
0.488773
0.465458
0.457239
0.462328
0.469579
0.449097
0.465256
0.45944
0.457914
0.46123
0.455204
0.47128
0.497866
0.454248
0.505442
0.507392
0.404796
0.484539
0.495815
0.46389
0.458346
0.487995
0.470754
0.50409
0.488567
0.452931
0.457281
0.493458
0.495517
0.451106
0.493763
0.457942
0.455995
0.467614
0.451212
0.487779
0.489691
0.463055
0.457667
0.486411
0.488583
0.467857
0.474086
0.457701
0.45497
0.495323
0.455437
0.49378
0.499328
0.471246
0.461245
0.475639
0.469311
0.471097
0.452592
0.496901
0.485554
0.457563
0.447726
0.454908
0.500166
0.501601
0.467131
0.44968
0.453853
0.458616
0.464004
0.452595
0.453149
0.485156
0.452014
0.472856
0.48694
0.500898
0.449594
0.455236
0.454054
0.455125
0.453442
0.49097
0.46762
0.497025
0.511349
0.465042
0.491704
0.474515
0.455996
0.42181
0.488548
0.452661
0.45287
0.45251
0.458208
0.515699
0.455944
0.487925
0.456041
0.493845
0.45355
0.500711
0.458242
0.466798
0.475481
0.469105
0.500627
0.475405
0.454025
0.453147
0.45728
0.455519
0.456345
0.492646
0.454317
0.397015
0.455608
0.45733
0.454551
0.461491
0.44122
0.458229
0.467299
0.471167
0.470989
0.454316
0.455262
0.470494
0.479669
0.458986
0.465671
0.453505
0.449337
0.455578
0.465309
0.46365
0.449694
0.456492
0.450475
0.457514
0.456057
0.461222
0.423743
0.453277
0.471755
0.456631
0.459503
0.449404
0.48627
0.480478
0.457319
0.446837
0.451078
0.445053
0.452527
0.457519
0.455647
0.484888
0.475883
0.452849
0.454822
0.454355
0.452044
0.475458
0.449888
0.492841
0.451453
0.468922
0.453339
0.466698
0.457238
0.453234
0.451831
0.487565
0.453632
0.451358
0.465469
0.483333
0.455943
0.451794
0.453819
0.455175
0.45532
0.459208
0.488374
0.450986
0.47204
0.458288
0.474473
0.472843
0.485829
0.494063
0.471146
0.454131
0.460015
0.482259
0.465777
0.490132
0.463041
0.459008
0.499698
0.485523
0.476652
0.460725
0.459109
0.468663
0.427563
0.466701
0.414492
0.479464
0.450573
0.452262
0.455392
0.436863
0.460406
0.497908
0.482782
0.459096
0.476272
0.470324
0.453719
0.45438
0.457301
0.445603
0.495299
0.443458
0.452612
0.468376
0.451573
0.447882
0.457416
0.442436
0.454809
0.472343
0.484846
0.458021
0.496686
0.499622
0.468192
0.459816
0.463556
0.461521
0.45783
0.461669
0.501246
0.469775
0.452911
0.458337
0.494807
0.470501
0.476803
0.451743
0.451727
0.469693
0.456685
0.457003
0.457483
0.491081
0.452674
0.493642
0.449176
0.448821
0.452373
0.44864
0.455122
0.448829
0.48752
0.447308
0.450892
0.479355
0.453126
0.457296
0.47015
0.456254
0.465862
0.452994
0.455619
0.448772
0.456005
0.452732
0.45906
0.451385
0.487014
0.453157
0.491877
0.485538
0.461575
0.457413
0.456334
0.455909
0.439722
0.453127
0.492159
0.458427
0.453184
0.458662
0.450891
0.490043
0.496193
0.456237
0.50194
0.450624
0.456181
0.500731
0.462647
0.458782
0.463429
0.490144
0.478933
0.496045
0.45638
0.497367
0.455979
0.451914
0.499557
0.458544
0.455431
0.452708
0.449427
0.478428
0.454132
0.456627
0.482056
0.458561
0.453799
0.462337
0.48423
0.446396
0.462127
0.454409
0.471362
0.45146
0.465851
0.469028
0.47299
0.468331
0.442819
0.45169
0.454783
0.480785
0.456908
0.455522
0.451068
0.459222
0.505536
0.448759
0.480101
0.452413
0.450882
0.451943
0.471582
0.458906
0.456432
0.460242
0.451828
0.464368
0.489472
0.48501
0.458177
0.452517
0.424341
0.471706
0.452925
0.486575
0.455196
0.494298
0.455241
0.45383
0.454683
0.490177
0.453165
0.488455
0.457978
0.462288
0.47607
0.461269
0.481316
0.471895
0.459063
0.489511
0.473682
0.453624
0.503822
0.461651
0.454575
0.502051
0.473132
0.44339
0.464154
0.459705
0.454499
0.456254
0.446923
0.472376
0.493445
0.497707
0.382446
0.452809
0.44071
0.452731
0.454524
0.484774
0.483921
0.454204
0.459966
0.495364
0.456238
0.45195
0.473166
0.448473
0.454917
0.44866
0.4845
0.465706
0.456491
0.505725
0.447301
0.441245
0.453047
0.451507
0.453658
0.457807
0.493388
0.455998
0.463957
0.453708
0.451099
0.437587
0.447125
0.454125
0.463104
0.450283
0.456325
0.45085
0.488343
0.465466
0.452099
0.438138
0.455183
0.458123
0.463946
0.455577
0.489788
0.453796
0.486922
0.458444
0.457014
0.465463
0.460282
0.467497
0.464688
0.455325
0.465328
0.443011
0.43034
0.453842
0.494997
0.456396
0.454583
0.477028
0.450846
0.450854
0.449506
0.45437
0.49335
0.453014
0.452076
0.452547
0.463281
0.459294
0.496385
0.486191
0.447953
0.489402
0.453001
0.455497
0.483275
0.464392
0.450147
0.47282
0.477126
0.477046
0.470112
0.462073
0.446838
0.47106
0.45274
0.440164
0.455449
0.49388
0.453777
0.455427
0.447821
0.487352
0.476647
0.4617
0.376866
0.482648
0.454339
0.459078
0.454758
0.437984
0.453059
0.456748
0.466362
0.453313
0.465019
0.465677
0.462575
0.450363
0.451489
0.453682
0.446635
0.448104
0.481112
0.491792
0.461601
0.401136
0.460793
0.450823
0.45177
0.448124
0.454621
0.4428
0.459457
0.447976
0.484008
0.459497
0.46701
0.449445
0.450646
0.446759
0.457057
0.462446
0.466486
0.454051
0.461121
0.460251
0.45666
0.463539
0.474527
0.47408
0.48651
0.468077
0.457691
0.487917
0.454018
0.455737
0.450414
0.451973
0.454453
0.451938
0.443667
0.43593
0.45917
0.454751
0.449079
0.465815
0.496577
0.452223
0.468446
0.45465
0.457823
0.455922
0.452386
0.460059
0.497058
0.473064
0.491403
0.456585
0.459445
0.485697
0.457199
0.460148
0.470117
0.459353
0.476323
0.484788
0.45139
0.482572
0.48583
0.395752
0.406425
0.449494
0.479711
0.456464
0.453468
0.477873
0.454187
0.448998
0.441424
0.451999
0.492145
0.452193
0.391196
0.449131
0.477818
0.4817
0.448449
0.493153
0.472999
0.465474
0.452524
0.447014
0.447786
0.467712
0.457222
0.423355
0.461728
0.459085
0.452896
0.462299
0.484062
0.441824
0.455349
0.45162
0.390054
0.485571
0.452462
0.491458
0.487583
0.4544
0.454356
0.47111
0.467295
0.458212
0.447855
0.46075
0.406187
0.498756
0.450931
0.493531
0.457273
0.485924
0.458676
0.451561
0.452729
0.485523
0.468541
0.453995
0.454298
0.461837
0.449165
0.459098
0.456689
0.455193
0.484519
0.458404
0.474774
0.439572
0.444829
0.449203
0.459732
0.449336
0.465153
0.467349
0.488836
0.448205
0.44783
0.499705
0.453331
0.456162
0.46003
0.487965
0.457047
0.467923
0.465634
0.396308
0.471002
0.454815
0.508661
0.456398
0.499387
0.486444
0.461534
0.454747
0.497459
0.456916
0.45421
0.399142
0.49867
0.448004
0.452089
0.509004
0.457856
0.508153
0.502954
0.456676
0.454928
0.463959
0.444018
0.455302
0.453779
0.469859
0.43746
0.467621
0.460297
0.462783
0.445321
0.484309
0.428712
0.468275
0.470004
0.452846
0.44661
0.461126
0.456737
0.459344
0.448059
0.454167
0.462537
0.461543
0.45179
0.457959
0.453097
0.448857
0.456334
0.458205
0.42358
0.425992
0.447164
0.464343
0.473356
0.437812
0.44266
0.474084
0.458389
0.426166
0.48663
0.481621
0.447273
0.43751
0.4588
0.454924
0.455021
0.482656
0.458026
0.466009
0.480827
0.467475
0.491715
0.445507
0.45497
0.45442
0.450945
0.489531
0.461557
0.454362
0.454289
0.453007
0.383152
0.456948
0.458715
0.456493
0.439562
0.452644
0.389774
0.449382
0.449591
0.475392
0.49978
0.474408
0.445997
0.4502
0.479444
0.479762
0.453415
0.455372
0.455845
0.477024
0.502968
0.475504
0.475476
0.456166
0.458857
0.462567
0.455414
0.450266
0.411626
0.454315
0.450875
0.458951
0.47036
0.453621
0.43454
0.485436
0.470014
0.457495
0.414132
0.415554
0.456343
0.462061
0.447657
0.497348
0.455656
0.449765
0.441775
0.440471
0.441764
0.45151
0.45565
0.451709
0.453354
0.464149
0.445605
0.45194
0.453287
0.455777
0.446066
0.446482
0.485171
0.474142
0.495589
0.464273
0.429189
0.462988
0.485867
0.457145
0.472816
0.477913
0.464195
0.44998
0.455044
0.441658
0.454872
0.459954
0.446927
0.487542
0.449755
0.481701
0.457767
0.442298
0.457955
0.455142
0.4493
0.440673
0.477312
0.479668
0.469005
0.472417
0.462459
0.396875
0.454573
0.465827
0.44736
0.461994
0.47207
0.472379
0.399622
0.45399
0.457148
0.455174
0.486497
0.475196
0.445343
0.449144
0.482609
0.383881
0.447929
0.492645
0.452172
0.4572
0.454784
0.493703
0.452521
0.482838
0.477056
0.485489
0.446688
0.456473
0.463179
0.456255
0.457309
0.457627
0.490103
0.503622
0.457758
0.459587
0.458369
0.446284
0.485689
0.446264
0.471107
0.415793
0.457377
0.471798
0.478373
0.46007
0.448346
0.480544
0.482203
0.436786
0.439896
0.450463
0.467729
0.479875
0.488712
0.45119
0.459749
0.42958
0.446198
0.464611
0.454675
0.445547
0.427539
0.441598
0.448196
0.470107
0.457019
0.444503
0.449321
0.466931
0.416921
0.438395
0.440489
0.415802
0.444757
0.446226
0.465246
0.441408
0.45065
0.415293
0.436835
0.487923
0.45272
0.433257
0.472951
0.460781
0.433934
0.453858
0.421069
0.487308
0.486955
0.453697
0.392053
0.456662
0.493682
0.463336
0.454497
0.485149
0.455426
0.43977
0.498807
0.462007
0.451296
0.454209
0.454779
0.449563
0.448268
0.447927
0.448426
0.449921
0.456806
0.441089
0.451738
0.448712
0.440186
0.450191
0.455214
0.462
0.430987
0.450331
0.454234
0.459415
0.469413
0.463048
0.493264
0.446075
0.460769
0.454038
0.453841
0.436316
0.457395
0.492286
0.459224
0.47096
0.476446
0.422459
0.485973
0.434769
0.458562
0.455195
0.453665
0.434017
0.488027
0.45572
0.436261
0.481641
0.444718
0.443792
0.402231
0.439837
0.470105
0.473699
0.4347
0.420361
0.427342
0.483775
0.452133
0.426166
0.450374
0.488078
0.46304
0.43262
0.447729
0.424589
0.455774
0.4419
0.461381
0.46048
0.438332
0.431681
0.472052
0.478542
0.45411
0.468918
0.495342
0.407139
0.4517
0.480807
0.46648
0.486669
0.452503
0.445778
0.452509
0.386425
0.453351
0.457111
0.455885
0.447924
0.452717
0.453353
0.443539
0.46729
0.459733
0.45113
0.457924
0.469452
0.469302
0.459981
0.410148
0.475523
0.41776
0.438977
0.449712
0.426621
0.454553
0.461799
0.457516
0.459564
0.449451
0.425391
0.426524
0.383306
0.457232
0.443422
0.468749
0.467423
0.49012
0.443998
0.45534
0.438511
0.431333
0.433912
0.428677
0.451643
0.465464
0.453819
0.453922
0.431692
0.489868
0.476871
0.488973
0.417255
0.448728
0.39132
0.379426
0.46357
0.414736
0.494552
0.455653
0.492037
0.483102
0.430574
0.480148
0.475863
0.427504
0.40507
0.451897
0.491639
0.450243
0.459697
0.44814
0.448206
0.444965
0.426881
0.426393
0.486689
0.469715
0.453218
0.465632
0.449155
0.464723
0.439554
0.464415
0.455701
0.461881
0.442575
0.378673
0.374919
0.425351
0.450624
0.443007
0.457204
0.423022
0.490713
0.453768
0.465475
0.429086
0.49505
0.439852
0.433403
0.466143
0.497312
0.423079
0.45679
0.385396
0.423845
0.395638
0.451432
0.486466
0.475346
0.44334
0.475725
0.427143
0.481558
0.393757
0.453065
0.462199
0.455954
0.414191
0.501043
0.41976
0.451242
0.413871
0.437787
0.456172
0.433543
0.501941
0.436529
0.459376
0.441771
0.450324
0.456961
0.426231
0.473776
0.490704
0.441123
0.492514
0.400062
0.491345
0.474981
0.432221
0.45069
0.453596
0.458771
0.417442
0.481795
0.44978
0.414387
0.446791
0.482207
0.429855
0.451865
0.400539
0.449206
0.461903
0.45324
0.437163
0.450162
0.452257
0.483942
0.452197
0.457701
0.476879
0.390282
0.434685
0.442926
0.468931
0.460577
0.406866
0.449578
0.427423
0.426055
0.394255
0.375017
0.380431
0.460992
0.452322
0.460597
0.446927
0.470925
0.462131
0.455984
0.4464
0.406038
0.439314
0.454829
0.441806
0.453231
0.442876
0.491196
0.437596
0.453849
0.454569
0.431669
0.446072
0.450548
0.464132
0.428036
0.45944
0.433556
0.433032
0.427728
0.481657
0.41387
0.437141
0.419795
0.443656
0.41507
0.412571
0.436064
0.480455
0.413143
0.494358
0.468034
0.47401
0.397327
0.456202
0.44009
0.421045
0.438499
0.46106
0.453182
0.378388
0.44542
0.412604
0.455229
0.472559
0.461103
0.42257
0.458797
0.453514
0.447357
0.416539
0.423607
0.452046
0.445139
0.396346
0.391626
0.453904
0.401995
0.403379
0.428127
0.427378
0.453551
0.419802
0.41323
0.41828
0.450949
0.429362
0.41078
0.389422
0.446582
0.419325
0.471842
0.471025
0.454679
0.45996
0.431181
0.415545
0.421469
0.387186
0.38628
0.455837
0.466673
0.435615
0.458468
0.447766
0.449071
0.441922
0.398311
0.421044
0.487482
0.443896
0.471509
0.403545
0.460295
0.454365
0.483091
0.483662
0.437065
0.413733
0.417156
0.447069
0.446729
0.457747
0.455477
0.416656
0.409895
0.497551
0.414116
0.383195
0.407389
0.440837
0.421194
0.439466
0.415201
0.435681
0.438428
0.387716
0.477326
0.471518
0.426191
0.450289
0.420491
0.430977
0.45306
0.417895
0.488055
0.427728
0.437549
0.465723
0.417215
0.419611
0.456436
0.43832
0.419473
0.45171
0.461053
0.438283
0.449385
0.419914
0.435972
0.40689
0.427803
0.450461
0.434064
0.430248
0.443386
0.449091
0.408657
0.402068
0.397678
0.454076
0.469147
0.395803
0.445575
0.468931
0.439183
0.440393
0.481264
0.398658
0.426791
0.410853
0.409996
0.459096
0.453863
0.473537
0.468351
0.434962
0.436069
0.434874
0.442915
0.409728
0.407654
0.432391
0.397827
0.486843
0.425495
0.438961
0.414677
0.429506
0.475866
0.413822
0.39795
0.419881
0.406042
0.454331
0.449425
0.422958
0.391564
0.416119
0.400167
0.455389
0.464597
0.466411
0.457631
0.434472
0.458593
0.454779
0.485335
0.441833
0.45548
0.413307
0.451949
0.43456
0.4216
0.391129
0.484573
0.42213
0.451183
0.415429
0.449654
0.373195
0.389729
0.406522
0.447163
0.413788
0.406833
0.435411
0.445433
0.458625
0.42237
0.442743
0.466073
0.454132
0.452944
0.379728
0.419057
0.458641
0.40753
0.447973
0.412989
0.394099
0.441906
0.417502
0.428288
0.420853
0.414894
0.404145
0.402449
0.463367
0.457354
0.454076
0.431942
0.412425
0.417074
0.41274
0.441223
0.421669
0.45152
0.407519
0.440835
0.395064
0.457509
0.409869
0.407533
0.460584
0.453699
0.422508
0.437357
0.377613
0.408367
0.422103
0.395304
0.426002
0.446608
0.466917
0.453535
0.462989
0.437877
0.428059
0.417825
0.406403
0.423047
0.424755
0.481041
0.423227
0.440789
0.441321
0.406819
0.420921
0.476277
0.471354
0.487849
0.459762
0.375429
0.400688
0.49119
0.443079
0.412848
0.455978
0.478878
0.484332
0.42586
0.417105
0.439877
0.388637
0.376093
0.446904
0.383351
0.445638
0.414226
0.397705
0.423805
0.415705
0.443773
0.46046
0.390436
0.388404
0.4314
0.402045
0.421024
0.394817
0.409794
0.41846
0.448447
0.403003
0.434756
0.46377
0.437011
0.427608
0.405603
0.437731
0.429274
0.431454
0.400725
0.420261
0.438141
0.447836
0.420184
0.46479
0.412573
0.451579
0.383344
0.412849
0.401694
0.464087
0.435488
0.454933
0.478098
0.428104
0.44677
0.455626
0.433167
0.439218
0.401518
0.412706
0.440351
0.417109
0.449707
0.429855
0.388553
0.430877
0.412103
0.403951
0.380112
0.418233
0.420004
0.458952
0.392513
0.4346
0.446882
0.385579
0.401321
0.456964
0.402295
0.4244
0.418357
0.42554
0.377167
0.391181
0.416981
0.408063
0.424465
0.411938
0.422043
0.391082
0.439255
0.43992
0.413725
0.399679
0.426759
0.456906
0.421944
0.429788
0.455523
0.379637
0.387792
0.426207
0.375371
0.47462
0.438164
0.407813
0.427239
0.429902
0.393713
0.468163
0.45384
0.38241
0.458054
0.443876
0.422692
0.398092
0.40452
0.396519
0.415385
0.44948
0.473213
0.396668
0.417743
0.424635
0.399052
0.482696
0.406979
0.393907
0.382498
0.410228
0.41167
0.414414
0.426477
0.430677
0.43221
0.404725
0.406727
0.394396
0.46088
0.407631
0.37408
0.406898
0.405876
0.392374
0.439881
0.408678
0.449028
0.433882
0.434112
0.460905
0.42907
0.435146
0.425634
0.425845
0.471908
0.433691
0.402792
0.390593
0.434598
0.385726
0.373322
0.387978
0.440721
0.381159
0.379816
0.423446
0.442783
0.43763
0.44531
0.394495
0.382891
0.412921
0.414802
0.398686
0.451017
0.4019
0.45393
0.382155
0.375643
0.400543
0.395347
0.460706
0.413544
0.437207
0.428826
0.418413
0.413117
0.405087
0.443379
0.397657
0.406447
0.450493
0.398427
0.447413
0.378381
0.380211
0.42061
0.406201
0.410494
0.401788
0.425591
0.44244
0.471263
0.484786
0.461514
0.381341
0.379624
0.40638
0.416145
0.380327
0.37767
0.391106
0.388733
0.434763
0.454962
0.42048
0.427044
0.451227
0.378301
0.410665
0.41154
0.429542
0.442067
0.389169
0.42054
0.421865
0.44352
0.458844
0.403172
0.40286
0.448004
0.472267
0.447049
0.391564
0.451119
0.440358
0.431595
0.455821
0.428232
0.482709
0.427982