/*--------------------------------*- C++ -*----------------------------------*\
| =========                 |                                                 |
| \\      /  F ield         | OpenFOAM: The Open Source CFD Toolbox           |
|  \\    /   O peration     | Version:  2212                                  |
|   \\  /    A nd           | Website:  www.openfoam.com                      |
|    \\/     M anipulation  |                                                 |
\*---------------------------------------------------------------------------*/
FoamFile
{
    version     2.0;
    format      ascii;
    arch        "LSB;label=32;scalar=64";
    class       volScalarField;
    location    "0.042";
    object      k;
}
// * * * * * * * * * * * * * * * * * * * * * * * * * * * * * * * * * * * * * //

dimensions      [0 2 -2 0 0 0 0];

internalField   nonuniform List<scalar> 
31639
(
0.0147455
0.0144262
0.0146309
0.0151437
0.0146132
0.0143196
0.0143997
0.014863
0.0147157
0.0149287
0.0149297
0.0149032
0.0145295
0.0150083
0.0142237
0.0141857
0.0148252
0.0144344
0.0140637
0.0145223
0.0134033
0.01502
0.0150369
0.0141228
0.0140337
0.0146414
0.0144749
0.0122914
0.0143744
0.0151115
0.01494
0.0142959
0.0150182
0.0140547
0.0137358
0.0150751
0.0130984
0.0152503
0.0149968
0.0129933
0.0136432
0.0136645
0.0148344
0.0149827
0.0149798
0.01495
0.0142748
0.0144152
0.0148022
0.0150974
0.0149157
0.0130758
0.0151658
0.0133752
0.0142928
0.0147331
0.0134816
0.0145362
0.0143905
0.0134662
0.0146
0.0149686
0.0141035
0.0144422
0.0147082
0.0151036
0.0145409
0.0145118
0.0139281
0.0150776
0.0149951
0.0139245
0.0147944
0.0145178
0.0150659
0.0137465
0.0148844
0.0144264
0.0142458
0.0148841
0.014056
0.0129333
0.015004
0.014665
0.0146203
0.0148964
0.0150574
0.014988
0.0138092
0.0151412
0.014602
0.0146549
0.0135427
0.0143227
0.0138486
0.0143252
0.0144265
0.0144999
0.0145736
0.0135178
0.0151018
0.0149102
0.014276
0.0133628
0.0134817
0.0149883
0.0133652
0.0132306
0.0139054
0.0133823
0.0147229
0.0135512
0.0143805
0.0142554
0.0144948
0.0133362
0.0145115
0.0145334
0.0149133
0.0143995
0.0149096
0.0148892
0.0148178
0.0147001
0.0146544
0.0150348
0.0145057
0.0139681
0.0138004
0.0148092
0.0149096
0.0148241
0.0149009
0.0143743
0.0148954
0.0145056
0.0134722
0.013271
0.0148532
0.014508
0.0144857
0.0149146
0.0149429
0.013285
0.0131101
0.0150329
0.0148676
0.0136273
0.0135486
0.0149288
0.014052
0.0147504
0.0141053
0.014833
0.0138117
0.0150971
0.0145694
0.0138808
0.0137437
0.0141162
0.0149718
0.0139039
0.014057
0.0134318
0.0136494
0.0143343
0.0137712
0.0151075
0.0148869
0.0132938
0.0140431
0.0141375
0.0137034
0.0145105
0.0151337
0.0148448
0.014597
0.015131
0.0145491
0.0144585
0.0142816
0.014413
0.0141092
0.0130962
0.0147143
0.0151854
0.0142986
0.015074
0.0136352
0.0135414
0.0154098
0.0149239
0.0148103
0.014406
0.0145107
0.014371
0.0143649
0.0147995
0.0134039
0.0143359
0.0150232
0.0151718
0.0146959
0.0147009
0.0146257
0.0144423
0.0143246
0.0141511
0.0149466
0.0131319
0.0144305
0.0144109
0.0147259
0.0149428
0.0149506
0.0149855
0.0137246
0.0141441
0.014984
0.0148794
0.0147002
0.0144956
0.0134078
0.0145022
0.0134512
0.0145165
0.0148797
0.0141758
0.0136681
0.0148348
0.0147121
0.0151886
0.0138053
0.0135893
0.0147694
0.0148138
0.013435
0.0150114
0.0140993
0.0133632
0.0142874
0.0147378
0.014447
0.0142486
0.0141897
0.0148762
0.0142402
0.0141575
0.013637
0.0143902
0.0141676
0.013784
0.0142583
0.0151165
0.0149433
0.0142968
0.0137616
0.0147815
0.0147743
0.0146923
0.0151199
0.0149541
0.0147034
0.01498
0.0142681
0.014485
0.0132349
0.0140684
0.014885
0.014156
0.014537
0.0142501
0.0146523
0.0152856
0.0151286
0.0146808
0.0135294
0.0144465
0.0140034
0.0149426
0.0145049
0.0150749
0.01513
0.0143531
0.0136216
0.0141004
0.0137831
0.0135188
0.0148918
0.0138613
0.0150488
0.0143142
0.0141791
0.0137817
0.0152452
0.0143109
0.01442
0.0150141
0.0147047
0.0141545
0.014399
0.0138539
0.0144784
0.0142945
0.0137069
0.0143256
0.0141968
0.0128438
0.0132427
0.0149039
0.0150421
0.0145881
0.0134148
0.0138702
0.0147888
0.0138603
0.0137691
0.0150499
0.0152174
0.0142599
0.014949
0.0150735
0.013715
0.0149644
0.0133503
0.013425
0.0150411
0.0148936
0.0149286
0.0151018
0.0148739
0.0137857
0.014369
0.0143244
0.0150236
0.0152088
0.0151941
0.0143405
0.0141224
0.0147908
0.0147848
0.0146825
0.0142045
0.0144414
0.0142384
0.014517
0.0147641
0.0142259
0.0137092
0.0147958
0.0151848
0.0143142
0.0150865
0.0149899
0.0144056
0.0137162
0.0143777
0.0143781
0.0134003
0.0152344
0.0138574
0.014716
0.0148146
0.0132798
0.0144582
0.0144183
0.0135016
0.0146224
0.0137779
0.0145191
0.0151421
0.0148409
0.0132317
0.0146813
0.0137861
0.014699
0.0149392
0.0150491
0.015028
0.0138736
0.0148053
0.0133907
0.0142637
0.0133891
0.0150267
0.0148249
0.014958
0.0148864
0.0139014
0.0152072
0.0144114
0.0147778
0.0143632
0.0140544
0.0144882
0.0147866
0.01466
0.014792
0.0146577
0.0148724
0.0144418
0.013731
0.0145648
0.0147912
0.0147398
0.0132632
0.0150051
0.0149061
0.0144176
0.0145939
0.014707
0.0146838
0.0150421
0.0132912
0.0147185
0.0150024
0.013274
0.0145798
0.0146835
0.0138015
0.0134843
0.0135069
0.0143173
0.0135309
0.0143968
0.0141773
0.014279
0.0151491
0.0136304
0.0148608
0.0150311
0.0144464
0.014876
0.0143268
0.0150164
0.0144575
0.0147269
0.0151005
0.0143895
0.013567
0.0144843
0.0150424
0.0149164
0.0148357
0.0150705
0.014239
0.0146921
0.0149121
0.0151512
0.0151056
0.0137293
0.0143735
0.0130519
0.0146177
0.0143068
0.0136717
0.0135254
0.0143132
0.0148311
0.0149274
0.0135219
0.0148311
0.0142162
0.0143733
0.0149014
0.0117793
0.0143163
0.0134106
0.0142045
0.0149236
0.0151638
0.0148
0.0145376
0.0131881
0.0148262
0.0144559
0.0147463
0.0134612
0.0137255
0.0143759
0.0135858
0.0137565
0.0146612
0.0134155
0.0143266
0.0132899
0.014841
0.0136207
0.0150795
0.0148929
0.0148685
0.0149782
0.0141796
0.0148609
0.0149838
0.0146284
0.0149433
0.0144799
0.0148495
0.0152567
0.0142548
0.0149891
0.0150435
0.0143775
0.0139858
0.0151117
0.0144713
0.0131868
0.0133912
0.0144957
0.0151044
0.015037
0.0144096
0.0153367
0.0153292
0.0147635
0.0145763
0.0144331
0.0143748
0.0137756
0.0143976
0.0147842
0.0151029
0.0140943
0.013905
0.0138698
0.0141575
0.0143353
0.0130938
0.0148254
0.0141998
0.0147708
0.0145206
0.0148826
0.0145467
0.0137501
0.0146676
0.0149813
0.0139534
0.0149088
0.0150748
0.0142273
0.0143678
0.0122991
0.0139349
0.0143925
0.0144772
0.0137809
0.0136922
0.0145078
0.0136955
0.0147931
0.0141119
0.014438
0.0149614
0.0144271
0.0133837
0.0142666
0.0145141
0.0150197
0.0136003
0.0130048
0.0149496
0.0134682
0.0145691
0.0152083
0.0136409
0.0144156
0.0150921
0.0146285
0.0135922
0.0149313
0.0146315
0.0134871
0.0148504
0.0145649
0.0143176
0.0147672
0.0132419
0.0140827
0.0146019
0.0143325
0.01446
0.0146906
0.0152428
0.0148946
0.0147258
0.0150216
0.0149422
0.0148451
0.0140374
0.0147923
0.0150796
0.0152702
0.0139285
0.0145079
0.0146459
0.0154103
0.0138028
0.0131998
0.0150448
0.01381
0.0152279
0.0142318
0.0136783
0.0145958
0.014942
0.0147375
0.0147431
0.0132852
0.0148169
0.0145626
0.013344
0.0150429
0.0149096
0.0121791
0.0136729
0.0139488
0.0143346
0.0145613
0.0145368
0.0144271
0.0144662
0.0149206
0.0144749
0.0144343
0.0137364
0.0151
0.0134562
0.0144283
0.0144533
0.0141723
0.0151532
0.014423
0.0139944
0.0134011
0.0137188
0.0144191
0.0149743
0.013808
0.0151242
0.0146368
0.0148713
0.0136896
0.01422
0.0148258
0.0151451
0.0150055
0.0147776
0.0144924
0.0145705
0.0151403
0.015137
0.0150292
0.0140611
0.0149318
0.0136782
0.0150489
0.0149485
0.0143878
0.0138396
0.0142702
0.0129436
0.0149982
0.0147087
0.0152342
0.0143868
0.0140603
0.0135605
0.0147418
0.0134023
0.0132191
0.0138452
0.0141923
0.0136754
0.0144467
0.0135617
0.0147371
0.0147532
0.0131753
0.0151322
0.0137861
0.0139846
0.0141922
0.0141724
0.0148617
0.0150196
0.0151219
0.0149978
0.014465
0.0145029
0.0143635
0.014343
0.0134172
0.0108326
0.0150688
0.014327
0.0148593
0.0149258
0.0135491
0.0149913
0.015066
0.0148113
0.0148391
0.0147723
0.0146032
0.0151018
0.0151626
0.0145518
0.0149546
0.0149561
0.0138414
0.0149573
0.0142005
0.0147915
0.014066
0.0143462
0.0140626
0.0152186
0.0143306
0.0145308
0.0145257
0.0138498
0.0151187
0.0146615
0.0142966
0.0137589
0.0147726
0.0133049
0.0148812
0.0148895
0.0140804
0.0151431
0.0152022
0.0151046
0.0135076
0.0145021
0.0145845
0.0146277
0.0137934
0.0148445
0.0149426
0.0141348
0.0144828
0.0140892
0.0148343
0.0142971
0.0144037
0.0133284
0.0148072
0.014705
0.0148479
0.0142077
0.0144154
0.0146131
0.0144439
0.0142038
0.0147163
0.0148354
0.0143259
0.0133112
0.0133276
0.0143319
0.013081
0.0135358
0.0146303
0.0146122
0.0148607
0.0132684
0.0142907
0.0150194
0.0138671
0.0134113
0.0145006
0.0137611
0.0148872
0.0139921
0.0150273
0.0140855
0.0142198
0.0151201
0.0133114
0.0141977
0.0142817
0.014892
0.015081
0.0149773
0.0138546
0.0147223
0.0150686
0.0142131
0.0150902
0.0149043
0.0147726
0.0148952
0.014491
0.0152293
0.0152025
0.0152047
0.0147244
0.0142211
0.0146384
0.0144159
0.0134138
0.0142115
0.0148476
0.0149323
0.0151818
0.0144055
0.0150875
0.0149453
0.0141114
0.0149752
0.0149347
0.0147952
0.0149557
0.0136253
0.0142673
0.0148549
0.0132275
0.0145585
0.0143589
0.0144878
0.0143062
0.0151094
0.0148016
0.0148865
0.0143689
0.0148225
0.0145596
0.015045
0.0145753
0.0144106
0.0137574
0.0149581
0.0139258
0.0142642
0.0145098
0.0142216
0.0146541
0.0150931
0.0136871
0.015072
0.0137145
0.0146135
0.0144286
0.0142719
0.0143827
0.0150387
0.0135496
0.0147734
0.0149682
0.0151466
0.0146356
0.0145986
0.0130946
0.0149562
0.01493
0.0147188
0.0147813
0.0149159
0.0145172
0.0148645
0.0144862
0.0138171
0.0144612
0.0150798
0.0132935
0.0138974
0.0153844
0.0148783
0.0141289
0.0143442
0.0146538
0.0141113
0.0143479
0.0139037
0.0148948
0.0151245
0.0132124
0.014645
0.014962
0.0149817
0.0153066
0.0142466
0.0149253
0.0138661
0.0138244
0.0150691
0.0149388
0.0143733
0.0138111
0.0148506
0.0149267
0.0141119
0.0150732
0.0149528
0.0149924
0.0147917
0.0148766
0.014626
0.0145674
0.0142728
0.0141448
0.0134787
0.014615
0.014524
0.0137774
0.014985
0.0134563
0.0142275
0.014453
0.0137291
0.0143704
0.014231
0.014675
0.0146034
0.014941
0.0136947
0.0137227
0.0143585
0.0135549
0.0140787
0.0149166
0.0143412
0.0149769
0.0147028
0.0143645
0.0150967
0.0142709
0.0146797
0.0143332
0.0143594
0.0147228
0.0139247
0.0145363
0.0148851
0.015004
0.015163
0.0137434
0.0135118
0.0144675
0.0149443
0.0138501
0.0142254
0.0148722
0.0143972
0.0153736
0.0144222
0.0142427
0.0149472
0.0136084
0.014947
0.015238
0.0137846
0.0141211
0.0143604
0.01428
0.0151362
0.0150966
0.0148666
0.0139162
0.0148812
0.0135838
0.0143383
0.0150741
0.0143136
0.015344
0.0133305
0.0144654
0.014754
0.0145585
0.0134807
0.0134526
0.0148916
0.0151039
0.0142985
0.0150575
0.0147429
0.014377
0.0136583
0.0140825
0.0147254
0.0144772
0.0144582
0.0151679
0.0149771
0.0153242
0.0150521
0.0147262
0.014742
0.0147851
0.0138551
0.0149991
0.01475
0.0145619
0.0146782
0.0151342
0.0145007
0.0150611
0.0143305
0.0131678
0.0151859
0.0141925
0.0149728
0.0142098
0.0149111
0.0138796
0.0147483
0.0153019
0.0144496
0.0144585
0.0135087
0.0148325
0.0150091
0.0146411
0.0135749
0.0153535
0.0144856
0.0145875
0.0150668
0.0150173
0.0148668
0.0143757
0.0146209
0.0153012
0.0138613
0.0139709
0.013791
0.014031
0.014631
0.0135003
0.0151078
0.0149819
0.0153034
0.0143247
0.0143622
0.0145201
0.014935
0.0145265
0.0147047
0.015031
0.0151876
0.014641
0.0149303
0.0145387
0.0142625
0.0147214
0.0142414
0.0151922
0.0151107
0.0151343
0.0152435
0.0150006
0.0141424
0.0152736
0.0146722
0.014645
0.0142543
0.0146583
0.0151172
0.0144387
0.0148827
0.0143206
0.0144729
0.0148004
0.0139602
0.0135852
0.0142916
0.0144786
0.0152078
0.0141963
0.0134693
0.0146892
0.0149485
0.0140986
0.0142123
0.0145116
0.0151137
0.0150026
0.0142679
0.01423
0.0144918
0.0150204
0.0142788
0.014548
0.0145568
0.013503
0.0143457
0.014361
0.0148618
0.0149905
0.0144999
0.0150789
0.014891
0.0144377
0.0146228
0.0136591
0.0139258
0.0135267
0.0151345
0.0146747
0.0152164
0.0155793
0.0148202
0.0134988
0.0149556
0.0143201
0.0148237
0.0147697
0.0148806
0.0135527
0.0151259
0.0137416
0.0145113
0.0145972
0.0145415
0.0153553
0.0144115
0.0148745
0.0138424
0.0143765
0.0146008
0.0150841
0.0140561
0.0141397
0.0147578
0.0149584
0.0148195
0.0147705
0.0150941
0.0137782
0.0145899
0.0143854
0.0141318
0.0148582
0.0152114
0.0151242
0.0149161
0.0152025
0.0138199
0.0137695
0.0138315
0.0151493
0.0135801
0.0148675
0.0147323
0.0136851
0.0142797
0.0148928
0.0150483
0.0141034
0.0142524
0.0141978
0.0145769
0.0151604
0.0145738
0.0137156
0.0145393
0.0152748
0.0150153
0.0153186
0.0151011
0.0154687
0.0151452
0.0150547
0.0139617
0.0135641
0.0145667
0.0141183
0.0151642
0.0137691
0.0146521
0.0144483
0.0151416
0.0139858
0.0149005
0.0148626
0.0147284
0.0144459
0.01374
0.0149973
0.0143202
0.0152898
0.0145713
0.0152416
0.0151345
0.0145552
0.0135676
0.0136998
0.014363
0.0148361
0.01416
0.0154152
0.0138638
0.0149168
0.0148179
0.0143303
0.0147239
0.014902
0.0151119
0.0150783
0.015128
0.0146325
0.0147352
0.0135216
0.0141823
0.0151286
0.0139689
0.0148268
0.0143727
0.013799
0.0144113
0.014131
0.0143966
0.0147602
0.0149241
0.0138614
0.0143516
0.0145859
0.0137697
0.0141837
0.0143882
0.0145511
0.0148358
0.0137739
0.0137287
0.0144417
0.0143519
0.0151263
0.015285
0.0150718
0.0141588
0.0142794
0.014573
0.0141099
0.0150171
0.0136982
0.0144998
0.0144983
0.0151864
0.0149624
0.0145937
0.014721
0.0150719
0.013767
0.0146347
0.0151516
0.0142175
0.0129101
0.0145271
0.0138547
0.0146716
0.0134218
0.0151404
0.0152545
0.0151547
0.0145943
0.0137342
0.0136547
0.014975
0.015186
0.0151557
0.0146101
0.0147131
0.0147474
0.0151943
0.0149701
0.0134281
0.0146086
0.0146861
0.0147192
0.0142675
0.0148247
0.0133671
0.0151787
0.0149636
0.0145643
0.0146122
0.0148251
0.0144627
0.0151665
0.0147842
0.0138649
0.0143727
0.0149215
0.0143128
0.0145832
0.0147843
0.0134502
0.0138026
0.0150839
0.0152483
0.0150137
0.0152482
0.0147911
0.0149707
0.0147036
0.01461
0.01471
0.0149988
0.0142799
0.0145491
0.014095
0.0144643
0.0149792
0.0133165
0.0146542
0.0134466
0.0149683
0.0134926
0.0135012
0.0143226
0.013307
0.0147225
0.0147082
0.0149546
0.0149918
0.0141947
0.0140187
0.0153161
0.0142383
0.0138539
0.0146114
0.0140888
0.0150926
0.0148203
0.0146905
0.0138136
0.0150001
0.01495
0.0150963
0.0135687
0.0141583
0.0146259
0.0149242
0.0153592
0.0136801
0.0135901
0.0150502
0.0147868
0.0151568
0.0144853
0.0132999
0.0147965
0.0149854
0.01358
0.0134155
0.0150063
0.0138119
0.0138072
0.0150072
0.0152593
0.0148062
0.0153669
0.0143766
0.0143947
0.0150785
0.0140973
0.0150522
0.0142424
0.0146847
0.0150237
0.0143258
0.0135831
0.0148518
0.0149043
0.0142625
0.0144172
0.0145725
0.0141048
0.0132263
0.0146229
0.0148199
0.0150261
0.0142625
0.0147041
0.0135576
0.0148505
0.0152323
0.0134551
0.0150048
0.0146214
0.0130774
0.0135858
0.0145632
0.0144411
0.0149186
0.0143582
0.0138526
0.0149214
0.0152052
0.0150921
0.0147909
0.0150715
0.0136416
0.0150803
0.0144782
0.0137006
0.0136914
0.0129615
0.0137003
0.0146991
0.0144141
0.0147273
0.014492
0.0138923
0.0140904
0.0133586
0.0133483
0.0153333
0.0152441
0.0138751
0.015147
0.0151149
0.0138634
0.0144507
0.0146999
0.0141298
0.0142099
0.0150446
0.0140275
0.0133275
0.0150876
0.015211
0.0142466
0.015143
0.0144004
0.014005
0.0138043
0.0144345
0.0135317
0.0137724
0.0146408
0.0146627
0.0143953
0.0151335
0.0150986
0.0144404
0.0150224
0.0105204
0.0144529
0.0136054
0.0144213
0.0150982
0.0143605
0.0141234
0.014346
0.0137935
0.0146666
0.0144113
0.0141107
0.0136633
0.0131881
0.0132107
0.0143392
0.0136864
0.0144875
0.0136457
0.0143559
0.0150257
0.0146977
0.0144012
0.0145712
0.0148496
0.0144406
0.0148601
0.0134656
0.0146116
0.015099
0.0151099
0.0142813
0.0153355
0.0139988
0.0149332
0.0143592
0.0135392
0.0150341
0.0150972
0.0147347
0.0147077
0.0150422
0.0147248
0.013226
0.0133065
0.0142907
0.0152019
0.0146363
0.0149427
0.0142228
0.0143707
0.0139451
0.0135571
0.0135592
0.0135509
0.014802
0.0146216
0.0150158
0.0141917
0.0142741
0.0153295
0.0136973
0.0144705
0.0152176
0.0150568
0.0139765
0.0142968
0.0148502
0.0151094
0.0150957
0.0123974
0.0147581
0.0149575
0.0146806
0.0144811
0.0152879
0.0149521
0.015083
0.0146265
0.0141067
0.0145338
0.0151267
0.0147621
0.0143831
0.0136668
0.0150037
0.0150137
0.0150496
0.0148771
0.0133859
0.0130148
0.0143078
0.0148637
0.0144961
0.0146025
0.0148334
0.0148788
0.0148853
0.0142724
0.0149025
0.0145344
0.0149858
0.0138067
0.0137943
0.0142597
0.0152571
0.0137648
0.0149245
0.0136879
0.0144297
0.0144953
0.0152774
0.014494
0.0149421
0.0152111
0.0149908
0.0146441
0.0149628
0.0144931
0.0142646
0.0132899
0.0152119
0.0129153
0.0136174
0.0126593
0.0132408
0.013426
0.0143682
0.0146155
0.0137318
0.0142188
0.0130434
0.0138289
0.0141341
0.0151107
0.0134549
0.0136162
0.0148657
0.0134729
0.0143195
0.0148255
0.0148632
0.0143366
0.0136969
0.013366
0.0141846
0.0152448
0.0140659
0.0135663
0.0148044
0.0142488
0.0146254
0.0144048
0.0138125
0.0150787
0.0132688
0.0136086
0.0144409
0.0151128
0.0142821
0.0144426
0.0145257
0.0144895
0.0132018
0.0138821
0.0142605
0.0150103
0.0148241
0.013574
0.0131118
0.0144146
0.0151628
0.0143447
0.0144758
0.0140691
0.0142407
0.0143893
0.0135652
0.0150657
0.0141786
0.0135555
0.0130832
0.0147803
0.0144634
0.015115
0.0145806
0.0149349
0.0136358
0.0143904
0.0132769
0.0131126
0.0150699
0.0138248
0.0145229
0.0144941
0.0141288
0.0135821
0.0150997
0.0149127
0.0151219
0.0147139
0.0128049
0.0144413
0.0132221
0.015154
0.0137469
0.0150646
0.0130508
0.0147119
0.0149298
0.014216
0.0142663
0.0132256
0.0140869
0.0144222
0.0148854
0.0147782
0.0151137
0.0150405
0.013683
0.0151254
0.0132146
0.0146074
0.0147334
0.0149915
0.015024
0.0142149
0.0152099
0.0144303
0.0141537
0.0141268
0.0145936
0.0150128
0.0140529
0.0137746
0.0151099
0.0148562
0.0143352
0.0152108
0.0146731
0.0147626
0.0149206
0.0149226
0.0150335
0.0143316
0.0142294
0.0149981
0.0149189
0.0130897
0.0143792
0.0139758
0.015162
0.0146771
0.0149579
0.0136386
0.0135666
0.0145411
0.0147416
0.0148324
0.0149686
0.0149482
0.0145312
0.0148063
0.0137243
0.0147591
0.014386
0.0150654
0.0150221
0.0150391
0.0146486
0.0150722
0.0140332
0.015049
0.0139732
0.0142643
0.014287
0.0145379
0.0142564
0.014803
0.0134744
0.0149889
0.0148768
0.0144367
0.0136378
0.0151628
0.014749
0.0149863
0.0143604
0.014481
0.0149485
0.013527
0.0150376
0.014532
0.0145793
0.0139815
0.0140848
0.0141634
0.0135261
0.0142441
0.0152441
0.0146165
0.0131443
0.0147428
0.0134402
0.0147107
0.0146929
0.0133127
0.0133794
0.0141663
0.0146153
0.0149524
0.0142369
0.0144178
0.014481
0.0131602
0.0142803
0.015048
0.0150224
0.015047
0.0145569
0.0147822
0.0137075
0.0136939
0.0152356
0.0144938
0.0147528
0.0148674
0.0152615
0.0145616
0.0145838
0.0132665
0.0147259
0.0149779
0.0141967
0.0150613
0.0149203
0.014683
0.0138474
0.0147946
0.0143325
0.0130842
0.0145703
0.0139044
0.013598
0.0147385
0.0145326
0.0150262
0.0149853
0.0146323
0.0152219
0.0130295
0.0142293
0.0151103
0.015167
0.0133386
0.0147529
0.0137832
0.0139967
0.0150581
0.0141045
0.0147384
0.015284
0.014836
0.0131855
0.0148703
0.0136764
0.014957
0.0147382
0.0146187
0.014963
0.0145853
0.0149353
0.0135931
0.0148976
0.0150346
0.0137508
0.0146605
0.014466
0.0143461
0.0149453
0.014384
0.0149486
0.015153
0.0150916
0.0144176
0.0150238
0.0145196
0.0147776
0.0140358
0.0139525
0.0135192
0.0133048
0.0147231
0.0147872
0.014437
0.0151492
0.0139889
0.0151101
0.013325
0.0152496
0.0151661
0.0148204
0.0150928
0.0140169
0.0132797
0.0143643
0.0136328
0.014954
0.0144958
0.0133452
0.0143392
0.01528
0.0148523
0.0134882
0.0140329
0.0132263
0.0153069
0.0135476
0.0149621
0.0138601
0.0137894
0.0151202
0.0151019
0.0150405
0.0147774
0.0134398
0.0146607
0.0151485
0.0137885
0.0151475
0.0146305
0.0152631
0.0131243
0.0147285
0.0141246
0.0146988
0.0142553
0.0142434
0.0142592
0.0141614
0.0144014
0.0144144
0.0146002
0.014296
0.0151859
0.0137858
0.0143867
0.0144804
0.0148099
0.0151915
0.013791
0.0148457
0.0136672
0.014282
0.0150134
0.0150239
0.0144565
0.0147323
0.0148083
0.0141129
0.014388
0.0143939
0.0134956
0.0134178
0.014722
0.0148911
0.0138875
0.014339
0.0149085
0.0136797
0.0146084
0.0137929
0.0147926
0.0151233
0.0144728
0.0135391
0.0149188
0.013424
0.0147067
0.0151933
0.0130491
0.0153612
0.0137598
0.0142721
0.0142382
0.0135403
0.0142392
0.0140747
0.013272
0.0151028
0.0150829
0.0129219
0.0142348
0.0146057
0.014623
0.0147122
0.0152305
0.0149984
0.0141511
0.0139971
0.0133486
0.0131668
0.012503
0.0151618
0.0147031
0.0147576
0.0147995
0.0135386
0.0134773
0.0143245
0.0150394
0.0132579
0.0147662
0.0143915
0.0145023
0.0146956
0.0140338
0.0147897
0.0142162
0.0145281
0.0151854
0.0128219
0.0144797
0.014746
0.0149577
0.0147104
0.014933
0.0145746
0.0136029
0.0152293
0.0155412
0.0144544
0.0144058
0.0137247
0.0142583
0.0147473
0.0150181
0.0144015
0.0143177
0.0141871
0.0133085
0.0142341
0.0151082
0.0144661
0.015364
0.0145432
0.0144267
0.0151733
0.0136291
0.0148629
0.01352
0.0151685
0.0147896
0.014234
0.0154018
0.0141751
0.0145021
0.0151678
0.0143392
0.0149599
0.0144588
0.0148416
0.0135945
0.0144558
0.0143629
0.0138863
0.014879
0.0141109
0.0141008
0.0151423
0.0136833
0.0150614
0.0144023
0.0150115
0.0141296
0.014666
0.0136502
0.013745
0.0151406
0.0136756
0.0143764
0.0149023
0.0133808
0.0144282
0.0148765
0.0142077
0.0135901
0.0140954
0.0144131
0.0142421
0.0147708
0.0144832
0.0149754
0.014343
0.0149897
0.0131758
0.0135862
0.0151526
0.0141934
0.0133697
0.013616
0.0145288
0.012064
0.0134391
0.0144423
0.0143865
0.0152259
0.013854
0.0149372
0.0150214
0.01513
0.0149557
0.0151574
0.0142698
0.0140458
0.014882
0.0142418
0.0140826
0.0149312
0.0142946
0.0132047
0.0134526
0.0143656
0.0126068
0.0148413
0.0148441
0.0140985
0.0148808
0.0149323
0.0146628
0.0154179
0.0141764
0.0134972
0.0141843
0.0143352
0.0148348
0.0140937
0.0146403
0.0151296
0.0143537
0.0141667
0.0144993
0.0152217
0.0148933
0.0154632
0.0150432
0.0145136
0.0146698
0.0138946
0.0142116
0.0151729
0.0140324
0.0151646
0.0140847
0.0148749
0.0129412
0.0147903
0.0143997
0.0147381
0.014031
0.0147762
0.0143715
0.014885
0.0129707
0.0139918
0.0144135
0.0142159
0.0145723
0.0144957
0.0145
0.0150358
0.0146363
0.0133747
0.0140486
0.0135531
0.0145836
0.0144599
0.013634
0.0154071
0.0145354
0.0145393
0.0149667
0.0139635
0.0136889
0.0151066
0.0136509
0.0133682
0.013301
0.013322
0.0132156
0.0141776
0.0151535
0.0149512
0.0144147
0.0145369
0.0148286
0.0141888
0.0148141
0.0133445
0.0149908
0.0107707
0.0148369
0.01345
0.0133941
0.0148755
0.0134764
0.0146127
0.0147913
0.0149103
0.0138383
0.0146114
0.014363
0.0143982
0.0135486
0.0149056
0.0146505
0.0149733
0.0145766
0.013612
0.0145808
0.0143777
0.014227
0.0133166
0.0139115
0.0138205
0.0133053
0.0134725
0.0144261
0.0141828
0.0136031
0.0141775
0.0149958
0.0150014
0.0151772
0.0108099
0.0134178
0.0150071
0.0135264
0.0148577
0.013309
0.0151061
0.0148916
0.0149187
0.0135971
0.0144536
0.0151202
0.0151006
0.0147152
0.0150109
0.014446
0.0145858
0.0143652
0.0134765
0.0146208
0.0141541
0.014172
0.0142037
0.0134085
0.0143671
0.0149948
0.0139144
0.0140132
0.0134929
0.0147824
0.0147546
0.0132149
0.0143369
0.0144309
0.0147677
0.0136064
0.0145045
0.0145849
0.01546
0.011998
0.014578
0.0143035
0.0134161
0.0150265
0.013883
0.0137799
0.0147236
0.0151261
0.0133782
0.0150242
0.0146429
0.0135305
0.0133768
0.0150052
0.0150899
0.013468
0.014496
0.013317
0.0139665
0.0151444
0.0140728
0.0147241
0.0147611
0.0151715
0.0141724
0.0141953
0.0140074
0.0144259
0.0146213
0.0140989
0.0149073
0.0135956
0.0136101
0.0146012
0.0143942
0.0147929
0.0141615
0.0148425
0.0148247
0.0145308
0.0150088
0.014774
0.0142701
0.0138647
0.0148004
0.01427
0.0140067
0.0146392
0.0151863
0.0148735
0.0143198
0.0134872
0.0146645
0.0139693
0.0133135
0.0140832
0.0144312
0.0132963
0.0147381
0.0138158
0.0127745
0.0133988
0.0147018
0.0126597
0.0142611
0.0148647
0.0146345
0.0134302
0.0146723
0.0154713
0.0136069
0.0132384
0.0137019
0.0148791
0.0143994
0.0142585
0.0149396
0.0134717
0.0148843
0.0144522
0.015133
0.0151505
0.0109664
0.0145026
0.0147984
0.0148915
0.0142296
0.0142702
0.0122914
0.0145106
0.0150832
0.0141376
0.0133476
0.014393
0.0148546
0.0146493
0.0132785
0.0146194
0.0148781
0.0150582
0.0143396
0.0145975
0.0132593
0.0134142
0.013373
0.0144629
0.0142629
0.0147007
0.0152017
0.0149493
0.0129698
0.0149724
0.0149766
0.0147881
0.0142278
0.0149538
0.0138461
0.013745
0.014206
0.014478
0.0139246
0.0131705
0.0147204
0.0141722
0.0148786
0.0138633
0.0127282
0.0140873
0.0148891
0.0146141
0.0137793
0.0140762
0.0149075
0.0149761
0.0140185
0.0142844
0.0148396
0.0151429
0.0147763
0.0151635
0.0147182
0.0146847
0.0132402
0.0144698
0.0136507
0.0149051
0.0145901
0.0140702
0.0134717
0.0151941
0.0132313
0.0141723
0.0134691
0.0142538
0.0128729
0.0144528
0.0143745
0.0144038
0.0143054
0.0139442
0.0149932
0.0135843
0.014781
0.0142053
0.0143085
0.012991
0.0148246
0.0144546
0.013664
0.0139677
0.0144191
0.0143722
0.0145701
0.0120984
0.0145893
0.0142599
0.0143594
0.0139489
0.0140693
0.0140433
0.0122197
0.0149253
0.0144453
0.00893286
0.0137031
0.0148111
0.0148887
0.0147897
0.0137795
0.0121869
0.0149285
0.013633
0.0148611
0.0151617
0.0145576
0.0138189
0.0149837
0.0133406
0.0129376
0.0130518
0.0145984
0.014319
0.0140791
0.0151803
0.0148308
0.0145866
0.0138371
0.013075
0.015268
0.0145359
0.0153119
0.0148563
0.0134914
0.0141374
0.0145029
0.0134834
0.0144009
0.0141648
0.0145198
0.0155611
0.0144071
0.0144317
0.0135203
0.0143116
0.0140486
0.0146894
0.0142668
0.0133457
0.0136954
0.0146063
0.0148059
0.0135169
0.0147193
0.0139338
0.0147517
0.013712
0.0136434
0.0121777
0.0150423
0.0149304
0.0146952
0.0149199
0.0141777
0.0136158
0.0131941
0.0123603
0.0144559
0.0132797
0.0142793
0.0141107
0.0149117
0.0141863
0.0148399
0.0138157
0.00932744
0.0136112
0.0148844
0.00994486
0.0144905
0.0152649
0.0144374
0.0151529
0.0134024
0.0136612
0.013798
0.0151368
0.0119955
0.0151254
0.0136156
0.012573
0.0148691
0.0137006
0.0149731
0.00977693
0.0130328
0.0145503
0.01486
0.0151055
0.0147472
0.0150072
0.0147044
0.0146857
0.0149392
0.0147937
0.0143376
0.0140094
0.0121311
0.0148421
0.0139825
0.0140468
0.0150246
0.0150522
0.0145377
0.0133272
0.0150618
0.0147691
0.014282
0.0135698
0.0133178
0.0147267
0.0150219
0.0149484
0.01494
0.0144544
0.0145211
0.0134186
0.0148597
0.014433
0.0146623
0.0141103
0.0133264
0.0125632
0.0141682
0.015389
0.0147233
0.0143351
0.0137311
0.0141139
0.0137063
0.0134291
0.0148728
0.014081
0.0114262
0.0119078
0.0127803
0.0135215
0.0145949
0.0141819
0.0143639
0.0141097
0.0128537
0.014407
0.0148923
0.012966
0.015373
0.0131666
0.0150138
0.0137283
0.0148989
0.01478
0.0145412
0.0147416
0.0140405
0.0135517
0.0138166
0.0140303
0.0147307
0.0144927
0.0137736
0.0137803
0.0145012
0.0132811
0.0144092
0.0137995
0.0148407
0.0139158
0.014242
0.0115247
0.0149493
0.015162
0.0145047
0.0147906
0.014188
0.0142798
0.0147345
0.0146819
0.0146291
0.0151007
0.0145605
0.0132745
0.0131544
0.0154309
0.0133948
0.0132706
0.0131166
0.0145725
0.0150718
0.0143362
0.0151834
0.0154102
0.0150325
0.0147495
0.0141035
0.0133743
0.0143354
0.0127515
0.0146409
0.0143937
0.0141957
0.0141736
0.0138249
0.014293
0.0151354
0.012911
0.0138583
0.0143331
0.0130286
0.0149147
0.0125121
0.0128571
0.0132567
0.0147142
0.0136809
0.0133572
0.013734
0.0131839
0.0143651
0.0120179
0.0121015
0.0143385
0.013387
0.0129743
0.0143061
0.0134765
0.0139603
0.0142733
0.0138492
0.0133081
0.014414
0.013636
0.0139105
0.013298
0.0140198
0.0140166
0.0124392
0.0149758
0.0142383
0.0143939
0.0138166
0.0135495
0.0132744
0.0142826
0.0142533
0.0149954
0.0144873
0.0147101
0.0140245
0.0144441
0.0148942
0.0147946
0.0118735
0.0121292
0.0130974
0.014833
0.013191
0.014464
0.0118858
0.0139091
0.0144829
0.0139316
0.0141402
0.0139043
0.0139944
0.0140199
0.0151525
0.0136563
0.0139962
0.0151641
0.0130983
0.0140776
0.0134227
0.0147899
0.0137727
0.0132084
0.0142908
0.0133754
0.0121886
0.0125477
0.0134115
0.0138133
0.0124183
0.0150863
0.0137194
0.0130464
0.013989
0.0148565
0.014029
0.0126828
0.0151622
0.0143927
0.0132996
0.0139729
0.0143184
0.0133757
0.0142195
0.0143298
0.0140378
0.0132455
0.0130136
0.0141774
0.0136422
0.0126667
0.0128947
0.012941
0.0142591
0.0130309
0.0148318
0.0142397
0.0141956
0.0138353
0.0148951
0.0133175
0.0143028
0.0138827
0.00970916
0.0149573
0.0127628
0.0142969
0.0147976
0.0149231
0.0122253
0.0146442
0.0150484
0.013489
0.0144117
0.0140619
0.0137235
0.0121804
0.0141869
0.0135424
0.0149226
0.0153078
0.0138036
0.0150146
0.0134412
0.0135233
0.0131157
0.0119529
0.0123879
0.0150268
0.012496
0.0147674
0.0135183
0.0127504
0.0140058
0.0150819
0.0123891
0.0101318
0.0134266
0.0145727
0.0147486
0.014475
0.00933295
0.0139568
0.014633
0.0145512
0.0150959
0.0138543
0.0124978
0.0149255
0.0124768
0.0143112
0.0139248
0.0137321
0.0136821
0.0144196
0.0133997
0.0133257
0.0123796
0.0134331
0.0146102
0.0141251
0.0140841
0.0130074
0.0136828
0.0137466
0.0134355
0.014629
0.0129193
0.0132989
0.0144276
0.0147636
0.0129566
0.0146873
0.0136298
0.0152927
0.0126543
0.0149082
0.0139557
0.0144522
0.0144281
0.0136761
0.0133284
0.0152293
0.0141755
0.014276
0.0140087
0.013163
0.0146259
0.0148447
0.0131289
0.013345
0.013705
0.012724
0.0137082
0.0142723
0.0123456
0.0151098
0.0123949
0.013757
0.0141777
0.0125233
0.0136399
0.0139691
0.0133211
0.014054
0.013319
0.014249
0.0126665
0.0145294
0.0127123
0.0137158
0.0114292
0.0140821
0.0128836
0.0131902
0.0145091
0.0130889
0.0135361
0.0151707
0.0144119
0.014439
0.0148337
0.0125473
0.0141858
0.0136225
0.0142054
0.0143013
0.0138115
0.0149575
0.0144545
0.0131395
0.0130368
0.0145786
0.014115
0.0141711
0.0122052
0.0148398
0.0152193
0.0146647
0.014096
0.0132798
0.0134924
0.0138709
0.0130048
0.0132741
0.0145126
0.0138949
0.0136175
0.0138511
0.0137723
0.0140141
0.0127015
0.0135707
0.0131666
0.012275
0.0149935
0.0139863
0.0133128
0.0148202
0.0139809
0.0138307
0.014323
0.0123816
0.013126
0.0128089
0.0128293
0.0151621
0.0143807
0.0120427
0.0148696
0.0125802
0.0140107
0.0142849
0.0139293
0.0147052
0.0137445
0.0141287
0.013821
0.0136694
0.013603
0.0146561
0.0127392
0.0130859
0.0136897
0.0123407
0.0136786
0.0124213
0.0134648
0.0148372
0.0142065
0.0119762
0.0120574
0.0131268
0.0128363
0.0135313
0.0132159
0.0137993
0.0144213
0.0120159
0.0143662
0.0140254
0.0136369
0.0126723
0.0139384
0.0125273
0.011621
0.0132834
0.0129718
0.0131058
0.0135832
0.0135072
0.0137861
0.0129488
0.0145484
0.0130239
0.013864
0.0132388
0.0139613
0.0135918
0.0127243
0.0142326
0.0137947
0.0121931
0.0131821
0.0136851
0.0151281
0.0149462