/*--------------------------------*- C++ -*----------------------------------*\
| =========                 |                                                 |
| \\      /  F ield         | OpenFOAM: The Open Source CFD Toolbox           |
|  \\    /   O peration     | Version:  2212                                  |
|   \\  /    A nd           | Website:  www.openfoam.com                      |
|    \\/     M anipulation  |                                                 |
\*---------------------------------------------------------------------------*/
FoamFile
{
    version     2.0;
    format      ascii;
    arch        "LSB;label=32;scalar=64";
    class       volScalarField;
    location    "0.042";
    object      nut;
}
// * * * * * * * * * * * * * * * * * * * * * * * * * * * * * * * * * * * * * //

dimensions      [0 2 -1 0 0 0 0];

internalField   nonuniform List<scalar> 
31639
(
4.27847e-05
4.11321e-05
4.20484e-05
4.56425e-05
4.11766e-05
4.01118e-05
3.93832e-05
4.31783e-05
4.23463e-05
4.43579e-05
4.4003e-05
4.4159e-05
4.19471e-05
4.4984e-05
4.01378e-05
3.801e-05
4.30372e-05
4.00372e-05
3.80133e-05
4.14581e-05
3.28299e-05
4.4395e-05
4.5028e-05
3.82279e-05
3.73584e-05
4.18649e-05
4.13926e-05
3.60466e-05
3.95579e-05
4.51915e-05
4.44548e-05
3.90294e-05
4.50544e-05
3.74665e-05
3.47029e-05
4.49999e-05
3.1253e-05
4.60813e-05
4.46948e-05
3.00311e-05
3.46981e-05
3.43572e-05
4.40878e-05
4.41632e-05
4.40088e-05
4.44695e-05
4.01147e-05
4.0114e-05
4.30422e-05
4.53309e-05
4.4272e-05
3.09404e-05
4.54367e-05
3.21933e-05
3.93549e-05
4.22357e-05
3.31276e-05
4.16158e-05
4.10036e-05
3.31785e-05
4.15983e-05
4.37405e-05
3.73029e-05
4.11097e-05
4.24222e-05
4.55096e-05
4.1579e-05
4.16233e-05
3.5892e-05
4.52687e-05
4.46895e-05
3.82963e-05
4.36539e-05
4.16508e-05
4.48484e-05
3.45819e-05
4.42086e-05
4.00741e-05
4.02426e-05
4.35118e-05
3.75062e-05
2.96998e-05
4.4885e-05
4.24979e-05
4.2829e-05
4.42072e-05
4.51631e-05
4.47567e-05
3.56689e-05
4.56499e-05
4.21375e-05
4.175e-05
3.38315e-05
4.05611e-05
3.6486e-05
4.043e-05
4.05137e-05
4.1562e-05
4.19488e-05
3.34923e-05
4.5219e-05
4.41886e-05
4.05519e-05
3.26752e-05
3.34692e-05
4.46714e-05
3.25956e-05
3.15548e-05
3.65553e-05
3.23313e-05
4.35737e-05
3.38037e-05
4.05456e-05
3.8937e-05
4.17184e-05
3.22217e-05
4.01591e-05
4.03695e-05
4.35897e-05
4.0914e-05
4.36068e-05
4.39943e-05
4.37645e-05
4.22857e-05
4.16398e-05
4.47415e-05
4.14051e-05
3.70077e-05
3.60632e-05
4.38313e-05
4.44544e-05
4.40347e-05
4.44363e-05
3.94804e-05
4.36732e-05
4.1656e-05
3.33954e-05
3.2067e-05
4.38774e-05
4.15447e-05
4.14046e-05
4.41821e-05
4.43872e-05
3.21317e-05
3.08026e-05
4.50867e-05
4.36818e-05
3.41218e-05
3.39899e-05
4.42903e-05
3.66806e-05
4.23326e-05
3.81559e-05
4.32476e-05
3.50368e-05
4.53587e-05
4.12991e-05
3.56083e-05
3.51473e-05
3.80671e-05
4.46609e-05
3.53605e-05
3.67436e-05
3.28611e-05
3.38838e-05
4.04991e-05
3.47191e-05
4.52978e-05
4.4034e-05
3.25447e-05
3.89972e-05
3.93513e-05
3.45453e-05
4.17541e-05
4.56727e-05
4.355e-05
4.21012e-05
4.54133e-05
4.19613e-05
4.17336e-05
4.03476e-05
4.03039e-05
3.96727e-05
3.07157e-05
4.20322e-05
4.58475e-05
4.06435e-05
4.50828e-05
3.38316e-05
3.34565e-05
4.65074e-05
4.37614e-05
4.31257e-05
4.09526e-05
4.16229e-05
3.96298e-05
3.93454e-05
4.37174e-05
3.29768e-05
3.95981e-05
4.47182e-05
4.56114e-05
4.33969e-05
4.34061e-05
4.12356e-05
4.10816e-05
4.05039e-05
3.97636e-05
4.4175e-05
3.07569e-05
4.10229e-05
3.97984e-05
4.27226e-05
4.40613e-05
4.33504e-05
4.49138e-05
3.4832e-05
3.80101e-05
4.41038e-05
4.38886e-05
4.30982e-05
4.05568e-05
3.29064e-05
4.0847e-05
3.3021e-05
4.0376e-05
4.37391e-05
3.79051e-05
3.43237e-05
4.31067e-05
4.26139e-05
4.57887e-05
3.54068e-05
3.33856e-05
4.29354e-05
4.32773e-05
3.33291e-05
4.50358e-05
3.69172e-05
3.26028e-05
4.03774e-05
4.28406e-05
4.11858e-05
3.82721e-05
3.74736e-05
4.32362e-05
4.02626e-05
3.95322e-05
3.44306e-05
4.08919e-05
3.98709e-05
3.46583e-05
3.82485e-05
4.53243e-05
4.40488e-05
3.89817e-05
3.49321e-05
4.35485e-05
4.34725e-05
4.10007e-05
4.5526e-05
4.45521e-05
4.2071e-05
4.46349e-05
4.01827e-05
4.04709e-05
3.22903e-05
3.76827e-05
4.45825e-05
3.98458e-05
4.28884e-05
3.88214e-05
4.14312e-05
4.53689e-05
4.55436e-05
4.20384e-05
3.35489e-05
4.00951e-05
3.6757e-05
4.44205e-05
4.05095e-05
4.49305e-05
4.54163e-05
3.92918e-05
3.43255e-05
3.6642e-05
3.50946e-05
3.2934e-05
4.43227e-05
3.57787e-05
4.43627e-05
4.0628e-05
3.84703e-05
3.53089e-05
4.58674e-05
3.91462e-05
3.84237e-05
4.44667e-05
4.16343e-05
3.70002e-05
4.07791e-05
3.58476e-05
4.13891e-05
4.04845e-05
3.44988e-05
3.95333e-05
3.98596e-05
2.97104e-05
3.16932e-05
4.42252e-05
4.50696e-05
4.33101e-05
3.28555e-05
3.52425e-05
4.35002e-05
3.60065e-05
3.60488e-05
4.48821e-05
4.56414e-05
4.0062e-05
4.43581e-05
4.52601e-05
3.46937e-05
4.48096e-05
3.21389e-05
3.24541e-05
4.46352e-05
4.4108e-05
4.43959e-05
4.53757e-05
4.34452e-05
3.53723e-05
4.105e-05
4.06633e-05
4.47283e-05
4.54944e-05
4.5841e-05
4.05729e-05
3.95275e-05
4.28817e-05
4.36015e-05
4.26545e-05
3.98669e-05
4.06982e-05
4.02195e-05
4.08794e-05
4.30841e-05
4.02841e-05
3.45734e-05
4.24254e-05
4.58172e-05
3.94216e-05
4.46707e-05
4.50281e-05
4.09896e-05
3.45268e-05
4.08738e-05
4.07811e-05
3.27328e-05
4.57261e-05
3.55172e-05
4.20133e-05
4.41731e-05
3.18628e-05
4.12132e-05
4.09249e-05
3.35489e-05
4.17324e-05
3.50818e-05
4.09586e-05
4.51892e-05
4.27976e-05
3.15978e-05
4.23102e-05
3.51921e-05
4.23909e-05
4.43819e-05
4.47753e-05
4.44232e-05
3.54817e-05
4.38417e-05
3.29478e-05
4.02134e-05
3.2414e-05
4.50185e-05
4.39433e-05
4.45961e-05
4.42165e-05
3.69448e-05
4.52868e-05
4.09765e-05
4.28776e-05
4.07026e-05
3.58389e-05
4.09325e-05
4.3257e-05
4.28742e-05
4.34998e-05
4.18786e-05
4.34962e-05
4.04003e-05
3.44931e-05
4.08092e-05
4.31458e-05
4.32551e-05
3.17385e-05
4.46892e-05
4.41868e-05
4.08668e-05
4.276e-05
4.3203e-05
4.15456e-05
4.51752e-05
3.32172e-05
4.25395e-05
4.4626e-05
3.19072e-05
4.14552e-05
4.2481e-05
3.51283e-05
3.33978e-05
3.35049e-05
3.88851e-05
3.31726e-05
4.06871e-05
4.06175e-05
3.86936e-05
4.50279e-05
3.41592e-05
4.40228e-05
4.50195e-05
4.11467e-05
4.37406e-05
3.95949e-05
4.45933e-05
4.09445e-05
4.14729e-05
4.55064e-05
4.10603e-05
3.3759e-05
4.14126e-05
4.47454e-05
4.43082e-05
4.31954e-05
4.51701e-05
4.0074e-05
4.23982e-05
4.38415e-05
4.55021e-05
4.48514e-05
3.47713e-05
4.05342e-05
3.06161e-05
4.02773e-05
4.04264e-05
3.41193e-05
3.26923e-05
3.92201e-05
4.35045e-05
4.40614e-05
3.35135e-05
4.32043e-05
3.81476e-05
4.08717e-05
4.35342e-05
3.13699e-05
4.05363e-05
3.23262e-05
3.99035e-05
4.44135e-05
4.5617e-05
4.36036e-05
4.06987e-05
3.2133e-05
4.30196e-05
4.1498e-05
4.33848e-05
3.287e-05
3.43546e-05
4.0786e-05
3.37209e-05
3.50896e-05
4.21432e-05
3.26193e-05
3.95307e-05
3.31033e-05
4.29782e-05
3.41953e-05
4.53118e-05
4.4086e-05
4.40368e-05
4.47008e-05
3.73075e-05
4.39861e-05
4.45704e-05
4.17477e-05
4.38577e-05
4.15101e-05
4.4068e-05
4.5545e-05
3.8583e-05
4.4484e-05
4.50715e-05
4.09577e-05
3.74235e-05
4.54249e-05
4.13745e-05
3.14033e-05
3.21034e-05
4.12944e-05
4.4758e-05
4.50694e-05
4.0665e-05
4.60001e-05
4.56285e-05
4.34723e-05
4.17129e-05
3.98115e-05
4.03244e-05
3.51267e-05
4.0899e-05
4.244e-05
4.51783e-05
3.6581e-05
3.61815e-05
3.58701e-05
3.95116e-05
4.07078e-05
3.10986e-05
4.30844e-05
3.81728e-05
4.29172e-05
4.09487e-05
4.42398e-05
4.07911e-05
3.4689e-05
4.25715e-05
4.49396e-05
3.63151e-05
4.40129e-05
4.55103e-05
4.08362e-05
4.06584e-05
3.59083e-05
3.60941e-05
4.09847e-05
4.13631e-05
3.50401e-05
3.45331e-05
4.15257e-05
3.70086e-05
4.30171e-05
3.69562e-05
4.01469e-05
4.45036e-05
4.11055e-05
3.30875e-05
3.79692e-05
4.15158e-05
4.49082e-05
3.37336e-05
3.05151e-05
4.41869e-05
3.30929e-05
4.2033e-05
4.57032e-05
3.39841e-05
4.12057e-05
4.44229e-05
4.10238e-05
3.32209e-05
4.43802e-05
4.09228e-05
3.37843e-05
4.4075e-05
4.19516e-05
4.03039e-05
4.33551e-05
3.17399e-05
3.79827e-05
4.15668e-05
3.94485e-05
3.84458e-05
4.09783e-05
4.50266e-05
4.44567e-05
4.30704e-05
4.45428e-05
4.46245e-05
4.37165e-05
3.71859e-05
4.3642e-05
4.48083e-05
4.58019e-05
3.62825e-05
4.15652e-05
4.17443e-05
4.68064e-05
3.5077e-05
3.14544e-05
4.51522e-05
3.60584e-05
4.60901e-05
3.98193e-05
3.46458e-05
4.15275e-05
4.4441e-05
4.16092e-05
4.26288e-05
3.25803e-05
4.3714e-05
4.17475e-05
3.20637e-05
4.49864e-05
4.40458e-05
3.48448e-05
3.44152e-05
3.55068e-05
3.9198e-05
4.19484e-05
4.15824e-05
4.08281e-05
4.14092e-05
4.42468e-05
4.12785e-05
4.08948e-05
3.45785e-05
4.55576e-05
3.27398e-05
4.11377e-05
4.01508e-05
3.88946e-05
4.575e-05
4.11235e-05
3.67224e-05
3.27931e-05
3.41377e-05
4.00662e-05
4.46814e-05
3.60184e-05
4.55166e-05
4.07953e-05
4.41276e-05
3.43617e-05
3.9899e-05
4.34469e-05
4.5659e-05
4.4775e-05
4.37666e-05
4.16155e-05
4.09042e-05
4.53932e-05
4.53118e-05
4.4656e-05
3.68099e-05
4.44182e-05
3.46076e-05
4.49187e-05
4.30844e-05
4.06852e-05
3.5444e-05
4.01442e-05
3.039e-05
4.48051e-05
4.16052e-05
4.5757e-05
4.05949e-05
3.9011e-05
3.41869e-05
4.44668e-05
3.2999e-05
3.10144e-05
3.50703e-05
3.69491e-05
3.45287e-05
4.07931e-05
3.31245e-05
4.37019e-05
4.24263e-05
3.11137e-05
4.53216e-05
3.48709e-05
3.75981e-05
3.99423e-05
3.86963e-05
4.33117e-05
4.50249e-05
4.58423e-05
4.4419e-05
4.05727e-05
4.18377e-05
3.93779e-05
3.96223e-05
3.28602e-05
2.53055e-05
4.50827e-05
4.04871e-05
4.34352e-05
4.42602e-05
3.36669e-05
4.46054e-05
4.48361e-05
4.36297e-05
4.39418e-05
4.35052e-05
4.21836e-05
4.53517e-05
4.56809e-05
4.14716e-05
4.42278e-05
4.41816e-05
3.53966e-05
4.44043e-05
3.8701e-05
4.29676e-05
3.93001e-05
4.08464e-05
3.77089e-05
4.57503e-05
4.0194e-05
4.14895e-05
4.03899e-05
3.5022e-05
4.55228e-05
4.1913e-05
3.88308e-05
3.44127e-05
4.35304e-05
3.24561e-05
4.45614e-05
4.32437e-05
3.91695e-05
4.47645e-05
4.59002e-05
4.46974e-05
3.32738e-05
4.15706e-05
4.04297e-05
4.14968e-05
3.53162e-05
4.39826e-05
4.4378e-05
3.9271e-05
4.12119e-05
3.92451e-05
4.3016e-05
3.88947e-05
4.04479e-05
3.22268e-05
4.38277e-05
4.23624e-05
4.42597e-05
3.7402e-05
4.1255e-05
4.23864e-05
4.10564e-05
3.81211e-05
4.27338e-05
4.38984e-05
4.03071e-05
3.23474e-05
3.22541e-05
4.06073e-05
3.13385e-05
3.46117e-05
4.19311e-05
4.2096e-05
4.42461e-05
3.20736e-05
4.05798e-05
4.49693e-05
3.58203e-05
3.31293e-05
4.19368e-05
3.51569e-05
4.27774e-05
3.61583e-05
4.44693e-05
3.73501e-05
3.8565e-05
4.53564e-05
3.23376e-05
3.97906e-05
4.02397e-05
4.40879e-05
4.49169e-05
4.48604e-05
3.52198e-05
4.33272e-05
4.46064e-05
3.85877e-05
4.53544e-05
4.40518e-05
4.26632e-05
4.44383e-05
4.16176e-05
4.56666e-05
4.57811e-05
4.55747e-05
4.31564e-05
3.89085e-05
4.2236e-05
4.12145e-05
3.33511e-05
4.01796e-05
4.30729e-05
4.44722e-05
4.50497e-05
4.05198e-05
4.53062e-05
4.41883e-05
3.96308e-05
4.39276e-05
4.42639e-05
4.30698e-05
4.36608e-05
3.41495e-05
3.94997e-05
4.39346e-05
3.13684e-05
4.10752e-05
4.05728e-05
4.02873e-05
4.02357e-05
4.54512e-05
4.34925e-05
4.43212e-05
4.04254e-05
4.32501e-05
4.16456e-05
4.45056e-05
4.19171e-05
3.96705e-05
3.47362e-05
4.44354e-05
3.51251e-05
3.98559e-05
4.05519e-05
3.9701e-05
4.20791e-05
4.53156e-05
3.42286e-05
4.49534e-05
3.47666e-05
4.22311e-05
3.94089e-05
4.01653e-05
4.07393e-05
4.51083e-05
3.37712e-05
4.33747e-05
4.44403e-05
4.45579e-05
4.1826e-05
4.13944e-05
3.09522e-05
4.43554e-05
4.4021e-05
4.2777e-05
4.37167e-05
4.43859e-05
4.18089e-05
4.23129e-05
4.16334e-05
3.56185e-05
4.02728e-05
4.52153e-05
3.26498e-05
3.61246e-05
4.65049e-05
4.41481e-05
3.80351e-05
3.9689e-05
4.16992e-05
3.78859e-05
4.06831e-05
3.63911e-05
4.39754e-05
4.48801e-05
3.12105e-05
4.17403e-05
4.48897e-05
4.38716e-05
4.54078e-05
4.03087e-05
4.43375e-05
3.55611e-05
3.53072e-05
4.51931e-05
4.42373e-05
4.11922e-05
3.57236e-05
4.38476e-05
4.42324e-05
3.69589e-05
4.48887e-05
4.45724e-05
4.4761e-05
4.27464e-05
4.41677e-05
4.17743e-05
4.22571e-05
4.0594e-05
3.84969e-05
3.35255e-05
4.19908e-05
4.17632e-05
3.55278e-05
4.48205e-05
3.28493e-05
3.98298e-05
4.05534e-05
3.46265e-05
4.04354e-05
3.88311e-05
4.27436e-05
4.13417e-05
4.38826e-05
3.40895e-05
3.41853e-05
3.98618e-05
3.39e-05
3.91512e-05
4.43978e-05
4.05271e-05
4.45907e-05
4.11194e-05
4.07249e-05
4.47776e-05
3.89768e-05
4.14167e-05
4.07972e-05
4.06049e-05
4.2253e-05
3.56052e-05
4.14491e-05
4.3746e-05
4.50699e-05
4.57164e-05
3.41044e-05
3.36235e-05
4.11471e-05
4.45701e-05
3.61934e-05
3.977e-05
4.27172e-05
4.09694e-05
4.65964e-05
4.0323e-05
4.00863e-05
4.32839e-05
3.406e-05
4.44694e-05
4.50185e-05
3.50345e-05
3.77227e-05
4.08666e-05
3.89203e-05
4.52677e-05
4.49373e-05
4.25879e-05
3.55309e-05
4.41038e-05
3.39783e-05
4.00656e-05
4.41711e-05
3.83407e-05
4.6141e-05
3.24156e-05
4.11716e-05
4.26067e-05
4.15343e-05
3.261e-05
3.32985e-05
4.44597e-05
4.51356e-05
3.91677e-05
4.52707e-05
4.25521e-05
4.09758e-05
3.40417e-05
3.65534e-05
4.2279e-05
4.08904e-05
4.10007e-05
4.547e-05
4.48887e-05
4.5985e-05
4.52358e-05
4.22954e-05
4.21046e-05
4.35814e-05
3.47259e-05
4.41477e-05
4.32028e-05
4.19169e-05
4.20963e-05
4.49991e-05
4.01506e-05
4.52213e-05
4.02978e-05
3.14127e-05
4.57301e-05
3.77612e-05
4.44931e-05
3.88206e-05
4.45102e-05
3.52541e-05
4.32952e-05
4.63767e-05
4.07576e-05
4.13435e-05
3.31128e-05
4.39644e-05
4.45867e-05
4.28148e-05
3.38687e-05
4.68763e-05
4.09144e-05
4.27513e-05
4.45856e-05
4.45581e-05
4.38648e-05
4.07498e-05
4.06739e-05
4.58802e-05
3.51752e-05
3.5652e-05
3.47827e-05
3.6907e-05
4.21637e-05
3.31697e-05
4.52974e-05
4.458e-05
4.55496e-05
4.01909e-05
4.04808e-05
4.14972e-05
4.4383e-05
4.14792e-05
4.1315e-05
4.47872e-05
4.46525e-05
4.05954e-05
4.45806e-05
4.18848e-05
4.00494e-05
4.30928e-05
3.86251e-05
4.53011e-05
4.50719e-05
4.57342e-05
4.57117e-05
4.44642e-05
3.80828e-05
4.61322e-05
4.16945e-05
4.18881e-05
4.02236e-05
4.24204e-05
4.55863e-05
4.11881e-05
4.40204e-05
3.94743e-05
4.11499e-05
4.30687e-05
3.5779e-05
3.3248e-05
4.05841e-05
3.95956e-05
4.50233e-05
3.84585e-05
3.31743e-05
4.20671e-05
4.42032e-05
3.69368e-05
3.86042e-05
4.16515e-05
4.53944e-05
4.46725e-05
4.01535e-05
3.73046e-05
4.13216e-05
4.36251e-05
3.91347e-05
4.14929e-05
4.15342e-05
3.28631e-05
3.8853e-05
3.89314e-05
4.30333e-05
4.4197e-05
4.12381e-05
4.46735e-05
4.32491e-05
4.11568e-05
4.17081e-05
3.50201e-05
3.67994e-05
3.2637e-05
4.44571e-05
4.22562e-05
4.54039e-05
4.76083e-05
4.34576e-05
3.34226e-05
4.39174e-05
3.9303e-05
4.27038e-05
4.27152e-05
4.41057e-05
3.3434e-05
4.55302e-05
3.46434e-05
4.17238e-05
4.16624e-05
4.08179e-05
4.63155e-05
4.02838e-05
4.33557e-05
3.59124e-05
4.04891e-05
4.09598e-05
4.40836e-05
3.80152e-05
3.64449e-05
4.3629e-05
4.41819e-05
4.28379e-05
4.35057e-05
4.50569e-05
3.49937e-05
4.04182e-05
4.02066e-05
3.6931e-05
4.39666e-05
4.53855e-05
4.5476e-05
4.44485e-05
4.59473e-05
3.50978e-05
3.44795e-05
3.52886e-05
4.5444e-05
3.33192e-05
4.40932e-05
4.2628e-05
3.47145e-05
3.91055e-05
4.40069e-05
4.48016e-05
3.75824e-05
3.86806e-05
3.97159e-05
4.18503e-05
4.52296e-05
4.1388e-05
3.51203e-05
4.16152e-05
4.56855e-05
4.43507e-05
4.57111e-05
4.52802e-05
4.71138e-05
4.54839e-05
4.41389e-05
3.55567e-05
3.33484e-05
4.16109e-05
3.79856e-05
4.49903e-05
3.40672e-05
4.23981e-05
4.06321e-05
4.5698e-05
3.58169e-05
4.30498e-05
4.3777e-05
4.23508e-05
3.95871e-05
3.45435e-05
4.43621e-05
3.83173e-05
4.5593e-05
4.11732e-05
4.63745e-05
4.56059e-05
4.17844e-05
3.32436e-05
3.41906e-05
4.06163e-05
4.22724e-05
3.83349e-05
4.6546e-05
3.47922e-05
4.506e-05
4.35933e-05
3.89168e-05
4.31054e-05
4.43684e-05
4.4984e-05
4.527e-05
4.51902e-05
4.20377e-05
4.26975e-05
3.31834e-05
3.86363e-05
4.54584e-05
3.55605e-05
4.31737e-05
4.04928e-05
3.56794e-05
4.108e-05
4.29235e-05
4.08793e-05
4.33966e-05
4.42324e-05
3.48385e-05
4.0528e-05
4.17505e-05
3.45688e-05
3.86524e-05
4.08653e-05
4.02818e-05
4.3318e-05
3.49801e-05
3.47543e-05
4.0942e-05
3.95224e-05
4.5602e-05
4.63298e-05
4.5295e-05
3.98582e-05
4.02238e-05
4.20828e-05
3.94518e-05
4.44611e-05
3.48712e-05
4.15195e-05
4.05898e-05
4.56834e-05
4.35636e-05
4.04298e-05
4.15173e-05
4.46655e-05
3.45757e-05
4.186e-05
4.528e-05
3.94266e-05
2.95218e-05
4.11748e-05
3.46208e-05
4.22954e-05
3.23166e-05
4.51368e-05
4.58797e-05
4.48143e-05
4.20651e-05
3.50239e-05
3.43564e-05
4.43502e-05
4.53189e-05
4.47231e-05
4.19767e-05
4.12482e-05
4.35629e-05
4.54441e-05
4.45302e-05
3.31414e-05
4.02508e-05
4.28628e-05
4.30742e-05
3.93339e-05
4.27362e-05
3.29862e-05
4.53399e-05
4.44998e-05
4.19839e-05
4.21341e-05
4.32103e-05
4.1277e-05
4.57025e-05
4.32903e-05
3.54232e-05
4.07981e-05
4.37226e-05
4.0444e-05
4.15903e-05
4.27687e-05
3.24637e-05
3.59736e-05
4.51118e-05
4.56055e-05
4.4418e-05
4.56396e-05
4.32918e-05
4.47615e-05
4.25363e-05
4.1835e-05
4.30635e-05
4.47007e-05
3.88628e-05
4.06277e-05
3.94283e-05
4.13112e-05
4.43727e-05
3.2139e-05
4.19775e-05
3.32459e-05
4.44889e-05
3.33851e-05
3.36275e-05
4.07644e-05
3.22633e-05
4.10049e-05
4.25679e-05
4.45381e-05
4.46813e-05
3.84467e-05
3.85181e-05
4.63718e-05
3.74799e-05
3.51237e-05
4.04961e-05
3.757e-05
4.52008e-05
4.30473e-05
4.20594e-05
3.46573e-05
4.41097e-05
4.44212e-05
4.53056e-05
3.38659e-05
3.70008e-05
4.1736e-05
4.36892e-05
4.60737e-05
3.54209e-05
3.38832e-05
4.35399e-05
4.14749e-05
4.5605e-05
4.16153e-05
3.22171e-05
4.2867e-05
4.42393e-05
3.41907e-05
3.24403e-05
4.47879e-05
3.60563e-05
3.58909e-05
4.50682e-05
4.56281e-05
4.38387e-05
4.6659e-05
4.11241e-05
3.95288e-05
4.49625e-05
3.77651e-05
4.51441e-05
3.86501e-05
4.26247e-05
4.45163e-05
4.06731e-05
3.42005e-05
4.4239e-05
4.46795e-05
3.95723e-05
4.10074e-05
4.15195e-05
3.70989e-05
3.92307e-05
4.20349e-05
4.21473e-05
4.49361e-05
3.9128e-05
4.35426e-05
3.3681e-05
4.37794e-05
4.58174e-05
3.28272e-05
4.42095e-05
4.19296e-05
3.07339e-05
3.41049e-05
4.18138e-05
4.12699e-05
4.41012e-05
3.9279e-05
3.53614e-05
4.43747e-05
4.54765e-05
4.50006e-05
4.27917e-05
4.53959e-05
3.404e-05
4.50053e-05
4.12644e-05
3.4448e-05
3.45454e-05
2.98218e-05
3.51902e-05
4.32224e-05
3.96299e-05
4.25481e-05
4.15822e-05
3.69285e-05
3.80893e-05
3.23647e-05
3.22186e-05
4.63692e-05
4.58437e-05
3.53449e-05
4.51794e-05
4.43348e-05
3.51003e-05
4.08151e-05
4.15877e-05
3.68585e-05
3.91415e-05
4.54483e-05
3.61989e-05
3.19519e-05
4.5378e-05
4.5719e-05
3.8055e-05
4.51228e-05
3.92544e-05
3.65932e-05
3.5024e-05
4.08313e-05
3.38805e-05
3.44976e-05
4.21046e-05
4.31689e-05
4.05325e-05
4.44784e-05
4.5069e-05
4.08852e-05
4.49216e-05
2.60274e-05
4.07539e-05
3.42211e-05
4.15906e-05
4.47541e-05
4.08845e-05
3.81561e-05
4.07902e-05
3.54701e-05
4.27e-05
4.09699e-05
3.84823e-05
3.4054e-05
3.19175e-05
3.13594e-05
3.93113e-05
3.44129e-05
4.0679e-05
3.482e-05
3.96536e-05
4.498e-05
4.23922e-05
3.97455e-05
4.18115e-05
4.30938e-05
4.09262e-05
4.40266e-05
3.29505e-05
4.18499e-05
4.53573e-05
4.54686e-05
4.03226e-05
4.66213e-05
3.66896e-05
4.3421e-05
4.05756e-05
3.35679e-05
4.38918e-05
4.54927e-05
4.3195e-05
4.35732e-05
4.44803e-05
4.22312e-05
3.15845e-05
3.26016e-05
4.02954e-05
4.58529e-05
4.17471e-05
4.45931e-05
3.85151e-05
3.97351e-05
3.61926e-05
3.34583e-05
3.35051e-05
3.30913e-05
4.34548e-05
4.21989e-05
4.51613e-05
3.98361e-05
3.91089e-05
4.62235e-05
3.34202e-05
4.15444e-05
4.53807e-05
4.47637e-05
3.87531e-05
4.00356e-05
4.38299e-05
4.53193e-05
4.494e-05
3.46853e-05
4.18e-05
4.40361e-05
4.26065e-05
4.1591e-05
4.60757e-05
4.3866e-05
4.51853e-05
4.23613e-05
3.77087e-05
4.19194e-05
4.48065e-05
4.34303e-05
4.1117e-05
3.39978e-05
4.48895e-05
4.45257e-05
4.43504e-05
4.42138e-05
3.31739e-05
3.05598e-05
4.04085e-05
4.35414e-05
3.98806e-05
4.24972e-05
4.39847e-05
4.4284e-05
4.44878e-05
3.90053e-05
4.35783e-05
4.12854e-05
4.4344e-05
3.42626e-05
3.41448e-05
3.97592e-05
4.51036e-05
3.51868e-05
4.43292e-05
3.44993e-05
4.02604e-05
4.13577e-05
4.54348e-05
4.02634e-05
4.4743e-05
4.47582e-05
4.40213e-05
4.21487e-05
4.3687e-05
4.15296e-05
3.8858e-05
3.19279e-05
4.58475e-05
2.97017e-05
3.28916e-05
3.56305e-05
3.25642e-05
3.272e-05
4.00529e-05
4.19446e-05
3.47759e-05
3.8652e-05
3.0375e-05
3.52282e-05
3.9696e-05
4.49397e-05
3.30184e-05
3.36741e-05
4.40892e-05
3.3086e-05
4.02984e-05
4.33809e-05
4.25186e-05
4.09972e-05
3.46149e-05
3.28338e-05
3.91059e-05
4.57022e-05
3.66078e-05
3.39024e-05
4.21608e-05
3.85428e-05
4.20606e-05
4.10466e-05
3.46654e-05
4.49307e-05
3.209e-05
3.338e-05
3.98273e-05
4.4566e-05
3.85965e-05
4.0001e-05
4.03094e-05
4.17488e-05
3.15672e-05
3.57201e-05
3.99999e-05
4.52908e-05
4.34769e-05
3.31546e-05
3.08469e-05
4.00322e-05
4.60146e-05
4.0805e-05
4.11222e-05
3.8393e-05
4.03267e-05
4.11229e-05
3.41358e-05
4.51927e-05
3.82632e-05
3.39626e-05
3.07553e-05
4.37306e-05
4.13568e-05
4.52847e-05
4.20401e-05
4.42718e-05
3.40841e-05
3.98563e-05
3.19197e-05
3.02625e-05
4.39512e-05
3.49827e-05
4.00039e-05
4.1463e-05
4.25927e-05
3.39835e-05
4.5332e-05
4.4196e-05
4.54806e-05
4.2524e-05
2.86155e-05
4.11662e-05
3.22472e-05
4.53202e-05
3.44398e-05
4.50334e-05
3.06145e-05
4.25094e-05
4.29757e-05
3.82526e-05
3.90476e-05
3.14454e-05
3.75674e-05
4.12312e-05
4.40072e-05
4.29837e-05
4.51312e-05
4.46142e-05
3.42036e-05
4.53206e-05
3.95863e-05
4.21497e-05
4.27185e-05
4.44991e-05
4.40203e-05
4.12168e-05
4.54372e-05
4.01051e-05
3.82656e-05
3.81347e-05
4.21897e-05
4.45555e-05
3.77762e-05
3.56009e-05
4.47678e-05
4.26561e-05
4.07817e-05
4.63417e-05
4.25327e-05
4.2153e-05
4.32142e-05
4.45673e-05
4.45584e-05
4.10358e-05
3.98304e-05
4.43912e-05
4.34319e-05
3.63914e-05
4.10531e-05
3.7263e-05
4.53097e-05
4.21926e-05
4.48068e-05
3.44275e-05
3.44753e-05
4.16118e-05
4.37704e-05
4.38946e-05
4.53101e-05
4.44403e-05
4.15373e-05
4.33018e-05
3.49608e-05
4.11969e-05
4.11312e-05
4.49117e-05
4.47e-05
4.50306e-05
4.06181e-05
4.54455e-05
3.59626e-05
4.51486e-05
3.74745e-05
4.03941e-05
3.9363e-05
4.16008e-05
4.03591e-05
4.36482e-05
3.35144e-05
4.45735e-05
4.41308e-05
4.02985e-05
3.46323e-05
4.53826e-05
4.3334e-05
4.45396e-05
4.07751e-05
4.145e-05
4.37955e-05
3.37204e-05
4.5127e-05
4.0264e-05
4.17423e-05
3.70801e-05
3.77594e-05
3.71614e-05
3.33279e-05
3.87574e-05
4.60537e-05
4.1798e-05
3.22433e-05
4.19978e-05
3.31696e-05
4.20622e-05
4.23291e-05
3.19204e-05
3.31823e-05
3.78924e-05
4.17272e-05
4.38274e-05
3.89238e-05
4.37563e-05
4.04388e-05
3.76054e-05
3.8279e-05
4.52307e-05
4.49089e-05
4.47464e-05
4.36552e-05
4.27151e-05
3.39631e-05
3.4958e-05
4.5505e-05
3.96967e-05
4.16482e-05
4.38457e-05
4.61338e-05
4.1731e-05
4.29571e-05
3.19808e-05
4.40105e-05
4.46085e-05
3.8728e-05
4.52105e-05
4.47334e-05
4.24188e-05
3.90055e-05
4.33131e-05
3.91406e-05
3.17787e-05
4.17152e-05
3.50323e-05
3.33084e-05
4.17564e-05
4.13378e-05
4.3837e-05
4.37906e-05
4.20882e-05
4.51698e-05
3.04824e-05
3.87902e-05
4.53705e-05
4.5171e-05
3.23614e-05
4.16331e-05
3.58593e-05
3.90302e-05
4.51761e-05
3.81193e-05
4.28085e-05
4.60041e-05
4.33015e-05
3.18627e-05
4.39641e-05
3.41015e-05
4.48241e-05
4.35569e-05
4.25172e-05
4.49143e-05
4.20672e-05
4.47288e-05
3.41106e-05
4.4655e-05
4.51186e-05
3.55013e-05
4.26893e-05
4.11855e-05
3.9398e-05
4.40601e-05
3.99709e-05
4.43965e-05
4.53566e-05
4.56761e-05
4.10261e-05
4.48707e-05
4.13314e-05
4.35416e-05
3.64063e-05
3.86631e-05
3.34419e-05
3.28122e-05
4.22667e-05
4.30236e-05
4.11067e-05
4.53048e-05
4.00528e-05
4.53478e-05
3.24693e-05
4.56551e-05
4.5679e-05
4.30992e-05
4.54683e-05
3.6084e-05
3.19864e-05
4.07024e-05
3.33244e-05
4.46622e-05
4.1456e-05
3.201e-05
3.99983e-05
4.58022e-05
4.28395e-05
3.34062e-05
3.70053e-05
3.17395e-05
4.62055e-05
3.32114e-05
4.4186e-05
3.82578e-05
3.42568e-05
4.48722e-05
4.50697e-05
4.49727e-05
4.37298e-05
3.3979e-05
4.25958e-05
4.52294e-05
3.54961e-05
4.50326e-05
4.24516e-05
4.53491e-05
3.20143e-05
4.37358e-05
3.88539e-05
4.2792e-05
3.88006e-05
4.04438e-05
3.92812e-05
3.8482e-05
3.94637e-05
3.99283e-05
4.33245e-05
4.0722e-05
4.56369e-05
3.55757e-05
4.07696e-05
4.1428e-05
4.37626e-05
4.52295e-05
3.38595e-05
4.42009e-05
3.50165e-05
4.05777e-05
4.49921e-05
4.49492e-05
3.98853e-05
4.25655e-05
4.32392e-05
3.89485e-05
4.12352e-05
4.0155e-05
3.34889e-05
3.34085e-05
4.2574e-05
4.4102e-05
4.09047e-05
3.92289e-05
4.41653e-05
3.46135e-05
4.21942e-05
3.46389e-05
4.32606e-05
4.53569e-05
4.14608e-05
3.36563e-05
4.4203e-05
3.32031e-05
4.25037e-05
4.49401e-05
3.21907e-05
4.60401e-05
3.54026e-05
3.88486e-05
3.97447e-05
3.37082e-05
3.85234e-05
3.9303e-05
3.14656e-05
4.44678e-05
4.50407e-05
2.99328e-05
3.85445e-05
4.33013e-05
4.1462e-05
4.2376e-05
4.59341e-05
4.43739e-05
4.03265e-05
3.73276e-05
3.24995e-05
3.13496e-05
3.67873e-05
4.56908e-05
4.41475e-05
4.32945e-05
4.33692e-05
3.40294e-05
3.37813e-05
4.06586e-05
4.42566e-05
3.19349e-05
4.30121e-05
4.12443e-05
4.00039e-05
4.33394e-05
3.89639e-05
4.38779e-05
3.75417e-05
4.07898e-05
4.54633e-05
2.92571e-05
4.21852e-05
4.43519e-05
4.44458e-05
4.31348e-05
4.42393e-05
4.17592e-05
3.37535e-05
4.57765e-05
4.68523e-05
4.14445e-05
4.14041e-05
3.87421e-05
4.09211e-05
4.31014e-05
4.38325e-05
4.14544e-05
4.04311e-05
4.01791e-05
3.26418e-05
3.91755e-05
4.54398e-05
4.29869e-05
4.66729e-05
4.15512e-05
4.03749e-05
4.54818e-05
3.41325e-05
4.38114e-05
3.37859e-05
4.51692e-05
4.30751e-05
3.91754e-05
4.63835e-05
3.86827e-05
4.07326e-05
4.54742e-05
3.97678e-05
4.54658e-05
4.37216e-05
4.36816e-05
3.36022e-05
4.12081e-05
4.08428e-05
3.6381e-05
4.41941e-05
3.97478e-05
3.98101e-05
4.54167e-05
3.41561e-05
4.50676e-05
4.12949e-05
4.48156e-05
3.87844e-05
4.21477e-05
3.37833e-05
3.49724e-05
4.60569e-05
3.43931e-05
4.10624e-05
4.38795e-05
3.33434e-05
4.03445e-05
4.42478e-05
3.84232e-05
3.48381e-05
3.74833e-05
3.97702e-05
3.95073e-05
4.39441e-05
4.0077e-05
4.45809e-05
4.20635e-05
4.44006e-05
3.16357e-05
3.66097e-05
4.53732e-05
4.04864e-05
3.30099e-05
3.50063e-05
4.11475e-05
3.47568e-05
3.36786e-05
4.13177e-05
4.05759e-05
4.58803e-05
3.94397e-05
4.43225e-05
4.44615e-05
4.41772e-05
4.44077e-05
4.44654e-05
3.93543e-05
3.83841e-05
4.42594e-05
4.04321e-05
3.93422e-05
4.49239e-05
4.10402e-05
3.26178e-05
3.31188e-05
4.02368e-05
3.56583e-05
4.30212e-05
4.39888e-05
3.95977e-05
4.44727e-05
4.41417e-05
4.3699e-05
4.65637e-05
4.03755e-05
3.3875e-05
3.94071e-05
3.96029e-05
4.40689e-05
3.96693e-05
4.31786e-05
4.5074e-05
4.00967e-05
3.87208e-05
4.16707e-05
4.52226e-05
4.33738e-05
4.71246e-05
4.3938e-05
3.99511e-05
4.08544e-05
3.57143e-05
3.88339e-05
4.52695e-05
3.63214e-05
4.55858e-05
3.91764e-05
4.42118e-05
3.33489e-05
4.33216e-05
4.12923e-05
4.40625e-05
4.06443e-05
4.27952e-05
4.08764e-05
4.44033e-05
3.25056e-05
3.54814e-05
4.13453e-05
3.88267e-05
4.20362e-05
4.13072e-05
4.15041e-05
4.49764e-05
4.19075e-05
3.23896e-05
3.75484e-05
3.36421e-05
4.19228e-05
4.09578e-05
3.44449e-05
4.67284e-05
4.13236e-05
4.04693e-05
4.3888e-05
3.68406e-05
3.47881e-05
4.55013e-05
3.47541e-05
3.31058e-05
4.02336e-05
3.93006e-05
3.49697e-05
3.7711e-05
4.52751e-05
4.43657e-05
3.9133e-05
4.18748e-05
4.40757e-05
4.10468e-05
4.36974e-05
3.25651e-05
4.47268e-05
2.6689e-05
4.41121e-05
3.40741e-05
3.35192e-05
4.44093e-05
3.31443e-05
4.06298e-05
4.23019e-05
4.42157e-05
3.85554e-05
4.29097e-05
3.96967e-05
4.08064e-05
3.90235e-05
4.33069e-05
4.20777e-05
4.45531e-05
4.13647e-05
3.44498e-05
4.33067e-05
4.0858e-05
4.03364e-05
4.0917e-05
3.58708e-05
3.79936e-05
3.24192e-05
3.35034e-05
4.12194e-05
3.98445e-05
3.53506e-05
3.87125e-05
4.41687e-05
4.52241e-05
4.49944e-05
2.58919e-05
3.24878e-05
4.49494e-05
3.3365e-05
4.3448e-05
3.2807e-05
4.47756e-05
4.41985e-05
4.42451e-05
3.42706e-05
4.01278e-05
4.53218e-05
4.51743e-05
4.21972e-05
4.51492e-05
4.09102e-05
4.19262e-05
4.08011e-05
3.37357e-05
4.19697e-05
3.7977e-05
4.1122e-05
4.08181e-05
3.60215e-05
4.04086e-05
4.50353e-05
3.74608e-05
3.78162e-05
3.35191e-05
4.3879e-05
4.37506e-05
3.14528e-05
4.0807e-05
4.10877e-05
4.26658e-05
3.41461e-05
4.14272e-05
4.09144e-05
4.61974e-05
3.26909e-05
4.06085e-05
4.04847e-05
3.18467e-05
4.45259e-05
3.47353e-05
3.51321e-05
4.22734e-05
4.52822e-05
3.23804e-05
4.44622e-05
4.24851e-05
4.12802e-05
3.22947e-05
4.52316e-05
4.53305e-05
3.20723e-05
4.13058e-05
3.14095e-05
3.4905e-05
4.51999e-05
3.91796e-05
4.20554e-05
4.4165e-05
4.54989e-05
3.98369e-05
3.85981e-05
4.03662e-05
4.00527e-05
4.18e-05
3.86579e-05
4.49128e-05
3.43494e-05
3.88866e-05
4.09751e-05
3.96751e-05
4.34911e-05
4.04138e-05
4.29966e-05
4.33061e-05
4.13697e-05
4.52479e-05
4.32539e-05
3.96235e-05
3.74842e-05
4.36365e-05
4.00187e-05
3.89691e-05
4.29704e-05
4.54848e-05
4.34521e-05
4.35694e-05
3.84314e-05
4.32821e-05
3.7823e-05
3.37005e-05
4.07714e-05
4.23424e-05
3.35622e-05
4.2647e-05
4.03102e-05
3.01808e-05
3.35484e-05
4.3492e-05
3.29685e-05
3.98954e-05
4.37133e-05
4.23611e-05
3.36333e-05
4.23008e-05
4.62275e-05
3.46554e-05
3.37405e-05
3.43629e-05
4.4724e-05
4.10158e-05
4.02653e-05
4.45449e-05
3.33662e-05
4.31991e-05
4.13722e-05
4.5369e-05
4.5603e-05
2.82486e-05
4.14255e-05
4.29663e-05
4.37204e-05
4.1458e-05
4.049e-05
3.48848e-05
4.21691e-05
4.55418e-05
3.78394e-05
3.20829e-05
3.93003e-05
4.45278e-05
4.29012e-05
3.30983e-05
4.00939e-05
4.39381e-05
4.48149e-05
4.05974e-05
4.02031e-05
3.14589e-05
3.4058e-05
3.38508e-05
4.12699e-05
3.99008e-05
4.20478e-05
4.56691e-05
4.467e-05
3.67796e-05
4.44085e-05
4.47724e-05
4.28847e-05
3.87335e-05
4.43663e-05
3.97069e-05
3.50265e-05
3.86434e-05
4.12355e-05
4.21374e-05
3.75682e-05
4.27359e-05
3.91216e-05
4.45064e-05
3.47787e-05
3.19994e-05
3.97111e-05
4.51627e-05
4.36384e-05
3.86818e-05
3.94955e-05
4.38956e-05
4.46873e-05
3.90131e-05
3.95647e-05
4.4477e-05
4.56648e-05
4.33514e-05
4.54036e-05
4.3707e-05
4.34679e-05
3.25191e-05
3.97426e-05
3.384e-05
4.30666e-05
4.46386e-05
3.84836e-05
3.36179e-05
4.54507e-05
3.33238e-05
3.78248e-05
3.51738e-05
4.06361e-05
3.2775e-05
4.25659e-05
4.08829e-05
4.05962e-05
4.12104e-05
3.58935e-05
4.49836e-05
3.44777e-05
4.29543e-05
4.10606e-05
4.02356e-05
3.33717e-05
4.40221e-05
4.26717e-05
3.52041e-05
3.66058e-05
3.98973e-05
3.93518e-05
4.13138e-05
3.31928e-05
4.21412e-05
3.92872e-05
4.14816e-05
3.7904e-05
3.7738e-05
3.75744e-05
3.36291e-05
4.41611e-05
4.10809e-05
1.57778e-05
3.47378e-05
4.15474e-05
4.47981e-05
4.38307e-05
3.54091e-05
3.48205e-05
4.47778e-05
3.39538e-05
4.39585e-05
4.52513e-05
4.19387e-05
3.48117e-05
4.46523e-05
3.31734e-05
3.15778e-05
3.15792e-05
4.29388e-05
4.04252e-05
3.85164e-05
4.54566e-05
4.32875e-05
4.18445e-05
3.51595e-05
3.05507e-05
4.58322e-05
4.13771e-05
4.60349e-05
4.45095e-05
3.37285e-05
4.0308e-05
4.01819e-05
3.93518e-05
4.08084e-05
3.82741e-05
3.96641e-05
4.73697e-05
4.16661e-05
3.90069e-05
3.41182e-05
4.22039e-05
4.03793e-05
4.31112e-05
3.91652e-05
3.34036e-05
3.45411e-05
4.25562e-05
4.29131e-05
3.82783e-05
4.37005e-05
3.76093e-05
4.30751e-05
3.79798e-05
3.91843e-05