/*--------------------------------*- C++ -*----------------------------------*\
| =========                 |                                                 |
| \\      /  F ield         | OpenFOAM: The Open Source CFD Toolbox           |
|  \\    /   O peration     | Version:  2212                                  |
|   \\  /    A nd           | Website:  www.openfoam.com                      |
|    \\/     M anipulation  |                                                 |
\*---------------------------------------------------------------------------*/
FoamFile
{
    version     2.0;
    format      ascii;
    arch        "LSB;label=32;scalar=64";
    class       volScalarField;
    location    "0.042";
    object      p;
}
// * * * * * * * * * * * * * * * * * * * * * * * * * * * * * * * * * * * * * //

dimensions      [0 2 -2 0 0 0 0];

internalField   nonuniform List<scalar> 
31639
(
0.0125249
0.00871985
0.0143278
0.00638408
0.00880097
0.012277
0.0137502
0.013097
0.00931008
0.00794659
0.0136457
0.00887708
0.00922319
0.0119934
0.0104397
0.0146528
0.016993
0.0173789
0.00285039
0.0133295
0.00969233
0.00749373
0.0102038
0.00631243
0.01095
0.0129659
0.0126069
0.0398216
0.0131722
0.0131419
0.0070577
0.0187639
0.00936157
0.00507154
0.022815
0.0130826
0.00752687
0.0136638
0.0136481
0.0111673
0.00892632
0.0127813
0.00999394
0.0138739
0.014297
0.00596865
0.00895187
0.00707392
0.0153357
0.00643599
0.0059372
0.0047652
0.0232388
0.0141783
0.00464356
0.0173566
0.00762388
0.0126877
0.00872938
0.00608581
0.00668215
0.0128006
0.0106169
0.0130656
0.0230453
0.00376193
0.00231071
0.00731061
0.00904779
0.00566302
0.00805127
0.0171129
0.00785666
0.00339025
0.0233484
0.01858
0.00806678
0.0074703
0.00865266
0.00820613
0.0124799
0.0119761
0.0117995
0.00657256
0.0116663
0.0108207
0.0100164
0.0070694
0.00229508
0.00943418
0.0053525
0.0170364
0.00625792
0.00832405
0.00399207
0.0126078
0.00679743
0.00480757
0.0091257
0.0121057
0.0215503
0.0215308
0.0109847
0.00835368
0.00463635
0.00579246
0.0122758
0.00614129
0.00711518
0.0110763
0.0137064
0.0119511
0.0127779
0.00752261
0.00335017
0.0133462
0.0229057
0.0141455
0.0216579
0.00671781
0.0189428
0.00581656
0.00302259
0.0064136
0.0122121
0.0119982
0.00863742
0.00650841
0.0079406
0.00961349
0.0226697
0.00100321
0.0144984
0.0034098
0.00408928
0.00728073
0.00761585
0.00833449
0.00598027
0.0066732
0.0066136
0.00983043
0.0107172
0.00613536
0.00895695
0.0116674
0.0218042
0.00760018
0.0112688
0.0232844
0.00681522
0.0156728
0.00488458
0.00439466
0.00570215
0.00435807
0.00321141
0.00800641
0.0152494
0.00722957
0.00398085
0.0171658
0.00769238
0.0127553
0.0182111
0.0182837
0.0142243
0.0159374
0.00501401
0.00349175
0.0163666
0.0119843
0.0162445
0.00931877
0.0115817
0.00779033
0.0104888
0.0188767
0.00730593
0.0110262
0.00913555
0.0150622
0.0128234
0.0133455
0.0133945
0.0130981
0.0156983
0.0110308
0.0120044
0.0148791
0.0151529
0.0079042
0.0153922
0.00468748
0.00534162
0.00555263
0.00535285
0.00849299
0.0054656
0.0135359
0.0113595
0.017214
0.0150861
0.0160232
0.00777517
0.00647795
0.00270895
0.00458555
0.019224
0.00524302
0.00523548
0.0111609
0.021673
0.0115783
0.0139426
0.0116779
0.0117061
0.0116707
0.0163582
0.00874834
0.00905139
0.0111509
0.0117965
0.0163682
0.0142332
0.0081316
0.0146864
0.0143749
0.0101793
0.0186526
0.00491525
0.013524
0.0171746
0.0148773
0.0152772
0.00259735
0.00239707
0.0155577
0.012813
0.00462984
0.00657333
0.0140167
0.0162875
0.0153337
0.0067729
0.0175753
0.00518336
0.0181599
0.0148448
0.00262613
0.000757649
0.00597567
0.0152139
0.0174542
0.00847522
0.00906724
0.0126914
0.00390633
0.0125411
0.0144955
0.00606545
0.00487435
0.00848922
0.011997
0.00857716
0.011631
0.00191822
0.0220721
0.013838
0.0123622
0.0282747
0.00577286
0.0126109
0.0156312
0.00751982
0.0147224
0.00536372
0.0164192
0.00729311
0.00597945
0.0183926
0.0189075
0.0187775
0.0249544
0.0134651
0.0135098
0.0164412
0.0156815
0.00298187
0.0151572
0.0168853
0.00135712
0.00486387
0.0048821
0.0142616
0.00421169
0.0170723
0.00227335
0.00669218
0.00773549
0.00719604
0.0163806
0.00519502
0.00466008
0.0104099
0.00418183
0.0118697
0.00275681
0.0100372
0.0164581
0.0069509
0.0275572
0.0220435
0.00977308
0.0089762
0.0126372
0.00242238
0.0190053
0.0147557
0.0145082
0.0139208
0.00581982
0.0212841
0.00430042
0.0114595
0.0155416
0.0139597
0.0157026
0.00505701
0.0058485
0.00606331
0.00637804
0.0167011
0.00477568
0.0172125
0.0229083
0.0234688
0.00726346
0.0159164
0.0179863
0.00407144
0.00199889
0.0175022
0.00366508
0.00523579
0.0162306
0.00441505
0.0143356
0.0141738
0.0213481
0.0080277
0.0163939
0.00799971
0.0151471
0.00462842
0.00607269
0.00518326
0.0104519
0.0106071
0.0157525
0.0172389
0.0105737
0.0274636
0.00297645
0.00733484
0.00661605
0.00354204
0.0105494
0.0113001
0.0157164
0.0102428
0.0192182
0.012016
0.00565185
0.00380408
0.00634923
0.0221007
0.0184757
0.0154156
0.0193413
0.0146132
0.0047691
0.0071473
0.00475209
0.00439014
0.00416412
0.00512181
0.00882476
0.000437433
0.0176282
0.00259676
0.019531
0.00518701
0.0163245
0.00451129
0.0167258
0.0177566
0.0133648
0.00639544
0.0259089
0.0173882
0.0136623
0.0130653
0.00434935
0.0153952
0.00236744
0.00678407
0.00685685
0.00712383
0.0134011
0.00586896
0.00689866
0.0153168
0.0284222
0.0140416
0.0154364
0.011295
0.0120651
0.0108032
0.00898745
0.00867218
0.0213122
0.010309
0.000919021
0.0153416
0.0280238
0.00993602
0.0208269
0.0120178
0.0143509
0.00626903
0.00519675
0.0163652
0.00592163
0.0130365
0.0130515
0.015907
0.00388673
0.00479316
0.0170182
0.00720557
0.00253409
0.00305402
0.0117521
0.00407234
0.00730974
0.00770234
0.0178678
0.0174678
0.0188783
0.0177807
0.0154896
0.00753651
0.0158838
0.00714735
0.0169115
0.0189954
0.00587484
0.015538
0.00652095
0.0127718
0.0182552
0.0120835
0.00327249
0.0149654
0.0416943
0.00323477
0.00973803
0.00661046
0.0145403
0.00189381
0.0050216
0.0060098
0.00500385
0.0158608
0.00128606
0.010042
0.0204976
0.00904103
0.0104848
0.00607378
0.022342
0.00390485
0.00827593
0.021326
0.0274304
0.00993645
0.0142376
0.011585
0.00773133
0.00597582
0.00455997
0.0187499
0.00215495
0.0123238
0.0118576
0.0112314
0.00337916
0.00511921
0.0179954
0.0203151
0.00257645
0.00296319
0.00333292
0.00195203
0.0239619
0.00686651
0.00284341
0.019133
0.0213241
0.019033
0.00400434
0.0171812
0.0159524
0.0181353
0.00205943
0.0213136
0.0213602
-0.000354937
0.0185017
0.0178763
0.0186038
0.0118213
0.0198432
0.000860275
0.00323476
0.018112
0.00267619
0.00325949
0.00553007
0.0134495
0.00908193
0.0166828
0.00111434
0.00591946
0.00953873
0.0200215
0.00129416
0.0158862
0.00244745
0.0277581
0.0280492
0.0066027
0.0401016
0.00679372
0.00675899
0.0110078
0.0113267
0.00784372
0.0107509
0.0288471
0.0078877
0.0155624
0.000648187
0.00705065
0.0109395
0.00617817
0.0178168
0.00137816
0.00425236
0.0107124
0.0038319
0.00968858
0.00988307
0.00533645
0.0224923
0.00389443
0.00274285
0.000410574
0.0124983
0.0204781
0.00307857
0.000638082
0.00377501
0.00417471
0.00326821
0.0190171
-3.94307e-05
0.00127403
0.000872853
0.0171087
0.00213783
0.0179039
0.0182985
0.0190858
0.00558264
5.85046e-05
0.000254352
0.00290608
0.000839952
0.0117238
0.00101568
0.0117125
0.018574
0.00156933
0.00680847
0.0091379
0.0223735
0.0206532
0.0161967
0.00772371
0.00372183
0.02148
0.0184709
0.00172925
0.00190197
0.00795862
0.013484
0.00554311
0.00118299
9.82386e-05
0.000935944
0.0178272
0.0149325
0.00683587
0.0411008
0.0146675
0.0114294
0.0078954
0.0123495
0.0158499
0.0157132
0.0109905
0.00701373
0.00878719
0.00909679
0.0149109
0.00343849
0.0107013
0.00126691
0.0116559
0.0272081
0.0189315
0.0174696
0.0129796
0.0102367
0.0247214
0.0115067
0.0138013
0.00611442
0.021949
0.0206915
0.00301472
0.0113422
0.0128763
0.000235029
0.0251617
0.00692972
0.00117707
0.00338398
0.00192008
0.0223486
0.0204014
0.0208359
0.00314374
0.000117495
0.0176528
0.0118702
0.0186164
0.0191941
0.0192431
0.0012576
3.20359e-05
0.0182378
0.0159076
0.0164446
0.0192558
0.0010785
0.00686881
0.0282495
0.00398401
0.00225989
0.0197718
0.0112005
0.00471855
0.0180126
0.0177371
0.0144427
0.00833928
0.00555108
0.0131246
0.00755697
0.000387293
0.000720019
0.00147075
0.0055675
0.00210829
0.0223788
0.00794116
0.00060504
0.000693376
0.017131
0.00604185
0.000737466
0.041451
0.0056179
0.00669422
0.00901291
0.0101811
0.0086241
0.0110243
0.0104166
0.0069945
0.00804097
0.0116001
0.00739509
0.00690557
0.00783348
0.0103387
0.0197186
0.0111671
0.0105538
0.0173085
0.0223999
0.0188526
0.00527187
0.0103873
0.0029898
0.0117524
0.0232073
0.000894764
0.00215366
0.00194999
0.00598663
0.00693763
0.0171859
0.0164536
0.00488336
0.00200779
0.0134116
0.0222775
0.000551245
0.0183005
0.00728436
0.0169084
0.0155092
0.0163682
0.0210574
0.019598
0.0253229
0.0179534
0.0150148
0.01867
0.0168582
0.0174325
0.0062699
0.0219696
0.00616472
0.00161891
0.00410199
0.0170723
8.38973e-05
0.014116
0.00333552
0.0046489
0.0141726
0.00849889
0.0212043
0.00394021
0.0148216
0.00479706
0.0244001
0.0070258
0.000650217
0.00102168
0.0199026
0.0133023
0.000906916
0.00218655
0.00126085
0.0042219
0.000581607
0.000283184
0.016752
0.0162314
0.000187455
0.0162756
0.014395
0.0174197
0.00953294
0.00943163
0.00763053
0.0122404
0.0128286
0.00596066
0.00096628
0.0112208
0.0153673
0.0113506
0.0210391
0.018852
0.0112581
0.018337
0.00695384
0.028307
0.00331145
0.0184539
0.0110415
9.15577e-05
0.0125712
0.00321894
0.00671924
0.00278069
0.00279541
0.0141173
0.0200474
0.00491062
0.0177172
0.000842682
0.000849193
0.000882407
0.0233472
0.0235034
0.0223427
0.0240466
0.0198146
0.0183046
0.00614411
0.00395457
0.00678509
0.00179096
0.0130753
0.00585587
0.0153976
0.00851696
0.00681605
0.00212002
-0.000117141
0.00497648
0.00265767
0.0208495
0.00905808
0.00488941
0.0046978
0.00869583
0.000856002
0.0146543
0.00474558
0.0183294
0.0035202
0.00238595
0.0120377
0.0119826
0.0186715
0.022203
0.0194378
0.0147952
0.0083173
0.00903272
0.0176247
0.000132241
0.000975986
0.0173311
0.0177163
-0.000116946
0.000390647
0.00249856
0.017463
0.00458847
0.010611
0.0225147
0.0219946
0.0112049
0.0263411
0.00846258
0.00731495
0.00754321
0.00487678
0.00302744
0.018409
0.00311525
0.0112345
0.0136111
0.0207586
0.006544
0.00755801
0.00718792
0.0167196
0.0169414
0.0169657
0.0241031
0.00224265
0.0195524
0.0192628
0.0196706
0.0106683
0.000390245
0.0231325
0.0238377
0.021949
0.0129452
0.0136958
0.0149433
0.0139375
0.016635
0.0127808
0.000528787
0.0174834
0.00813147
0.00556347
0.0177873
0.00134623
0.000793236
0.00310259
0.00290911
0.0213025
0.00855788
0.00313443
0.00436178
0.00772897
0.0157642
0.00739094
0.0067817
0.0142263
0.0099468
0.000294446
0.0183357
0.0116101
0.0192712
0.00970583
0.00201891
0.0149245
0.0148295
0.000733092
0.00856087
0.00796929
0.000590863
0.000723007
0.0181703
0.0208732
0.00840635
0.0108737
0.00125663
0.0193213
0.0240753
0.0201757
0.0139209
0.00650199
0.0189154
0.0142764
0.00753867
0.0105001
0.00582869
0.00592797
0.00939202
0.0178906
0.00322978
0.0117014
0.00738481
0.00666259
0.000217309
0.0199978
0.00783781
0.0206422
0.00568139
0.0169013
0.0195157
0.00969898
0.00973801
0.0203614
0.016485
0.0185329
0.00717104
0.00831966
0.0163808
0.0156378
0.012404
0.0131485
0.0190795
0.0195268
0.0257146
0.015106
0.017056
0.00108551
0.000710936
0.0174862
0.0159599
0.00819879
0.0189674
0.00272285
0.0133592
0.0148828
0.0186819
0.00230461
0.0191613
0.0174113
0.0207637
0.0197347
0.0206314
0.00972367
0.0177342
0.00786837
0.0136405
0.0132292
0.0125716
0.0214621
0.0198759
0.0192468
0.0162661
0.00881486
0.0114914
0.0126739
0.0195357
0.0125338
4.88584e-05
0.0203546
0.0224176
0.0105719
0.00891974
0.00374344
0.00266811
0.00743441
0.0197289
0.0061753
0.00661082
0.0243128
0.00990044
0.00368236
0.00506549
0.000435354
0.00945052
0.0106993
0.00973041
0.018217
0.000655664
0.0210775
0.00187167
0.0204734
0.0197887
0.0241663
0.00930677
0.0095728
0.00815611
0.0153191
0.0136222
0.0159544
0.024612
0.0179044
0.0189679
0.0125478
0.0152764
0.00903697
0.0160561
0.0139242
0.00304813
0.00276134
0.0112163
0.000898046
0.00799111
0.021234
0.0223801
0.00406797
0.0205485
0.0133502
0.0215927
0.0118446
0.0121604
0.00163606
0.000899653
0.0156976
0.0141843
0.0068381
0.00900155
0.00850505
0.0131655
0.00910581
0.0178122
0.0190963
0.0244756
0.0188209
0.0203127
0.0122974
0.00865695
0.0101185
0.00090445
0.00173313
0.00332345
0.00891058
0.00804393
0.0141176
0.00831219
0.0148741
0.0168594
0.0186781
0.00860665
0.00535817
0.0250035
0.0130845
0.0223814
0.0221039
0.00983296
0.0225753
0.0022906
0.0190391
0.00569444
0.010719
0.00426672
0.00831794
0.00930938
0.0213948
0.0217739
0.000685153
0.0195842
0.0233795
0.026718
0.00868887
0.0164696
0.0189027
0.0191888
0.00773268
0.00834041
0.0178145
0.0269701
0.0177319
0.00327836
0.0156695
0.0263643
0.0152685
0.0150563
0.0145939
0.00725456
0.0221052
0.0191105
0.0222922
0.0019451
0.0159387
0.0013039
0.0131714
0.0186913
0.00400002
0.018827
0.00579384
0.0178899
0.0243501
0.0105213
0.000526922
0.0119091
0.0127415
0.000736292
0.00788562
0.00798988
0.0125771
0.00919185
0.025692
0.0205149
0.00807105
0.0079677
0.0198598
0.0111635
0.0188875
0.0249161
0.0192284
0.000675465
0.000647908
0.0203439
0.0176698
0.0123741
0.0137754
0.0158059
0.0130903
0.0136014
0.0222785
0.0195125
0.0234343
0.0175898
0.0154151
0.00218312
0.0225554
0.00297313
0.00852686
0.0210706
0.022564
0.0182225
0.00952497
0.00852017
0.000464808
0.0197367
0.0121951
0.0209115
0.0114858
0.0221405
0.023452
0.0147914
0.0157969
0.00943339
0.00460622
0.0255914
0.0121901
0.0156611
0.0121668
0.0112267
0.0162999
0.0259032
0.0149897
0.0140519
0.027814
0.00242146
0.0218788
0.0135021
0.0269439
0.0139628
0.0112269
0.0217098
0.0222516
0.00399972
0.00831373
0.004627
0.0057049
0.0192297
0.0101922
0.0110733
0.000456232
0.00885528
0.0321966
0.00909237
0.00951201
0.0131291
0.0135489
0.0128029
0.0202421
0.0207725
0.0150269
0.00804651
0.0205467
0.0115318
0.0212914
0.0190482
0.0192199
0.021205
0.0216732
0.0198836
0.007592
0.00061276
0.022781
0.00688446
0.0239302
0.0266861
0.0249913
0.0091055
0.0228405
0.015334
0.00242729
0.0019925
0.00333838
0.0203765
0.0211329
0.0209982
0.0194745
0.0233043
0.00952288
0.00788021
0.0213761
0.0236984
0.0112826
0.0210397
0.0226101
0.0149891
0.00868345
0.0257195
0.0229582
0.0197498
0.0159941
0.0204667
0.016779
0.0220508
0.00184033
0.0167035
0.0197719
0.0226099
0.016122
0.0214893
0.0107551
0.0270761
0.0168969
0.00224532
0.0204856
0.00491075
0.000138778
0.00463865
0.0161322
0.0137335
0.0159573
0.020527
0.0222784
0.00841884
0.017611
0.0100486
0.0136859
0.0129581
0.0127743
0.00786097
0.0209575
0.0140435
0.014581
0.0207599
0.0145681
0.00724842
0.00696313
0.0146298
0.015365
0.013981
0.0194994
0.0199567
0.00115603
0.0137909
0.0207806
0.0198135
0.0143144
0.0146397
0.0120478
0.0149659
0.0261701
0.00130295
0.00717462
0.0218142
0.00336572
0.00961314
0.0104024
0.00991613
0.0242741
0.0257312
0.00321952
0.0263233
0.0234213
0.0167971
0.0167495
0.0238055
0.0173595
0.0219964
0.0206554
0.00412454
0.00917561
0.0250369
0.000458913
0.000737408
0.0239522
0.0223386
0.00389612
0.0236946
0.0174148
0.0152358
0.00990339
0.0224847
0.0219362
0.00795899
0.0207889
0.0193093
0.0169817
0.0151727
0.000928861
0.00160097
0.00115133
0.0174893
0.0200745
0.0129216
0.0228241
0.0253213
0.012492
0.0110888
0.00776756
0.00465095
0.0277008
0.000121685
0.00318234
0.00995833
0.00121431
0.000266776
0.000504521
0.0106363
0.00779031
0.0009583
0.0343737
0.02177
0.0164424
0.0254684
0.014209
0.0273498
0.00445398
0.00879346
0.00918968
0.0263149
0.0264295
0.0142749
0.00746901
0.0149661
0.0135077
0.0176673
0.0163976
0.0170664
0.0200052
0.00148739
0.0213492
0.0215635
0.0217279
0.0211059
0.0177118
0.0174602
0.0134479
0.0123796
0.0226954
0.0196971
0.00634709
0.00495679
0.0133425
0.0191292
0.0255191
0.00617967
0.00716456
0.00742577
0.0190364
0.0240904
0.0253535
0.0249031
0.00200962
0.00119426
0.0236714
0.000760823
0.0232838
0.0242379
0.00489948
0.00680494
0.00305968
0.0226496
0.00860263
0.0199043
0.0156085
0.0156828
0.0244182
0.0249073
0.0112023
0.0273647
0.0271041
0.0184474
0.0169369
7.40464e-05
0.000672111
0.0188357
0.0170424
0.0205822
0.0267645
0.040797
0.0272709
0.0214956
0.0272879
0.021643
0.00267858
0.0199326
0.0229959
0.00310317
0.021621
0.00526867
0.000581945
0.0211676
0.000745254
0.00984873
0.0106971
0.0105882
0.00975245
0.000464406
0.00208862
0.00670986
0.0259239
0.0241656
0.0175044
0.0103966
0.0131598
0.00831438
0.0104426
0.00772376
0.0101114
0.00992019
0.00893745
0.01852
0.0158756
0.0212911
0.015737
0.021324
0.00147871
0.0208697
0.0010812
0.0275695
0.0215109
0.0140762
0.0177125
0.00858227
0.0112718
0.00392824
0.00288019
0.00690393
0.00464557
0.01273
0.0208834
0.00975206
0.0163485
0.0149195
0.0058525
0.0146692
0.0258428
0.0014904
0.0033309
0.00139055
0.0170363
0.0242943
0.0196524
0.00636043
0.00498889
0.02399
0.00307419
0.0240449
0.0227181
0.0414426
0.024124
0.0238442
0.0272254
0.0255662
0.0245013
0.0191465
0.00491695
0.0197953
0.00469095
0.0202849
0.0209747
-5.45002e-06
0.0256742
0.0119815
0.0023969
0.0201212
0.0253771
0.0198081
0.0227611
0.0198468
0.010043
0.0122781
0.0191111
0.0215711
0.0236164
0.0253457
0.000769602
0.00334209
0.0161329
0.0213944
0.0200972
0.0177907
0.0187446
0.00138596
0.0177872
0.00958673
0.0100432
0.00979345
0.00854561
0.0113142
0.0136707
0.000579353
0.0218101
0.0227511
0.0191972
0.00127829
0.0225977
0.0137252
0.0144499
0.0163089
0.0170437
0.0198904
0.0155306
0.034992
0.00398911
0.014169
0.0220667
0.017006
0.0170007
0.00329824
0.0154546
0.0242085
0.0270977
0.0199243
0.00913423
0.0234825
0.00837022
0.015683
0.025043
0.0263876
0.0156707
0.0266783
0.0264587
0.0262722
0.0244793
0.0165808
0.025468
0.0240908
0.0211386
0.00945534
0.0190192
0.00749122
0.00207435
0.0194801
0.00616726
0.0248391
0.0253175
0.0246443
0.0229299
0.0145295
0.0230917
0.0260934
0.00813101
0.00572339
0.0112863
0.0279673
0.0190401
0.0183383
0.00470311
0.00409318
0.0220341
0.00140423
0.0133543
0.0273921
0.0235479
0.0200246
0.0207012
0.0124165
0.0109768
0.00288652
0.021324
0.000318693
0.00777245
0.0238964
0.0010401
0.00296676
0.00460944
0.0060548
0.00356199
0.0168271
0.0189319
0.0220469
0.0144546
0.00889
0.0318935
0.00885087
0.0102125
0.0109041
0.0230027
0.02074
0.0260858
0.0234855
0.0073494
0.0130886
0.012716
0.0126951
0.0148233
0.0180059
0.0180613
0.0210194
0.0199882
0.0187061
0.0137432
0.0101999
0.010356
0.00253262
0.019759
0.0235382
0.00840657
0.00347822
0.0352717
0.0133049
0.0241087
0.0162318
0.0244479
0.0293092
0.0189739
0.00850825
0.00722756
0.015613
0.026
0.0248139
0.00642868
0.0275989
0.000243726
-0.000214501
0.0238321
0.0265677
0.0132635
0.0109818
0.0222649
0.00568563
0.0248729
0.0268785
0.0108137
0.021963
0.0228019
0.0338812
0.00613815
0.0256695
0.0150609
0.0157169
0.0216253
0.0258013
0.0028935
0.0201333
0.0275984
0.0268598
0.0287511
0.00614641
0.0225442
0.0219765
0.00316754
0.0178138
0.0257339
0.0184152
0.00258712
0.0079974
0.0169494
0.00556079
0.018653
0.00789985
0.000685302
0.000882946
0.0113403
0.00326526
0.0244969
0.0143175
0.00627363
0.0109357
0.0253706
0.025458
0.0225409
0.0236029
0.0250504
0.0144412
0.00259867
0.00540772
0.0124988
0.0213705
0.0214425
0.0220245
0.0222753
0.0152031
0.014911
0.0134977
0.0185319
0.0164415
0.0165622
0.0178681
0.0270509
0.0194872
0.021443
0.0182805
0.0202789
0.0200394
0.010133
0.0196772
0.0153826
0.00950642
0.0138238
0.0312047
0.0155798
0.0347662
0.0206063
0.00597126
0.00924683
0.0181343
0.029569
0.0166225
0.0156976
0.00704623
0.0206828
0.000656111
0.0017712
0.000341766
0.0257628
0.0255337
0.0259053
0.0133132
0.0279904
0.00498049
0.0265347
0.0269213
0.0258719
0.00268836
0.0295201
0.0260867
0.00198977
0.0276291
0.0157156
0.0164881
0.0154809
0.0215494
0.0233889
0.0192081
0.0201894
0.0213792
0.013226
0.012749
0.00329826
0.0268748
0.0211559
0.0241801
0.018492
0.0235322
0.0263081
0.00976846
0.0252878
0.00259459
0.0189073
0.00896129
0.00103367
0.000165832
0.0113785
0.0236773
0.00893423
0.02162
0.0220058
0.0074202
0.023131
0.00862062
0.0277475
0.0219824
0.0273602
0.0206285
0.0111881
0.0217495
0.0227784
0.0252728
0.00582443
0.0224144
0.0224297
0.0234924
0.0252178
0.0180136
0.0238358
0.019202
0.00259512
0.0228522
0.0057656
0.0170417
0.0179861
0.0123468
0.0197204
0.0298263
0.0150486
0.0139089
0.0146766
0.0101879
0.0191253
0.00710415
0.0126998
0.0234423
0.0111011
0.0221251
0.0066323
0.0236356
0.0197281
0.00615708
0.0167212
0.0245828
0.00649511
0.0193969
0.0127573
0.00173821
0.000161963
0.001756
0.0247469
0.0162477
0.0185329
0.0141235
0.013832
0.0248277
0.0269257
0.026077
0.0197532
0.0256825
0.0209955
0.0271537
0.0142806
0.0276613
0.0274906
0.0274821
0.0266267
0.0258645
0.00312469
0.0217369
0.02594
0.0197699
0.0178754
0.0288769
0.0260063
0.0130656
0.0269702
0.00272241
0.0245063
0.025641
0.0179177
0.0171005
0.0231866
0.0242765
0.0231217
0.00114846
0.0270131
0.020393
0.00770459
0.000406135
0.0267495
0.00821652
0.00344091
0.00224016
0.000305629
0.0191676
0.00609131
0.0321527
0.00976752
0.0230452
0.0123225
0.00936498
0.0134548
0.0225379
0.00963614
0.0267366
0.0222445
0.0130636
0.0249988
0.0223522
0.0191795
0.0299558
0.020246
0.0257402
0.016538
0.0277528
0.0164594
0.0163611
0.0034736
0.0208604
0.0196951
0.0209
0.0240745
0.0176162
0.027839
0.0208382
0.0202554
0.00283325
0.00622354
0.0279584
0.0147054
0.00545857
0.0148125
0.03688
0.00895002
0.0288869
0.00670994
0.00132243
0.0111138
0.0115423
0.0102438
0.0191142
0.0058939
0.0178288
0.0223649
0.0159289
0.0053132
0.00575138
0.0261859
0.00163033
0.0194876
0.0181305
0.0120237
0.024439
0.0291549
0.0126752
0.0244152
0.0228491
0.0202019
0.000405751
0.0197148
0.0220394
0.0260811
0.0266159
0.0300518
0.0279224
0.00347161
0.00229997
0.0281824
0.00336254
0.0252861
0.0270505
0.025097
0.00544533
0.0308791
0.0118603
0.0223748
0.0268872
0.0242769
0.0250185
0.0240188
0.0228676
0.0209121
0.0122851
0.0229536
0.0173608
0.00202846
0.0113872
0.025142
0.022863
0.0295895
0.0312037
0.00159484
0.0162835
0.00266699
0.00508728
0.0262801
0.00501969
0.00429303
0.0276149
0.00636411
0.0107731
0.0158875
0.0266868
0.000283829
0.0260673
0.022443
0.0123518
0.0256305
0.0272814
0.0141274
0.0257028
0.0208124
0.0275988
0.0256404
0.025234
0.018632
0.0285959
0.0198922
0.0057811
0.00608923
0.0277682
0.0206913
0.025361
0.0308218
0.0228445
0.0243538
0.0303819
0.00607594
0.0275853
0.0269458
0.0277067
0.0151806
0.0399729
0.00467553
0.00782224
0.0122748
0.0113433
0.0299667
0.00904774
0.0219838
0.0174504
0.0182206
0.0170327
0.00619744
0.0111718
0.00727178
0.026075
0.00121334
0.027763
0.0282985
0.0286318
0.0135261
0.0237541
0.0354378
0.0220657
0.00198285
0.0254586
0.00853051
0.0106734
0.0291847
0.0136898
0.0288249
0.0293086
0.0196243
0.00312279
0.0260227
0.0249896
0.0259004
0.0192533
0.0256092
0.0255909
0.0246957
0.0218079
0.0224542
0.0231081
0.0232243
0.0190926
0.0177533
0.00177972
0.0266285
0.0161072
0.0172742
0.0188397
0.00958412
0.00804032
0.0321003
0.0249924
0.0228862
0.0291107
0.0301052
0.0112693
0.00461525
0.00778897
0.0315117
0.0162299
0.00828299
0.0269316
0.00702012
0.0234978
0.0134736
0.00590641
0.00565337
0.0220405
0.0128017
0.0241675
0.00100578
0.0212692
0.00222605
0.023041
0.0131782
0.0192487
0.0197497
0.0187381
0.0242513
0.0235099
0.0264971
0.00816459
0.0361683
0.0349088
0.0307176
0.0211648
0.0208991
0.0162679
0.0221313
0.0247108
0.0259673
0.0296916
9.03828e-05
0.0115461
0.012766
0.0392756
0.0265987
0.00329547
0.0273884
0.00335932
0.0156113
0.0179165
0.0109412
0.00797547
0.0308661
0.0250661
0.00850172
0.0168344
0.0318495
0.0108497
0.00668696
0.000558312
0.0155464
0.00231626
0.0286601
0.00678332
0.0304188
0.036099
0.00928497
0.0253676
0.000340527
0.000362214
0.00881121
0.0293575
0.0293429
0.0279588
0.0248239
0.00185607
0.0191624
0.041166
0.018351
0.0247001
0.0235478
0.0244606
0.0247996
0.0196406
0.027176
0.0240985
0.00844837
0.00208306
0.00235752
0.00237894
0.0231051
0.0258332
0.0144583
0.0257845
0.00607572
0.00630159
0.00716881
0.0222431
0.0301098
0.0296882
0.0311639
0.0176178
0.00874837
0.0273478
0.00828306
0.0221357
0.0240192
0.0248664
0.0135442
0.0273153
0.0123537
0.0226357
0.0235061
0.0224776
0.0118782
0.0168523
0.0417436
0.0105095
0.00268563
0.0214483
0.0183357
0.0228974
0.0147641
0.0172279
0.0185968
0.0198502
0.0164206
0.0239578
0.0346488
0.017792
0.0268907
0.0123811
0.0220739
0.0167848
0.0212999
0.0231368
0.0218201
0.0294261
0.00414958
0.0288878
0.0191307
0.000911699
0.0125319
0.0303025
0.027146
0.0160333
0.00381899
0.0245531
0.00886422
0.0311428
0.00892123
0.0253994
0.0240497
0.0282648
0.0214602
0.026066
0.0178243
0.00299482
0.0233819
0.00266732
0.0284036
0.000277359
0.000978163
0.00592711
0.00215279
0.0194195
0.00101324
0.031421
0.0316485
0.0265881
0.0273794
0.0297714
0.0298321
0.0288308
0.0292162
0.00816101
0.0318125
0.0287574
0.00633287
0.0272431
0.0334998
0.0187553
0.000106556
0.0262515
0.0285197
0.0245335
0.0228756
0.0258055
0.0306707
0.00291123
0.0270001
0.0013339
0.000720877
6.76213e-05
0.02352
0.0166461
0.00726251
0.0136442
0.0267123
0.0394521
0.0187589
0.0244578
0.0250985
0.030491
0.00248575
0.0414923
0.0281478
0.00817824
0.0199802
0.00970602
0.0210039
0.025827
0.00987728
0.0277584
0.021596
0.0117201
0.0184265
0.0112847
0.0228006
0.0183151
0.029233
0.0300497
0.00856285
0.0156221
0.018954
0.0184901
0.0250778
0.035287
0.012803
0.0249727
0.0191209
0.012601
0.0162037
0.0318812
0.0179325
0.0164431
-0.000153342
0.0338766
0.0331555
0.00108556
0.0273375
0.0020882
0.0205842
0.0312869
0.00464938
0.0290752
0.0289894
0.0308659
0.0296173
0.0237995
0.0244655
0.0267069
0.00726372
0.0257782
0.00899752
0.00239997
0.0136397
0.00367366
0.024467
0.0264996
0.0112935
0.0112684
0.0137708
0.0309655
0.00348978
0.0264808
0.0157682
0.030597
0.0216909
0.0299136
0.0288572
0.0322573
0.0286562
0.00134946
0.0190591
0.0285222
0.019917
0.0259711
0.0250486
0.00527539
0.0300975
0.0228196
0.0315139
5.13791e-05
0.0286861
0.00726461
0.0154472
0.00207563
0.0244553
0.0236787
0.0370643
0.0226602
0.00758194
0.0280712
0.0267863
0.000826418
0.000579721
0.0365003
0.0250483
0.00871381
0.040566
0.0100181
0.0157932
0.0273708
0.000358593
0.00316367
0.0415145
0.0079676
0.0119699
0.0118167
0.0194899
0.0267462
0.0154245
0.011219
0.0273784
0.0307647
0.0284395
0.0265464
0.0156096
0.0267724
0.0188062
0.0115431
0.0236014
0.0232205
0.0188534
0.0213407
0.015489
0.0145434
0.0270302
0.0277493
0.0281567
0.0234398
0.0332831
0.0226414
0.0234927
0.0220919
0.023178
0.0280334
0.0201552
0.00450086
0.0304985
0.0295277
0.0275679
0.00468344
0.0262506
0.0228741
0.0256133
0.0233255
0.0312513
0.0273954
0.00359046
0.0110504
0.0309178
0.0311647
0.033657
0.00304089
0.0150609
0.0105823
0.0288373
0.0279069
0.0298821
0.0334026
0.0337281
0.0289996
0.0331263
0.0285708
0.0280897
0.0180616
0.029907
0.0253037
0.0330852
0.0399444
0.0250816
0.0234307
0.0413059
0.0206867
0.0147313
0.0308262
0.0170088
0.0331159
0.000945219
0.0257235
0.0159172
0.0380889
0.0248295
0.0236819
0.031518
0.0151628
0.00100678
0.0139242
0.0383808
0.000249222
-0.000163611
0.0253894
0.00989161
0.0106827
0.0105151
0.00755083
0.00640686
0.00716401
0.00577153
0.0113155
0.0294164
0.0329311
0.00334084
0.0297007
0.0263381
0.00262873
0.0249651
0.0304465
0.0308542
0.0174117
0.0214445
0.0163711
0.030243
0.0170511
0.0263033
0.0234176
0.0173938
0.024231
0.0295651
0.0167583
0.0164111
0.0240301
0.0236159
0.0200258
0.0321987
0.00377578
0.0338875
0.0206238
0.0176495
0.0193975
0.030499
0.0133177
0.0102722
0.0306142
0.0271543
0.0279049
0.0297995
0.0379883
0.0343989
0.0307663
0.0278108
0.0303431
0.0319331
0.0309388
0.0191938
0.0325256
0.0310681
0.00904863
0.027806
0.0205933
0.0324391
0.0269483
0.0319468
0.0160561
0.0287624
0.0203174
0.0236401
0.0298954
0.032321
0.0087291
0.0264026
0.0210217
0.0202894
0.0214462
0.0330543
0.0270824
0.0285585
0.000571032
0.024265
6.27828e-05
0.028408
0.00237103
0.0390084
0.00984017
0.020188
0.00792464
0.0076372
0.00688953
0.0262269
0.0285047
0.0195725
0.0200544
0.0261755
0.0178473
0.0298976
0.030705
0.0223177
0.0336661
0.0291791
0.0338649
0.0293363
0.0274369
0.0315441
0.0178279
0.0231233
0.0238563
0.0189594
0.00425562
0.0318131
0.0312251
0.0369953
0.00967153
0.0292339
0.0260577
0.0103544
0.0237213
0.0289794
0.0252992
0.0329671
0.031299
0.0298943
0.0325648
0.0242416
0.031137
0.032479
0.0314286
0.030847
0.0257753
0.0288568
0.0228095
0.0333411
0.0279575
0.041537
0.0408813
0.0269691
0.0329947
0.0264895
0.0260438
0.0253506
0.0216842
0.0305795
0.0271196
0.0292546
0.0305374
0.0334215
0.0294293
0.0250635
0.0278969
0.0279911
0.0326072
0.0270554
0.0288536
0.0307043
0.0318889
0.00227535
0.0295232
0.00312916
0.00359448
0.00397622
0.00201463
0.029062
0.00620429
0.000710052
0.021387
0.028799
0.039389
0.0401037
0.0332751
0.0266549
0.0326233
0.0177514
0.0367051
0.0235589
0.0259001
0.0282126
0.0305091
0.0200125
0.0301341
0.0314879
0.0228377
0.0244898
0.031357
0.0247
0.0361365
0.0315255
0.0349854
0.0108161
0.00197976
0.029199
0.0289429
0.0284594
0.0351576
0.0298502
0.0358019
0.0299265
0.0321893
0.01885
0.0334533
0.0241655
0.0322628
0.0256508
0.0326511
0.0335945
0.0204768
0.0297122
0.0220456
0.0307945
0.0219974
0.0311065
0.0270278
0.0260215
0.0310591
0.0300498
0.0270276
0.0300844
0.0205619
0.035845
0.0280405
0.0297372
0.0307063
0.0320044
0.0087347
0.0216894
0.0324362
0.00319969
0.00420929
0.0330396
0.0290943
0.000504506
0.0394783
0.0262974
0.0363995
0.028635
0.0249541
0.0249394
0.0344046
0.028838
0.0247394
0.026058
0.0280618
0.0287607
0.0285052
0.0370122
0.0316426
0.0317871
0.0213985
0.0214635
0.0334681
0.0270681
0.0316874
0.0316639
0.0357435
0.0394469
0.0376297
0.0251783
0.0335079
0.0264684
0.0310919
0.0304298
0.0260585
0.0118855
0.0329619
0.0398136
0.0323262
0.0248524
0.0286596
0.0248619
0.0409515
0.0229471
0.0294628
0.0249357
0.0260957
0.031217
0.0329643
0.0263143
0.0315527
0.0309268
0.0280818
0.032051
0.0311222
0.031059
0.0278348
0.0335063
0.0336533
0.0330772
0.0283818
0.0326568
0.032723
0.0323835
0.0103641
0.0331604
0.0235421
0.0243442
0.0298944
0.0357104
0.0237461
0.0289224
0.0335308
0.0283668
0.0290291
0.0251161
0.03754
0.0279785
0.0328563
0.0238058
0.0238939
0.0287518
0.0332508
0.0236926
0.0282874
0.0280873
0.0326984
0.0332324
0.0283435
0.0286382
0.035632
0.0355104
0.0292926
0.0351031
0.0343751
0.0309786
0.0353363
0.0144469
0.0351639
0.0332646
0.0327433
0.0330546
0.0315668
0.0330039
0.03646
0.0298197
0.0328205
0.0262906
0.0300786
0.0270845
0.0310696
0.0310649
0.037646
0.0315954
0.0374005
0.0374999
0.0269423
0.0307346
0.0322002
0.02162
0.0277872
0.0288259
0.0288395
0.036686