/*--------------------------------*- C++ -*----------------------------------*\
| =========                 |                                                 |
| \\      /  F ield         | OpenFOAM: The Open Source CFD Toolbox           |
|  \\    /   O peration     | Version:  2212                                  |
|   \\  /    A nd           | Website:  www.openfoam.com                      |
|    \\/     M anipulation  |                                                 |
\*---------------------------------------------------------------------------*/
FoamFile
{
    version     2.0;
    format      ascii;
    arch        "LSB;label=32;scalar=64";
    class       surfaceScalarField;
    location    "0.042";
    object      phi;
}
// * * * * * * * * * * * * * * * * * * * * * * * * * * * * * * * * * * * * * //

dimensions      [0 3 -1 0 0 0 0];

oriented        oriented;

internalField   nonuniform List<scalar> 
68568
(
-1.49508e-07
1.54362e-07
-2.91128e-08
2.42589e-08
1.43893e-07
-7.3573e-08
-7.63696e-08
6.04922e-09
1.74241e-07
-1.33073e-07
-5.91982e-08
1.80301e-08
-4.40977e-09
2.18969e-09
-1.67071e-07
1.69291e-07
-1.24195e-09
1.40009e-07
9.92559e-10
-1.39759e-07
1.37882e-07
-4.78214e-10
-1.26806e-07
-1.05974e-08
8.26405e-08
-8.78339e-08
1.28911e-07
-1.23718e-07
-3.90823e-08
-2.67277e-08
1.48451e-07
1.29746e-07
-1.54531e-08
-1.09427e-07
-4.86559e-09
1.47903e-07
5.3009e-08
-5.70185e-08
9.97363e-08
1.3606e-07
-6.15551e-08
-6.36076e-08
-1.99804e-07
1.89838e-07
-1.3878e-07
6.80065e-08
-5.5963e-09
1.81142e-07
-1.86655e-07
1.35391e-08
-8.02613e-09
-6.9605e-08
-5.107e-08
1.19507e-07
1.16808e-09
1.2689e-07
8.72596e-08
-1.296e-07
-8.45494e-08
-5.06833e-08
-7.80329e-08
1.14026e-07
1.46906e-08
1.11688e-07
-1.16776e-07
-4.55948e-08
1.10908e-07
-4.44321e-09
-6.57066e-10
-1.05807e-07
8.49625e-08
-1.53535e-07
7.69871e-08
-8.41488e-09
1.12369e-07
-4.32278e-10
-1.11846e-07
-9.01734e-11
-1.78014e-08
8.96072e-09
1.39612e-07
-1.30771e-07
-4.55229e-08
1.88601e-07
-2.72628e-08
-1.15816e-07
-7.16095e-10
-4.8328e-10
-1.35526e-07
1.36725e-07
-7.45874e-08
-4.85317e-08
1.16242e-07
6.87702e-09
-9.69056e-08
-3.97886e-08
-1.28138e-08
-6.47564e-08
1.41237e-07
8.4822e-09
7.70497e-08
4.55488e-08
-3.03333e-08
-9.22651e-08
-6.7976e-08
-9.94574e-08
1.28351e-07
4.86608e-08
-1.20022e-07
3.38542e-09
1.52879e-07
-8.15706e-08
-1.44008e-07
7.26995e-08
-1.32818e-08
2.51771e-09
1.17087e-07
-1.06323e-07
1.56316e-07
-3.26457e-08
-1.11531e-08
-1.12517e-07
1.19606e-07
-9.17563e-08
-5.88486e-08
3.09991e-08
-5.24651e-10
1.09512e-07
-1.0904e-07
5.32138e-11
1.21669e-07
8.51127e-08
-8.52746e-08
6.30339e-10
-4.68428e-10
4.30427e-08
-1.59508e-07
9.28204e-08
2.36445e-08
-1.61833e-07
1.40626e-07
6.42497e-08
-7.41062e-08
-1.83486e-10
-2.97666e-10
-8.45644e-10
1.14313e-07
-1.0982e-09
1.12954e-07
-1.1258e-07
-5.71445e-10
1.97679e-10
-2.65405e-08
-1.57762e-07
1.19675e-07
1.93978e-07
-1.47679e-07
-1.65974e-07
-6.18409e-08
-1.0367e-07
2.92401e-07
-1.46303e-07
1.63676e-07
-1.37424e-07
1.20051e-07
-1.23974e-07
6.57479e-08
-5.38102e-09
1.15192e-07
-1.12457e-07
-3.55886e-09
8.24211e-10
9.81619e-08
2.51836e-08
1.17771e-08
-1.35123e-07
2.16609e-09
-1.52469e-07
1.47824e-07
3.40585e-08
-2.94144e-08
-8.5001e-09
-9.39154e-08
1.02084e-07
3.31538e-10
-1.45993e-07
1.3789e-07
1.79421e-07
-1.69173e-07
-3.70241e-10
-2.0415e-10
2.06227e-09
-1.63369e-09
1.09021e-07
-1.0945e-07
3.95484e-08
-1.15505e-07
-2.07636e-09
9.20909e-08
-9.84728e-08
3.77759e-09
2.60438e-09
-8.57765e-08
1.42279e-07
-6.26097e-08
6.10735e-09
1.47123e-07
-7.62362e-08
-7.43363e-08
3.44949e-09
9.11172e-08
-9.13546e-08
-4.78702e-10
-1.12282e-07
-1.72164e-09
1.16193e-07
7.59748e-08
7.16661e-08
-7.70443e-09
-1.39937e-07
-6.01034e-09
1.36007e-07
-1.30807e-07
8.10666e-10
8.8848e-08
-1.50568e-07
-3.03639e-09
1.08548e-07
-1.79337e-08
3.37763e-08
-1.24391e-07
1.49979e-07
-2.34582e-08
-1.70004e-07
4.34829e-08
4.08035e-08
8.21441e-08
-1.204e-08
6.45751e-08
-1.27886e-07
7.01071e-08
-6.79617e-09
1.35203e-07
-1.36294e-07
-1.50734e-10
-1.0073e-07
1.43763e-07
-3.17985e-08
-1.12345e-08
-2.05563e-07
-1.50769e-07
2.88181e-07
6.81511e-08
-1.20038e-07
-2.03048e-10
1.24854e-07
-6.4695e-09
1.35175e-07
-1.43445e-07
-5.39539e-08
6.2224e-08
-1.25937e-07
6.50464e-08
6.68304e-08
-5.93968e-09
-3.50377e-08
-5.29279e-08
-4.87129e-08
-1.01219e-07
1.01481e-07
-4.60488e-10
1.99453e-10
4.01183e-08
1.74209e-07
-6.72045e-08
1.05112e-07
-6.33077e-08
5.02862e-08
-7.31711e-08
-8.02535e-08
1.49469e-07
3.95558e-09
-5.50677e-10
-2.19565e-07
-6.10909e-10
2.20726e-07
7.44552e-08
-4.67004e-08
8.51994e-08
-2.18672e-10
6.49277e-08
-6.47548e-08
4.56916e-11
-1.91925e-08
1.40172e-07
6.74287e-08
-1.88408e-07
1.70623e-07
-8.62375e-08
-8.94653e-08
5.0794e-09
1.19611e-07
3.79748e-08
-3.63193e-08
-1.21267e-07
1.637e-07
-7.70736e-08
7.6336e-08
-1.62963e-07
3.51911e-08
1.32648e-08
1.15244e-07
-8.86525e-08
8.43651e-08
-1.62783e-07
1.24833e-07
9.9572e-10
-1.21974e-07
-3.85557e-09
-3.97071e-08
-2.8008e-07
1.95812e-07
8.39566e-08
8.6396e-08
-6.6766e-09
-4.32502e-10
5.27304e-10
9.38601e-08
-9.39549e-08
-1.2406e-07
1.23922e-07
-3.45182e-10
-5.99756e-08
1.19701e-07
6.022e-09
7.35679e-09
8.76166e-08
-4.97903e-09
-8.99944e-08
-1.28235e-07
5.6591e-08
8.9575e-08
-1.79315e-08
-4.42036e-08
-8.11837e-08
-1.01383e-08
-8.3308e-08
1.6173e-07
5.53469e-09
7.23527e-08
7.54587e-08
-1.427e-07
-5.11129e-09
1.13984e-07
9.18545e-10
-1.1483e-07
-7.29011e-11
-6.17012e-09
-1.97788e-07
-1.40768e-08
2.07255e-07
-6.36569e-09
1.20914e-07
-1.22191e-07
5.74917e-08
-7.48528e-09
9.78361e-08
-4.31754e-10
-9.63302e-08
-1.07412e-09
1.22477e-07
-8.09301e-10
1.35925e-07
-4.63324e-08
8.10306e-08
1.30281e-10
-1.04071e-07
-3.37114e-09
1.11805e-07
-4.36253e-09
9.11836e-08
-5.02745e-08
-9.04061e-08
4.96053e-11
9.02239e-08
1.32653e-10
-3.50291e-08
-1.36276e-07
1.45056e-07
2.6249e-08
-2.13223e-09
1.30853e-07
-1.28327e-07
-3.93801e-10
-8.8303e-08
-3.67358e-08
1.25358e-07
-3.18844e-10
-4.23048e-09
2.05861e-09
-1.1011e-07
-1.63734e-07
8.73854e-08
8.15267e-08
-5.17824e-09
3.29838e-10
-1.01022e-07
1.00943e-07
-2.50721e-10
1.38125e-07
-7.60155e-10
-2.65399e-10
-1.10886e-07
3.00451e-10
1.10851e-07
-3.71444e-08
2.10821e-08
2.38501e-08
1.31625e-07
-7.19897e-08
4.94014e-09
1.40872e-07
-1.40012e-07
-1.41415e-08
-1.24073e-07
1.40062e-07
1.91201e-08
-3.51091e-08
7.21792e-08
-7.34489e-08
1.51249e-07
3.84798e-09
1.1351e-07
1.52414e-07
-1.29958e-09
-1.53246e-07
6.87082e-08
-1.43352e-07
-4.44432e-09
7.90883e-08
1.43338e-07
-7.89891e-08
8.00373e-09
1.00156e-07
-9.80296e-08
-1.12699e-07
5.82401e-08
-3.08153e-08
-1.50175e-07
1.43181e-07
-1.9195e-08
2.61888e-08
1.60947e-07
4.62454e-08
-5.13593e-08
-1.54635e-07
-7.39516e-08
-3.03585e-08
8.08421e-08
2.3468e-08
-1.3081e-07
6.88426e-08
-5.46307e-08
1.16598e-07
-1.52599e-07
-3.36312e-09
1.58964e-07
-3.00241e-09
-1.09306e-07
2.07257e-08
-6.40179e-08
-1.63925e-07
-6.29764e-09
9.50029e-08
-1.39723e-09
-1.12711e-07
-5.3873e-10
-1.09265e-07
1.4016e-07
-7.41323e-08
6.02893e-09
1.56208e-07
-8.34624e-08
-7.92125e-08
6.46702e-09
-1.34643e-07
1.80746e-07
-4.64829e-08
3.80149e-10
8.24424e-08
-8.30874e-08
-1.33998e-07
9.51527e-08
7.35257e-09
-2.34938e-09
6.55589e-10
1.0494e-07
-1.04417e-07
-1.1786e-09
1.90508e-07
-4.83621e-08
-1.04171e-07
-1.09022e-07
7.47101e-08
1.15321e-07
-1.10682e-07
-2.58027e-09
-1.81957e-09
1.02128e-07
-1.00639e-07
3.30325e-10
-9.75496e-09
-1.35375e-07
1.32474e-07
1.26554e-08
-1.39721e-07
1.56518e-07
-9.87504e-09
-6.92131e-09
1.21396e-07
-7.00978e-08
-4.91884e-08
6.69698e-09
-8.03263e-09
-9.8021e-08
9.75536e-08
3.30019e-08
-6.79472e-09
-1.35514e-07
-2.0146e-08
1.10828e-07
-8.44442e-08
-6.23764e-09
1.60676e-07
-6.78289e-09
-1.37645e-08
-1.40129e-07
1.57166e-07
1.66679e-10
-2.63547e-09
-1.54697e-07
1.3664e-07
-1.35071e-09
-8.63388e-11
1.29509e-07
-1.29777e-07
2.67553e-10
1.96777e-13
-1.25733e-07
-8.19112e-08
1.2646e-07
2.11951e-08
-1.7059e-07
-1.11037e-07
1.1082e-07
6.44142e-11
1.52087e-10
-1.34343e-07
-7.26927e-09
1.89088e-09
-1.02264e-07
-1.50489e-11
1.02253e-07
2.63828e-11
-1.22484e-07
-2.53335e-10
1.22855e-07
-1.17859e-10
-8.70831e-09
1.19282e-07
-1.02201e-07
-7.53029e-09
-1.03062e-07
1.0264e-07
1.56784e-10
1.70778e-08
2.86349e-08
8.80459e-08
-1.32325e-07
7.27778e-08
-7.31056e-08
1.44464e-07
-1.44136e-07
1.03521e-07
-8.1448e-08
-2.42518e-08
2.17882e-09
1.18975e-07
-1.95974e-08
-1.07848e-07
1.05686e-08
5.67632e-09
-1.08852e-07
1.23058e-07
-1.98824e-08
-5.73889e-10
1.02463e-07
-1.01445e-07
-4.44543e-10
-1.40948e-07
-8.4593e-09
1.65348e-07
2.06302e-07
-8.79376e-08
1.86296e-07
1.53374e-07
-7.65031e-08
5.57126e-09
-3.01753e-08
2.58259e-08
-1.08649e-07
1.15761e-07
8.82783e-08
9.33791e-08
-7.44823e-09
9.29676e-08
7.23808e-08
-1.59455e-07
-5.89366e-09
8.18395e-08
7.91663e-08
-7.63159e-09
1.21521e-07
-7.52153e-08
8.32032e-08
7.36061e-08
-1.24809e-07
5.94612e-08
-8.25798e-09
6.76296e-10
-9.88963e-08
-1.23743e-09
3.28607e-10
-3.09851e-07
1.85002e-07
1.93514e-07
-1.21989e-07
4.02303e-08
9.43413e-09
4.3402e-08
4.53076e-08
-9.81438e-08
-1.27971e-07
1.9463e-09
1.27171e-07
-1.14607e-09
-9.82233e-08
9.77793e-08
-2.8741e-11
4.72743e-10
1.28424e-07
-1.66227e-07
1.96551e-07
-1.58748e-07
1.55043e-08
-1.41605e-09
1.25921e-07
-3.15096e-08
7.39431e-09
-7.34191e-08
9.75345e-08
-7.17462e-08
1.39322e-07
5.20243e-09
-1.45567e-07
7.56273e-08
7.51132e-08
-5.1731e-09
-1.10383e-07
-2.48234e-08
1.1506e-07
4.86254e-10
7.66786e-08
-7.38487e-11
-7.7091e-08
1.45585e-07
-6.61219e-08
7.68529e-08
1.35356e-09
-1.16253e-10
8.28663e-11
-9.66587e-08
1.77469e-07
-4.73668e-08
-2.93787e-08
-1.00723e-07
2.17513e-09
2.95905e-08
-1.12417e-07
8.44743e-08
-3.37552e-08
2.25493e-08
1.98854e-07
-1.21271e-08
1.65657e-07
-1.76904e-07
-6.24951e-08
-6.70114e-08
5.43314e-09
1.30932e-07
6.29308e-09
-7.06362e-08
-7.16656e-08
1.35007e-07
7.29467e-09
7.46744e-09
1.09901e-07
-1.48007e-07
-1.52856e-10
6.97108e-08
-6.89131e-09
-6.53894e-10
-1.34301e-07
1.37263e-10
1.34818e-07
-1.36418e-07
1.66017e-07
-4.23151e-08
1.11195e-08
-9.47232e-09
5.08977e-08
1.10988e-07
-1.28352e-07
7.49114e-08
-2.6901e-08
8.03415e-08
-1.40469e-07
9.4677e-08
-1.28443e-07
1.26881e-07
2.61513e-10
9.22863e-08
2.19033e-08
-1.66045e-07
-2.16184e-08
1.6576e-07
-1.82332e-07
9.99805e-08
-1.37214e-07
-1.6914e-09
1.6522e-07
2.4146e-08
6.64519e-08
-9.52433e-08
4.64534e-09
7.01494e-08
-3.69739e-08
4.41364e-10
-9.97735e-08
5.06905e-10
-2.34628e-07
2.34572e-07
-5.55625e-10
-9.51991e-08
-9.97144e-08
-9.31594e-08
1.01245e-07
-1.11148e-07
8.39615e-08
-1.0649e-07
1.7074e-08
5.45421e-09
1.25604e-07
-9.0556e-08
-9.22244e-09
-1.54701e-07
-1.10199e-08
2.09653e-08
1.44755e-07
-3.09222e-07
-2.99938e-10
-1.3117e-07
1.30357e-07
3.80419e-10
-9.33212e-08
-8.31912e-11
2.45e-10
-1.41973e-08
-9.42071e-08
1.51028e-07
-4.26238e-08
1.08183e-07
5.39046e-09
4.35925e-08
-1.34958e-07
1.34074e-07
-3.55835e-09
-5.6356e-08
1.42174e-07
-9.91267e-08
3.00404e-10
-1.27997e-07
-2.74126e-10
9.18901e-08
-9.37487e-08
2.24905e-10
-6.63001e-08
-6.59243e-08
1.24444e-07
7.7806e-09
1.1329e-07
1.76236e-08
-9.71377e-08
-3.37761e-08
5.1374e-08
1.52559e-07
-1.92482e-07
-1.33496e-08
-1.10317e-07
-1.94158e-08
1.2741e-07
4.11927e-11
-1.27737e-07
2.85682e-10
2.4039e-08
7.6718e-09
5.44519e-08
-8.61627e-08
-1.416e-07
7.60526e-08
-5.08846e-09
-1.16e-07
1.12897e-07
-6.8751e-09
-3.68035e-10
1.21538e-07
3.50755e-10
-8.02439e-08
-7.19797e-08
1.4511e-07
7.11366e-09
1.29351e-07
-6.95551e-08
-6.67133e-08
6.9172e-09
1.29682e-07
-2.26296e-09
-8.92876e-12
-1.01383e-07
-9.17004e-08
9.97622e-08
-1.30614e-07
-4.69978e-08
4.81839e-09
1.73931e-07
-1.06134e-07
2.9707e-08
-1.29136e-07
1.84971e-10
-1.05663e-07
6.07594e-10
-6.98982e-10
1.3466e-07
2.56835e-08
-2.74446e-08
-1.32899e-07
4.61267e-08
-1.30004e-07
-4.72601e-11
1.19093e-10
3.89886e-08
-1.94586e-07
-7.8465e-08
1.32619e-07
8.9609e-08
2.07234e-08
-1.46189e-07
-1.84162e-08
1.43882e-07
-8.15878e-08
6.2775e-09
1.33389e-07
-1.32194e-07
9.19502e-08
4.17144e-08
-1.47111e-09
-5.94957e-10
1.20528e-10
-9.72978e-08
6.68207e-08
-4.55206e-09
-1.53404e-09
-2.98717e-09
-2.35245e-09
9.57541e-08
-9.04145e-08
8.26323e-08
1.05257e-07
-1.0386e-07
-8.40286e-08
1.49359e-07
-1.66733e-07
3.67047e-10
1.38796e-10
1.57669e-07
-1.0228e-08
-1.3848e-07
-4.26206e-08
1.53035e-07
1.09814e-08
1.19058e-07
-1.12284e-07
-5.82331e-09
-9.50477e-10
-1.04529e-09
1.14497e-07
1.64762e-07
-5.72605e-08
-2.38917e-09
9.4224e-08
-8.35835e-08
-5.22833e-10
3.00157e-10
1.41095e-07
-1.5667e-07
6.93162e-09
1.44102e-07
3.4663e-09
-1.19925e-08
1.59529e-07
-1.99898e-07
4.3078e-08
1.02766e-09
9.07913e-08
-8.83089e-10
-9.09359e-08
-1.17865e-07
1.18091e-07
-1.43362e-10
1.14043e-09
-2.26678e-10
-1.12271e-07
1.11261e-07
-3.59996e-11
-1.10285e-07
-2.5148e-10
2.19372e-10
7.16864e-08
-1.03042e-07
-7.66876e-08
1.08043e-07
1.76919e-11
-1.15792e-07
1.15921e-07
-1.46793e-10
-3.97953e-08
7.84774e-08
-8.56581e-09
-1.96327e-08
-1.41396e-07
7.35248e-08
-6.0806e-09
2.82309e-08
-1.59625e-08
1.06789e-07
-1.3596e-07
6.55442e-08
6.3136e-08
7.27931e-09
-1.59122e-07
-1.11272e-07
1.11841e-07
-1.26602e-07
-4.33329e-08
5.80933e-08
1.30268e-07
-1.31027e-07
2.17565e-10
5.41017e-10
-1.77918e-09
-1.84574e-07
1.57686e-10
1.86196e-07
-1.05818e-07
4.73681e-11
1.05812e-07
-1.28119e-07
-1.13865e-10
4.95444e-10
7.25904e-08
-1.28167e-07
-6.91856e-09
2.79836e-10
-1.29892e-07
-1.64137e-10
7.64301e-08
7.69657e-08
-5.57138e-09
-7.38414e-08
-7.40564e-08
1.41635e-07
6.26253e-09
-1.17264e-07
8.79953e-10
1.16167e-07
2.16526e-10
1.24687e-07
3.07926e-08
1.10961e-07
-1.57101e-08
1.08473e-07
-5.60898e-09
-9.92567e-08
4.6797e-08
4.51972e-08
7.26255e-09
3.19713e-08
1.28788e-07
-3.34595e-08
-1.23037e-07
7.37213e-08
-7.16805e-08
-1.31846e-07
-1.06262e-07
1.16767e-07
1.21341e-07
1.0906e-07
-1.43465e-10
1.15921e-07
-1.17324e-07
1.41046e-09
-7.3271e-12
-1.31558e-07
-1.29241e-07
8.47035e-10
6.61084e-11
1.70829e-08
3.59865e-08
-1.57915e-07
1.51872e-08
-4.33533e-08
1.97284e-07
1.34611e-07
-1.14173e-07
-2.27246e-08
2.69318e-09
1.93657e-08
-2.13236e-08
1.33481e-07
-3.31379e-08
-7.90195e-08
1.0651e-07
-6.74163e-10
-1.0561e-07
-2.25245e-10
-4.19385e-08
-1.45066e-07
2.88117e-07
-1.01113e-07
1.04633e-07
-7.96923e-08
-7.95101e-10
-7.29367e-12
1.02828e-07
-3.57688e-10
7.37385e-08
-7.42379e-08
1.31172e-07
-1.72675e-07
-1.30613e-07
7.95467e-08
1.26693e-07
-2.33007e-09
-3.03184e-08
-8.23945e-08
7.12927e-08
8.52087e-08
8.2606e-09
1.68453e-07
-1.2504e-07
3.28358e-09
1.48274e-07
-8.01836e-08
7.02254e-09
1.2094e-07
-1.6044e-07
1.28767e-07
-7.80878e-08
-3.48101e-08
-1.39096e-08
1.8445e-09
1.04492e-07
-1.16091e-07
6.83084e-08
-1.29325e-07
-5.28383e-09
1.49413e-07
6.83413e-09
-4.51671e-08
1.36149e-07
-9.15835e-08
-2.17448e-09
-2.55941e-08
1.39799e-07
-1.56892e-07
4.26873e-08
1.16809e-07
2.10279e-08
-5.56927e-08
-1.98001e-09
-1.39575e-07
1.39576e-07
-9.04937e-10
-3.0038e-08
2.27527e-08
-9.75482e-08
1.04833e-07
7.54754e-08
-1.42052e-07
-5.08859e-09
-1.36162e-07
1.36585e-07
-1.43145e-10
-7.65446e-08
1.58018e-07
-1.23412e-07
-7.24001e-08
-7.96754e-08
1.57992e-08
-1.00612e-07
-1.09864e-10
2.08635e-07
3.40427e-08
-1.38599e-07
-1.06942e-07
-7.39453e-08
1.32271e-07
2.29856e-07
-1.27471e-10
-8.97847e-08
-6.10028e-11
8.99732e-08
3.25083e-08
1.10231e-07
-6.48995e-10
1.49695e-07
6.28183e-09
9.70234e-08
5.67948e-08
2.69956e-09
7.36479e-08
-1.41937e-07
-5.55182e-09
-7.30093e-08
-8.22279e-08
1.46569e-07
8.66862e-09
-9.07479e-08
-4.38779e-09
-4.12107e-09
-6.90023e-08
-1.20753e-07
1.14446e-07
-5.54598e-11
-1.24294e-07
-3.36581e-09
1.21649e-07
-9.0218e-08
-1.36804e-07
9.79636e-08
1.29058e-07
-1.12474e-07
3.90596e-08
7.66333e-08
-3.21865e-09
7.06421e-08
7.03861e-08
-1.3406e-07
-6.96802e-09
-7.1569e-08
-6.89922e-08
1.34214e-07
6.34758e-09
5.19512e-08
4.81912e-08
-1.10123e-07
9.98014e-09
-6.76023e-08
1.12782e-07
-3.67095e-08
-8.4698e-09
1.06014e-07
-1.06472e-07
-1.95797e-10
-9.45989e-08
6.5929e-10
8.24164e-08
1.06567e-07
-2.84666e-08
-1.60517e-07
-3.1327e-08
8.94006e-08
3.85478e-08
-9.66214e-08
-9.83233e-08
-1.17678e-11
1.00015e-07
-1.67942e-09
-7.41568e-08
-4.26983e-08
9.55314e-08
1.24651e-07
-3.32701e-09
7.0586e-08
-1.31503e-07
6.59953e-08
-5.07804e-09
-5.91132e-08
4.24218e-08
-1.21813e-07
1.14963e-08
1.30782e-07
-1.0613e-07
-3.49511e-08
7.43872e-08
8.32216e-08
-7.47885e-08
7.77731e-10
-1.23135e-07
-1.26593e-10
1.95043e-08
-9.2986e-09
1.04079e-07
-1.17933e-07
5.6903e-08
5.3839e-08
7.19119e-09
7.41756e-08
-4.92539e-09
3.96601e-08
6.37718e-08
7.39588e-09
8.96696e-09
1.28342e-07
-1.06162e-08
-6.49262e-09
-8.27837e-08
8.09555e-08
1.35309e-07
-7.49022e-08
-1.58071e-07
1.58637e-07
1.66047e-07
5.86193e-08
-5.61275e-08
-1.68538e-07
1.44131e-08
-1.30398e-07
1.40024e-07
-7.907e-08
-7.19581e-08
1.4426e-07
6.7683e-09
-4.71344e-08
-1.13491e-07
1.92525e-09
6.84731e-08
-6.7777e-09
1.30917e-07
-6.03403e-10
-4.57075e-11
2.24996e-08
-8.67173e-08
9.24486e-08
2.19471e-10
2.35107e-10
-1.36617e-07
-2.96396e-09
8.38008e-08
-8.11858e-08
1.14859e-08
-8.46939e-08
1.44775e-07
-7.15672e-08
-2.82034e-08
-1.36249e-07
1.21563e-09
1.63237e-07
9.40223e-08
-1.80823e-07
7.07672e-08
1.6034e-08
-1.23596e-07
9.09889e-08
-9.85626e-08
1.0127e-07
-6.52256e-10
-1.00309e-07
-3.08447e-10
-4.58963e-08
-1.29372e-07
4.6362e-08
1.28907e-07
-7.31608e-08
-1.23747e-07
1.498e-07
4.71071e-08
-2.88318e-09
-1.43388e-07
1.44051e-07
2.22069e-09
-1.26307e-07
1.26144e-07
-1.61577e-09
-1.45122e-07
1.28247e-07
-6.45165e-08
1.38723e-07
7.12398e-08
-5.98044e-09
7.7271e-08
-1.3779e-07
-6.42905e-08
-1.26954e-07
8.84452e-08
-1.03091e-07
-1.35971e-08
1.43334e-07
-8.84098e-08
-3.50056e-08
1.21464e-07
-1.19456e-07
-3.36955e-09
1.36203e-09
-9.84818e-08
-2.37062e-09
4.19376e-09
1.45097e-10
-1.50946e-07
1.47918e-07
-9.11575e-08
-3.61883e-10
7.7154e-10
-9.3592e-08
7.86808e-08
1.55075e-08
-5.96271e-10
-5.59855e-08
-1.34176e-07
1.80511e-07
9.65034e-09
1.16594e-07
-4.87711e-10
5.68103e-08
4.84472e-08
-1.14073e-07
8.81558e-09
-1.09723e-07
-5.66092e-10
1.09994e-07
2.95236e-10
-1.07208e-07
1.53437e-08
-2.54602e-08
6.36572e-08
-1.21841e-07
5.14672e-08
6.71707e-09
-4.70213e-09
-9.47866e-08
4.28957e-09
1.50357e-09
-1.34944e-07
1.59418e-09
5.39859e-08
7.52274e-08
-9.83538e-08
1.98069e-08
6.6524e-08
2.08581e-08
1.28177e-07
-1.28724e-07
5.80955e-10
-3.3306e-11
-2.07492e-07
1.95604e-07
8.61002e-08
-7.4212e-08
5.73797e-08
-1.47893e-07
1.13677e-07
-2.31629e-08
7.50544e-08
-6.7382e-09
-6.84023e-10
-5.47735e-11
5.81762e-08
-6.1747e-08
-1.16587e-07
1.66095e-07
-1.37811e-07
1.14389e-07
-1.50653e-08
6.87707e-10
-1.53063e-07
1.52368e-07
1.31232e-07
-1.59855e-07
-1.41539e-09
-8.7794e-08
-8.35008e-08
1.64416e-07
6.87912e-09
9.50554e-08
1.34371e-10
-9.52392e-08
4.93629e-11
-1.48575e-07
7.95062e-08
7.37184e-08
-4.64982e-09
-2.01241e-07
1.24903e-07
-1.3968e-07
2.16017e-07
-1.94099e-07
2.5395e-08
-4.59608e-08
-1.13735e-07
-1.6504e-07
1.01427e-07
3.80186e-08
-1.47958e-08
-1.29225e-07
1.40841e-07
3.17957e-09
-3.34179e-09
-1.12695e-07
-9.69627e-09
1.15405e-07
-1.12723e-07
1.16914e-07
-3.70778e-08
1.68676e-07
1.35446e-07
1.25724e-07
-1.30193e-07
-1.24091e-07
3.96129e-10
1.20147e-07
-1.20618e-07
7.50901e-11
1.03924e-07
-1.12532e-07
3.90641e-09
-8.06513e-08
-6.29516e-10
7.05926e-08
1.05823e-07
-4.54985e-08
6.41184e-08
-1.23905e-07
-4.73033e-09
-3.31146e-10
1.17004e-07
-1.16793e-07
1.20612e-10
-1.208e-07
-2.99305e-10
1.21783e-07
-6.84403e-10
-1.23162e-07
4.52037e-08
-3.43252e-08
-1.20494e-08
1.01486e-07
8.11705e-08
-1.18644e-09
-1.8147e-07
3.04257e-09
-9.62174e-11
-1.74353e-08
8.39257e-08
-1.50587e-07
8.40969e-08
-1.30017e-07
1.31952e-07
6.74959e-08
-6.28435e-09
2.82126e-08
-1.34968e-07
-3.81771e-08
1.44933e-07
4.18674e-08
1.18542e-08
3.49544e-08
-8.8676e-08
7.10533e-08
7.76088e-08
-1.42322e-07
-6.34e-09
-1.06434e-07
1.04672e-07
1.74885e-09
1.3539e-11
-7.01247e-08
7.28913e-09
5.73039e-08
-5.51321e-08
1.29475e-07
-1.31647e-07
-1.08013e-07
2.28948e-07
-4.77335e-08
-7.32014e-08
8.87338e-08
-7.42129e-08
-7.77093e-08
6.31884e-08
7.04789e-08
-5.78996e-08
-1.40584e-07
5.54537e-08
8.58529e-09
6.00193e-08
8.31125e-08
7.76483e-08
7.97971e-08
-1.51325e-07
-6.12023e-09
1.39097e-07
8.29283e-09
-6.41147e-09
-1.40979e-07
1.06119e-07
7.63524e-10
-3.73398e-10
1.00103e-07
-1.02003e-07
2.37339e-09
-4.72508e-10
-6.7975e-08
-8.00011e-08
1.41087e-07
6.8887e-09
-1.25121e-07
1.53635e-09
4.22098e-10
-1.10032e-07
-4.38895e-11
3.53333e-10
1.17017e-08
1.28112e-07
1.15617e-07
1.99584e-09
-1.01897e-09
1.52563e-10
-1.06968e-07
1.06249e-07
1.00838e-07
1.78549e-08
2.77084e-09
-1.24205e-08
3.76193e-08
-1.248e-07
9.96015e-08
1.29745e-07
-1.29527e-07
-1.06308e-10
-1.11842e-10
-3.08242e-08
-1.23104e-07
1.79323e-07
-1.23354e-07
-1.9877e-08
1.4854e-07
-5.30893e-09
1.60037e-07
-1.35796e-07
-2.34027e-08
-2.13941e-08
1.33531e-07
1.31088e-07
-1.3209e-07
4.26777e-10
5.76035e-10
1.5589e-07
-4.80878e-08
-1.53435e-07
4.56325e-08
1.29488e-07
-1.29644e-07
1.53306e-07
-1.5315e-07
9.36175e-09
-1.29535e-08
-1.02368e-07
1.0596e-07
2.77579e-08
-1.06881e-07
-4.53372e-08
1.2446e-07
9.01418e-08
8.17652e-08
-1.64672e-07
-7.23475e-09
2.12095e-07
-2.24414e-07
-1.16429e-07
-1.17968e-07
1.06632e-07
-1.36123e-08
1.30995e-08
-1.93794e-07
1.68184e-07
-8.93447e-08
1.39619e-07
-2.37409e-07
1.87135e-07
8.27344e-08
-1.65977e-07
-6.10181e-09
2.12436e-08
9.32899e-08
-1.61128e-08
-9.84206e-08
-1.55745e-09
1.24734e-07
-1.47846e-08
-1.04826e-07
-6.14625e-08
1.60068e-07
-1.11737e-07
1.31318e-08
-2.85246e-08
8.23954e-08
-4.6371e-08
-7.49986e-09
2.97524e-10
-1.03583e-07
1.03722e-07
-4.3601e-10
2.77324e-09
1.29707e-07
-1.31342e-07
-1.13816e-09
-4.28712e-08
-1.31744e-07
1.43816e-07
3.68899e-08
-5.11681e-08
1.55588e-07
6.88082e-09
-4.99433e-08
-4.61968e-08
1.31575e-07
-2.34821e-07
-1.65384e-08
-1.57937e-07
1.24817e-07
-7.4893e-08
1.28304e-07
-1.25051e-07
-4.79762e-10
-1.02297e-07
1.54718e-09
-2.28563e-09
1.03035e-07
6.44963e-08
-1.98333e-07
-1.51657e-07
-5.02493e-11
1.31325e-07
-1.31051e-07
-2.24076e-10
-1.24717e-07
-4.40405e-08
1.59879e-07
5.93419e-09
-9.47406e-09
1.15293e-07
-1.03301e-07
-1.18392e-08
1.50689e-07
-1.2114e-07
4.32297e-10
-9.16985e-11
6.70252e-08
-1.5875e-07
8.62615e-08
5.46308e-09
-1.49028e-09
-1.23182e-07
-1.56375e-09
1.32418e-07
6.13087e-09
-1.09217e-07
5.56288e-08
5.1711e-08
1.87691e-09
-1.10888e-07
3.03731e-08
1.50994e-07
-6.28046e-11
1.41276e-07
-7.32622e-10
-1.4048e-07
7.57547e-09
1.24669e-07
-2.65516e-08
-1.05693e-07
1.49707e-07
-1.70657e-07
8.84442e-08
-6.7494e-08
4.73925e-08
1.19452e-07
-5.86211e-08
-6.84528e-09
8.61982e-08
1.0029e-07
-1.75623e-07
-1.38138e-08
-6.86911e-09
1.13804e-07
-1.37293e-07
1.2066e-07
3.23942e-10
-1.21027e-07
4.26628e-11
7.56764e-09
1.04513e-07
-3.8971e-09
8.2721e-08
-2.05535e-07
3.2596e-08
-1.37452e-07
2.15175e-09
-7.75311e-08
-6.60532e-08
1.36658e-07
6.92667e-09
-1.10477e-07
-5.08519e-08
3.39383e-08
1.27391e-07
-1.238e-07
-6.33756e-10
-6.87325e-10
-7.25313e-08
1.53253e-07
-8.6724e-08
6.00218e-09
7.76802e-08
-1.54141e-07
8.02521e-08
-3.79081e-09
-1.169e-07
-2.26503e-10
1.06535e-07
-1.09409e-07
4.806e-09
-1.93269e-09
1.57087e-07
-8.79959e-08
8.58869e-09
-1.19366e-07
2.01752e-08
-2.02656e-08
6.15897e-08
-1.01881e-07
-2.30168e-08
1.3023e-07
-1.29354e-07
-1.88294e-10
7.06676e-08
6.33646e-08
-6.32183e-08
-7.08138e-08
8.29852e-08
1.54657e-07
-1.67001e-07
8.20624e-08
6.98705e-08
-1.46579e-07
-5.3538e-09
-1.20253e-07
6.34864e-08
4.93518e-08
7.41518e-09
2.19499e-10
1.30522e-07
3.4585e-10
8.25934e-08
7.7072e-08
-1.54185e-07
-5.48081e-09
1.10225e-07
1.21077e-07
-9.92154e-09
-1.07474e-07
-3.68121e-09
9.91712e-08
7.56654e-11
1.53134e-07
-1.54626e-07
-8.47925e-08
8.6285e-08
5.1841e-08
6.19025e-08
7.33355e-09
-6.24723e-09
-2.39929e-07
1.94899e-08
1.52511e-07
-3.63525e-09
6.32396e-09
1.58465e-07
1.36227e-07
-2.31035e-07
-1.27718e-07
1.06772e-09
-1.56342e-09
1.28214e-07
7.00928e-10
1.03019e-07
-1.03607e-07
-1.12792e-10
-8.24972e-08
1.87882e-07
-1.84455e-07
5.39018e-08
1.27901e-07
-6.72744e-08
-1.14528e-07
4.7679e-08
6.06229e-08
-1.15853e-07
7.55123e-09
1.547e-07
-1.18792e-08
2.15946e-08
-1.38362e-07
-5.57549e-09
4.96008e-08
-1.48596e-07
-1.91989e-08
-9.8672e-08
-1.15663e-07
1.09114e-07
2.08915e-08
-5.17204e-09
-2.12314e-08
1.00115e-07
3.02303e-08
4.00982e-08
-8.13327e-08
-3.21766e-09
1.29875e-07
3.83654e-09
1.33124e-10
4.15292e-10
-2.17038e-07
-1.55791e-08
-4.89905e-10
1.11756e-07
1.51077e-08
-1.18855e-07
-1.50649e-08
2.84079e-07
-1.25038e-07
-1.43976e-07
-1.75026e-07
1.42739e-07
1.19182e-07
-1.50829e-07
-7.09208e-08
7.66834e-08
-7.85726e-08
7.281e-08
1.22982e-07
-1.2746e-07
-3.93687e-09
8.41536e-09
-4.09654e-09
-6.60339e-08
8.25628e-08
-1.91555e-07
-8.33738e-08
6.74381e-08
-3.69335e-08
-1.22665e-07
2.75358e-07
-4.29765e-08
-1.01949e-07
-1.38246e-08
-7.9618e-08
1.6039e-07
2.21277e-09
-3.44282e-08
-7.39308e-08
9.26326e-08
1.57265e-08
4.13194e-08
-1.85361e-07
8.40163e-08
6.0025e-08
-1.10436e-07
1.10176e-07
-1.17436e-10
3.77404e-10
9.51025e-08
-1.74572e-10
1.44311e-08
1.29738e-07
1.16884e-07
-7.63049e-09
-8.65011e-08
-1.54645e-07
1.8537e-08
8.20153e-10
1.37084e-07
-1.02697e-07
1.52453e-07
-4.73041e-08
-5.99806e-09
3.12127e-09
1.29883e-07
-3.12926e-09
1.0863e-07
4.05569e-08
-1.58323e-07
-3.08088e-08
-1.29529e-07
-1.12359e-07
-8.77072e-08
4.53653e-08
-1.14675e-08
1.12233e-07
-8.81516e-09
-9.77065e-08
-1.12377e-07
-3.21189e-09
9.81324e-08
-1.26233e-07
1.02035e-07
-6.61903e-10
-1.00755e-07
-6.17843e-10
-2.66187e-08
-1.52661e-07
-1.82842e-07
1.82512e-07
1.16279e-07
-4.87319e-08
1.11503e-08
-7.86971e-08
1.16719e-07
-6.19815e-10
-1.15986e-07
-1.13244e-10
9.31448e-10
1.05538e-07
-1.06764e-07
2.94478e-10
2.99019e-08
1.23476e-07
-3.77607e-08
-8.01353e-08
-8.46145e-08
1.06082e-08
7.95329e-09
1.12735e-07
-1.16702e-07
-3.98689e-09
-1.28656e-07
1.38858e-07
-2.24856e-09
-1.37221e-07
-3.76324e-09
-1.53276e-07
1.55251e-07
-5.73132e-08
-8.7735e-08
1.51191e-07
-6.14245e-09
1.10746e-07
-1.49254e-08
7.02356e-10
-7.25114e-11
4.81893e-08
1.21221e-08
-8.71551e-10
-3.22293e-10
7.72837e-08
8.45385e-08
-5.93196e-09
-3.46841e-08
1.02663e-07
8.08957e-08
-2.89942e-07
-1.59741e-07
2.93508e-07
1.54704e-07
1.38876e-07
-5.82215e-08
-8.91401e-08
6.19759e-09
-6.91213e-10
-1.27664e-07
-3.68924e-10
5.57838e-08
6.44129e-08
-1.19129e-07
-1.06812e-09
-1.17508e-07
1.17343e-07
1.31231e-10
3.41273e-11
1.0788e-07
3.31324e-08
-1.41308e-08
1.4966e-09
1.98658e-07
-4.5507e-09
-5.43268e-08
-8.26415e-08
-3.61526e-09
-8.56307e-08
-2.37552e-08
6.91724e-10
1.10089e-07
-1.10017e-07
7.98694e-08
-1.96055e-07
1.09558e-07
-1.07719e-09
-6.01051e-10
7.13976e-08
6.65038e-08
-1.33993e-07
-3.90865e-09
-1.64904e-07
8.23543e-08
-2.32888e-08
-2.74524e-08
-3.77711e-08
1.3007e-07
-6.4846e-08
-3.01317e-08
7.24311e-08
3.1419e-08
-1.43179e-07
-9.10397e-08
9.61013e-08
1.38118e-07
7.80193e-08
-5.81619e-09
6.61902e-08
1.31395e-07
-5.40622e-08
-1.43523e-07
-3.7805e-09
1.19101e-07
1.51723e-08
-1.30493e-07
1.13511e-07
-9.6427e-08
-2.11237e-08
4.04003e-09
1.44535e-07
-1.94837e-07
1.80009e-07
1.44031e-07
-6.98804e-08
-6.72741e-08
-6.87617e-09
4.31133e-08
-1.72305e-07
-1.23227e-07
-1.23223e-07
2.27567e-11
-1.91027e-07
1.60956e-07
-1.66803e-07
1.96874e-07
8.26769e-08
-1.6129e-07
-2.64455e-08
1.21542e-07
-1.20492e-07
-4.67361e-10
-5.82112e-10
6.12606e-08
-1.22021e-07
-5.27363e-09
-6.77624e-09
8.01143e-08
-1.76806e-07
8.04221e-08
-1.38136e-07
-4.02002e-11
2.32886e-10
1.37943e-07
-1.25811e-07
1.41247e-07
-1.50604e-07
-8.82442e-08
-2.77707e-08
-7.23409e-09
6.04206e-08
7.03848e-08
-5.9886e-09
-5.35077e-08
-6.09053e-08
-5.84026e-09
-3.74553e-09
-1.05503e-07
-1.02418e-07
-1.06216e-09
-5.73666e-09
7.05608e-08
-7.01995e-08
7.04928e-10
-1.0662e-09
1.08692e-07
-1.06544e-07
-1.38999e-09
-7.58705e-10
-1.13124e-09
1.29221e-07
-1.28029e-07
-6.0576e-11
-1.34175e-07
1.44308e-08
1.14039e-07
5.70517e-09
1.29036e-07
-1.2258e-07
-4.48307e-09
-1.97298e-09
-1.09084e-07
-1.18401e-09
1.10932e-07
-6.64262e-10
-1.05364e-07
-6.4334e-08
9.83012e-08
3.45082e-08
-9.61681e-09
-1.23193e-07
7.67849e-08
-8.15689e-08
3.92978e-09
8.54167e-10
4.58443e-08
3.77819e-08
-1.29523e-07
1.10949e-07
-1.07943e-07
-7.41996e-09
4.41472e-09
-5.15593e-08
5.19851e-08
1.54634e-07
5.57735e-09
1.30408e-07
-9.74422e-08
1.22381e-08
-2.79334e-08
-1.19276e-08
-1.03318e-07
-3.10227e-08
1.99501e-07
6.07807e-09
-1.74234e-07
1.32015e-07
-3.39624e-08
-1.96977e-08
2.12864e-08
-8.12239e-08
6.06595e-09
-1.27001e-07
1.26804e-07
5.90702e-08
-7.12325e-08
-3.0536e-08
7.82631e-08
2.1542e-09
6.21442e-08
5.64033e-08
-7.66802e-08
-8.41098e-08
1.16077e-07
-1.28472e-08
-7.13337e-08
5.92422e-09
9.55099e-08
1.14799e-08
2.27562e-08
2.50907e-08
-1.07034e-08
5.21082e-08
6.0409e-08
6.93518e-09
-4.99275e-08
1.63388e-07
-1.69446e-07
-1.77348e-07
8.80185e-08
2.24147e-07
-1.50919e-07
1.07651e-07
-3.27842e-08
6.18031e-08
-1.3667e-07
-1.24958e-07
-4.30868e-08
-1.46442e-07
-5.70729e-09
-1.02981e-07
8.11918e-08
-8.94517e-08
1.11241e-07
8.6167e-09
-1.21335e-07
-1.43087e-07
-7.63407e-09
-3.90546e-09
-1.2915e-07
1.16947e-07
1.25714e-07
1.98268e-08
1.0408e-07
2.1119e-09
-1.34535e-07
1.24333e-07
-8.67109e-08
9.69128e-08
-1.02746e-07
1.34529e-08
-2.07389e-08
-3.50523e-08
1.27396e-08
8.02587e-08
-4.71915e-08
-1.13336e-07
-4.41423e-08
1.24126e-08
-7.17369e-08
-8.61612e-08
7.72343e-09
-7.08785e-08
8.14135e-08
8.1298e-08
2.38052e-08
4.30137e-08
-1.48117e-07
4.87274e-08
3.48071e-08
-7.62089e-08
-6.51602e-10
-8.09785e-08
-9.11395e-08
7.21431e-09
6.31681e-08
-7.35381e-08
-4.85123e-08
5.88823e-08
-4.95827e-08
-9.09064e-09
1.48864e-07
-1.87885e-07
3.9612e-08
-5.90301e-10
-8.3844e-09
2.76724e-08
8.0294e-08
-9.9582e-08
5.42146e-10
-9.5139e-08
-9.16424e-10
9.55132e-08
-1.01986e-07
1.01498e-07
2.40855e-10
2.47124e-10
1.31859e-07
-7.23242e-08
-1.33591e-07
-6.17368e-08
-3.86178e-08
1.02049e-07
-1.69447e-09
1.55578e-07
1.18019e-08
-1.17879e-07
6.01846e-09
-1.41497e-07
1.67226e-08
-5.5264e-10
-1.34051e-07
-1.15347e-07
1.15633e-07
-3.25828e-10
1.12807e-07
4.52709e-08
-1.43768e-07
-1.25415e-08
-1.4747e-08
2.2581e-07
-8.39592e-10
-7.49292e-08
-9.64811e-10
9.86399e-08
-9.77324e-08
1.20105e-10
-1.79929e-09
1.12897e-08
2.66774e-08
1.23702e-07
-2.64324e-08
1.17743e-07
-9.01844e-09
-3.28967e-09
1.29094e-07
-1.24381e-07
-1.42274e-09
-1.04414e-07
1.10309e-07
-5.61988e-09
1.2313e-07
5.57726e-09
-3.20714e-08
-9.66358e-08
1.20003e-07
1.74177e-09
-1.19682e-07
-2.06306e-09
-7.15315e-08
-5.44353e-08
7.164e-08
9.02905e-08
1.51391e-09
1.58413e-07
1.95822e-08
-3.63595e-08
-1.47346e-08
3.7123e-09
-7.87625e-08
1.23583e-07