/*--------------------------------*- C++ -*----------------------------------*\
| =========                 |                                                 |
| \\      /  F ield         | OpenFOAM: The Open Source CFD Toolbox           |
|  \\    /   O peration     | Version:  2212                                  |
|   \\  /    A nd           | Website:  www.openfoam.com                      |
|    \\/     M anipulation  |                                                 |
\*---------------------------------------------------------------------------*/
FoamFile
{
    version     2.0;
    format      ascii;
    arch        "LSB;label=32;scalar=64";
    class       volVectorField;
    location    "0.042";
    object      U;
}
// * * * * * * * * * * * * * * * * * * * * * * * * * * * * * * * * * * * * * //

dimensions      [0 1 -1 0 0 0 0];

internalField   nonuniform List<vector> 
31639
(
(0.122135 0.000621129 -0.000572751)
(0.119124 -0.000420305 -1.32809e-05)
(0.12101 -0.00027157 0.000853637)
(0.124289 3.11748e-05 -0.00023554)
(0.120793 -0.000759547 -0.000315877)
(0.119807 -8.30597e-05 -3.90421e-05)
(0.118967 1.36061e-06 -0.000278845)
(0.121669 -8.36152e-05 -3.88012e-05)
(0.121494 0.000194988 -0.00024417)
(0.122505 -0.000432606 -0.00050095)
(0.12318 0.000462857 -8.12191e-05)
(0.122277 -0.000570872 -0.000785746)
(0.119823 -0.000430621 8.67561e-06)
(0.12238 -2.6406e-06 0.000162605)
(0.118319 -0.000362151 6.62903e-05)
(0.119338 -0.000419077 0.000768216)
(0.121021 0.000366244 0.000167758)
(0.118474 4.81757e-05 0.000408809)
(0.119585 3.89489e-05 -0.000396654)
(0.120539 -9.73796e-05 -0.000156716)
(0.114236 -0.000240032 -0.000419545)
(0.123185 -0.000325316 -0.000599443)
(0.122837 0.000701204 -0.00020749)
(0.119466 0.000163633 -0.000270152)
(0.118024 -0.000161763 -0.000124115)
(0.121215 -0.000212711 8.31129e-05)
(0.12039 8.94253e-06 -0.000144195)
(0.122531 0.00100315 -7.62593e-05)
(0.118885 0.000413753 0.000646215)
(0.122697 -8.48517e-05 0.000564263)
(0.123114 -0.000159227 -9.28637e-05)
(0.118437 -5.73339e-05 -0.000180166)
(0.122979 0.00033375 -0.000495976)
(0.119369 -0.000178567 -7.31512e-05)
(0.11584 9.6964e-05 0.000222947)
(0.123159 0.000439626 9.57429e-05)
(0.113114 -0.000348115 -9.06503e-05)
(0.12394 -0.000527063 0.000312134)
(0.122791 -0.000384037 0.000270533)
(0.113049 4.29861e-05 -0.000114097)
(0.11679 -6.49166e-05 -0.000339188)
(0.11538 -0.00045976 8.18159e-05)
(0.122061 0.000107481 -4.59037e-05)
(0.123612 -0.000770621 -0.000878426)
(0.122326 -0.000653294 0.000733651)
(0.123609 -0.000837986 -0.000406064)
(0.117238 0.000290419 -0.00029602)
(0.120471 0.000473758 -0.000365255)
(0.120579 -8.40534e-05 0.000203422)
(0.123828 -0.000428783 -0.000259515)
(0.123267 -0.000215245 -0.000510706)
(0.114676 0.000137097 -0.000247107)
(0.122736 0.000594937 0.000235557)
(0.113842 -0.000273523 0.000395345)
(0.120885 -0.000396325 -0.000175467)
(0.12053 0.000161305 9.45234e-05)
(0.115142 -7.958e-05 -0.000652592)
(0.120416 7.06264e-05 0.00031886)
(0.119921 0.000116838 0.000372319)
(0.115803 0.000246586 -0.000190243)
(0.121946 -0.000196983 -0.000480772)
(0.122481 0.000351695 -0.000172458)
(0.11846 -0.000239482 -0.000339393)
(0.119964 -3.93641e-05 -0.000196947)
(0.121416 0.000409649 0.00021091)
(0.123854 -0.000271285 -0.000517358)
(0.121392 9.69725e-05 -0.000994669)
(0.120189 -0.000310851 0.000119828)
(0.116863 3.14587e-06 -0.000401405)
(0.123838 0.000310025 -0.000194405)
(0.121874 0.00013391 -6.0784e-05)
(0.116969 0.000276007 -0.00120925)
(0.122201 -0.000409059 -0.000823732)
(0.12062 -0.000197633 -0.000200516)
(0.121722 0.000593361 4.68881e-05)
(0.114126 0.000319178 -0.000626967)
(0.123208 -0.000651971 0.00026241)
(0.119871 0.000226781 -0.000638225)
(0.119224 -0.000215961 0.000372087)
(0.122044 0.000265678 -3.01758e-05)
(0.118462 -7.64996e-06 0.000103201)
(0.111633 -0.000251435 3.53618e-05)
(0.123286 -0.000364798 0.000151507)
(0.120835 -0.000236967 -0.000265296)
(0.12093 -8.25291e-05 -0.000127915)
(0.123151 -0.000418031 -0.000282394)
(0.123913 -2.82469e-05 0.000133267)
(0.123406 -0.000199839 -0.000461146)
(0.115034 0.000887698 -0.0014519)
(0.122519 -0.000282971 -0.000484051)
(0.12101 -0.00036234 0.000257232)
(0.11965 -0.00047922 -0.000123556)
(0.116039 -0.000511684 -0.000424784)
(0.118303 0.000563278 -0.00080751)
(0.118537 -0.000805125 -0.000395633)
(0.119143 0.00092697 0.000394662)
(0.120914 0.000197283 -0.000478153)
(0.120516 -0.000185714 0.000134384)
(0.119902 0.000174404 0.000284557)
(0.115149 -0.00104815 -9.80551e-05)
(0.121686 0.000214109 -5.76396e-05)
(0.121461 0.00030454 0.00079417)
(0.1186 -0.00029564 -0.000163842)
(0.114435 7.53106e-05 -0.000177063)
(0.115664 -6.17139e-05 -0.000363247)
(0.123662 -0.000613437 -0.000290259)
(0.113897 0.000357704 -0.000443028)
(0.114988 -0.000889791 -0.00086701)
(0.117395 0.000409737 -2.71571e-05)
(0.113383 -0.000297731 0.000646559)
(0.121626 -0.00124473 0.000313336)
(0.116126 -8.82283e-05 -0.000267283)
(0.119859 5.49194e-05 -0.000206381)
(0.119566 -0.00067789 -0.00065994)
(0.12018 0.000157145 -0.000830669)
(0.114122 -0.000530012 0.000269962)
(0.119584 0.000607264 6.00777e-05)
(0.119058 -0.000725953 -0.000161926)
(0.121546 9.872e-05 7.46967e-05)
(0.119731 -0.000347565 6.74639e-05)
(0.121362 -0.000404302 -0.000140417)
(0.122154 -0.000485691 0.000342313)
(0.12288 8.58382e-06 -0.000610547)
(0.121914 0.000332924 -0.000720096)
(0.121739 -0.000214445 -0.000834388)
(0.122591 -0.000386103 0.000131606)
(0.119643 -2.80646e-05 0.000356853)
(0.118476 0.000162847 -0.000274589)
(0.11821 -0.00060753 -0.000332737)
(0.122461 -0.000248895 0.000163849)
(0.12203 0.000145703 -0.000232889)
(0.122717 0.000153178 -0.000499985)
(0.121886 -0.000562158 -1.42486e-05)
(0.120705 -0.000180509 8.77514e-05)
(0.122934 -0.00014434 -0.000131486)
(0.120547 -0.000106508 2.0967e-05)
(0.11592 -0.000155488 -0.000311324)
(0.114977 -0.000711563 -0.000439954)
(0.122978 0.000384454 0.000583468)
(0.120074 -0.000457595 -0.00047592)
(0.119753 -0.000205776 -0.000407641)
(0.123554 0.000274354 0.00107418)
(0.122619 0.000455975 0.000292203)
(0.114428 -0.000352755 -0.000482032)
(0.114802 -0.000108731 -0.000675353)
(0.122369 -0.000228378 1.2273e-05)
(0.122115 -0.000122706 -0.000260879)
(0.115486 -0.00026058 -0.00044768)
(0.116042 -0.000103231 0.000161068)
(0.122774 -0.000443699 9.00729e-05)
(0.11808 -0.000127017 -0.00118222)
(0.119585 -3.04897e-05 0.000219841)
(0.120258 -0.000402663 -0.000852651)
(0.122572 -0.000153673 6.78691e-05)
(0.116354 0.000626764 -0.00122959)
(0.124279 -1.12708e-07 2.19787e-05)
(0.121789 -0.000310275 -0.00025475)
(0.116819 -0.00124386 -0.000190176)
(0.115313 -0.000745378 0.000967269)
(0.11925 -0.000390543 -0.000179386)
(0.123574 -0.000164357 -0.000460807)
(0.114232 0.000232587 0.000116435)
(0.116036 0.000156245 -0.00110686)
(0.115124 -0.000418395 0.000151402)
(0.114356 -0.0011706 7.59828e-05)
(0.118508 0.000274668 -0.000281898)
(0.115237 0.000368895 0.000143103)
(0.123179 -0.000685655 0.00022002)
(0.123146 -0.000467083 0.000247988)
(0.115282 0.000233371 -0.000778674)
(0.116021 -0.000764838 0.000404831)
(0.119351 0.000680161 -0.000597453)
(0.115702 -7.75887e-05 -4.41461e-05)
(0.12059 -8.73897e-05 0.000494633)
(0.123766 -0.000267305 -0.00024721)
(0.121892 -0.000638568 -0.000459158)
(0.120248 0.000626164 0.000244077)
(0.122449 0.000305599 0.000413436)
(0.120829 -0.000490907 -7.62861e-05)
(0.119107 -0.000406637 -0.000147217)
(0.119389 0.000143803 -7.26013e-05)
(0.119458 -0.00058788 0.000735142)
(0.118547 1.28625e-05 0.000213829)
(0.113341 0.00105582 -0.000602871)
(0.121131 -0.000129267 0.000103131)
(0.123343 0.000207961 -0.000252903)
(0.118901 0.000116221 0.000630623)
(0.122848 0.000227778 -9.36666e-05)
(0.115988 -0.00024532 8.13197e-05)
(0.113854 -0.000168325 0.000393457)
(0.123801 -0.000257295 -6.77137e-05)
(0.122561 -0.000244239 -0.000306772)
(0.120504 -0.000330229 0.00052653)
(0.119651 -0.000112472 0.000270081)
(0.120128 -0.000156164 -0.000410416)
(0.120507 -0.000173103 -0.000697401)
(0.120216 0.000592384 0.000433261)
(0.122293 0.000395802 -0.00048352)
(0.115771 -0.00015891 -0.00031439)
(0.119195 0.000132977 -0.00020984)
(0.1235 2.19181e-05 0.000211064)
(0.122312 -0.0002973 5.42697e-05)
(0.121454 -0.000311107 0.000167437)
(0.120085 -0.00152346 -0.000640762)
(0.12063 -0.00060047 -0.000464689)
(0.118883 3.42889e-05 -0.000380932)
(0.119996 -0.00022948 -0.000467839)
(0.118558 0.000584871 -0.000599678)
(0.122511 7.39529e-05 -0.000541175)
(0.114255 -0.000171707 -1.07628e-05)
(0.120089 -7.54431e-05 -0.000139464)
(0.11968 0.000454202 -2.38275e-06)
(0.120917 6.3455e-05 -0.000443102)
(0.122901 -0.000108692 -0.000511721)
(0.122298 -0.000536826 -0.000404297)
(0.123177 -0.000156047 -0.000298461)
(0.115849 -0.00109226 -0.00038297)
(0.11827 -0.000608426 0.000485509)
(0.12239 -0.000378913 -0.000260736)
(0.123169 -0.000184447 0.000274156)
(0.122066 4.51103e-05 0.000300433)
(0.120397 -0.000417641 -0.000527207)
(0.112656 -0.00028154 0.000630977)
(0.119926 -0.00056435 0.000505611)
(0.115245 -0.000626348 -0.000311709)
(0.118392 0.000402962 8.0843e-05)
(0.122461 -0.000470818 0.000532545)
(0.118427 0.00012655 0.000456036)
(0.114572 0.000418162 -0.000268304)
(0.120672 0.000170306 0.000231891)
(0.12186 0.000476354 -0.000239306)
(0.123477 -0.000425006 -5.34448e-05)
(0.114981 -0.000320096 -1.57712e-05)
(0.114167 -0.000756729 0.000249056)
(0.121138 -0.000346439 0.000358062)
(0.122765 8.24378e-06 -0.000639282)
(0.115414 2.08209e-05 0.000474075)
(0.122786 -0.000726239 0.000283925)
(0.117951 1.93826e-05 -0.000484024)
(0.115973 -0.000462183 0.000174804)
(0.11945 0.000238757 -0.000386331)
(0.12154 -0.000325509 5.32181e-05)
(0.118586 -0.00104029 -9.1544e-05)
(0.11767 0.000218764 0.000935845)
(0.118787 0.00034032 0.000380169)
(0.120516 -0.000170744 -0.000139125)
(0.118901 0.000503723 -0.000509843)
(0.117852 0.000541237 -0.00103739)
(0.114336 -0.000477279 0.000530325)
(0.119035 0.000310275 -0.000624606)
(0.119453 0.000129177 -0.000708383)
(0.116984 -0.000123923 -2.41531e-05)
(0.118618 -0.00112692 0.00034096)
(0.122866 0.000137398 -0.000175541)
(0.123125 0.00060718 0.00015083)
(0.120555 0.000475499 -9.1995e-05)
(0.115875 0.000168029 -2.93128e-05)
(0.122635 0.000278659 -0.000182331)
(0.12214 0.000356376 -0.000524845)
(0.120354 -0.000430226 -0.000322735)
(0.123946 0.000128294 0.000826056)
(0.12348 0.000109062 -0.000400571)
(0.121668 0.000219273 -0.000438449)
(0.123294 -5.3488e-05 8.11524e-05)
(0.118609 0.000441866 0.000176094)
(0.120289 -0.000296389 -0.000664897)
(0.114405 0.000308961 -0.00159611)
(0.118509 -4.32253e-05 -0.00016426)
(0.122506 -0.000986449 0.000296701)
(0.118494 4.16569e-05 0.000369196)
(0.122565 0.000350149 -0.000141199)
(0.119781 0.000483937 -0.000705093)
(0.120909 -0.000209736 8.32334e-05)
(0.121736 0.000234314 0.000389807)
(0.123604 -5.76263e-05 -0.000706181)
(0.12065 0.000646275 0.000162659)
(0.115225 0.00027673 -3.77228e-06)
(0.119527 0.00018741 0.000205557)
(0.116631 0.0016067 -0.00036532)
(0.123089 -0.000306383 -0.000961425)
(0.119679 -0.000605504 -0.000361024)
(0.122599 8.47779e-05 -0.000448156)
(0.120872 0.000184061 -0.000159365)
(0.118715 -0.000148295 -0.000471415)
(0.114351 -6.18357e-05 1.86217e-07)
(0.116457 9.0888e-05 -0.000576916)
(0.115701 0.000315449 0.000276619)
(0.114163 -0.000343431 0.000116215)
(0.123407 -0.000368524 -0.000431502)
(0.114766 -0.000477488 -0.000596575)
(0.121262 -0.000432451 0.000237069)
(0.120535 0.00055293 -0.000294953)
(0.119625 5.00311e-05 -0.000233643)
(0.116095 -0.000212003 -0.000264947)
(0.123115 -0.000808483 -9.1048e-06)
(0.119857 9.90629e-05 -0.000754129)
(0.117749 0.000119124 0.000662367)
(0.122855 0.000156407 -0.000457539)
(0.12136 -0.000134591 -8.03318e-05)
(0.116544 0.000492753 0.000469779)
(0.118678 0.000144155 -6.40777e-05)
(0.115645 0.000198557 -5.42233e-05)
(0.120381 0.000296691 -0.000357227)
(0.119095 0.000333775 -0.000180034)
(0.11599 0.000422378 0.000897596)
(0.120256 -6.92666e-05 -0.000217658)
(0.118833 0.00109376 0.00051607)
(0.113337 0.0001039 -0.00121894)
(0.113294 0.000343002 0.000259519)
(0.121866 -0.000504266 0.000209252)
(0.123052 0.000140722 -6.37182e-05)
(0.123649 0.000251106 -0.000143048)
(0.114744 0.000312112 0.000201791)
(0.116327 -5.15181e-05 0.000503191)
(0.122249 0.000233075 0.000358646)
(0.117566 -0.000234904 -0.000265345)
(0.117513 0.000636033 -0.000839251)
(0.122212 0.000333197 0.00029986)
(0.122845 -0.000548734 -8.36271e-05)
(0.119418 -0.000790239 0.000132329)
(0.122692 -0.00098146 -0.000290463)
(0.123724 8.09503e-05 -0.000237391)
(0.11548 -0.000180273 -0.000252966)
(0.12362 -0.00111477 -0.000299935)
(0.113286 0.000251759 -0.000202032)
(0.114464 -5.12958e-05 -5.28185e-05)
(0.123172 -0.000447417 -0.000266627)
(0.12241 -0.00052226 -0.0001401)
(0.123419 9.69694e-05 -0.000728593)
(0.123687 0.000436853 -0.00103736)
(0.122476 -0.000172528 -0.000799062)
(0.116622 0.00121351 -0.000595011)
(0.118213 -0.000994542 0.000730119)
(0.119247 -8.03426e-05 -0.000271617)
(0.121617 -0.000963492 0.00011636)
(0.123229 0.000944622 0.000853666)
(0.123665 -0.000794333 0.000313498)
(0.119757 0.000180097 -0.000265387)
(0.117672 -0.0010293 0.000488371)
(0.119634 -5.70507e-05 -8.56703e-05)
(0.122637 -7.72421e-05 -0.000168037)
(0.1222 -7.68597e-05 -0.000994071)
(0.118583 0.000107403 -0.000242696)
(0.121154 -0.000235805 -5.12085e-05)
(0.119263 0.000623364 -0.000615732)
(0.119382 -0.000394414 -0.000375851)
(0.121673 -0.000376162 0.000288879)
(0.117993 -0.00104505 0.000926334)
(0.115562 -0.000170156 -1.07902e-05)
(0.120473 0.000810314 -0.000584691)
(0.121693 8.19647e-05 0.000316886)
(0.118984 0.000197843 -0.000182355)
(0.121763 0.000388022 0.000324328)
(0.122624 -0.000552629 0.00027756)
(0.120298 0.000140217 -0.00040215)
(0.116408 0.000218809 -0.00050621)
(0.119547 0.000442389 -0.000421841)
(0.118697 0.000441996 0.000456411)
(0.114489 0.000246662 -0.000478918)
(0.122336 -0.000881967 0.00023893)
(0.114361 0.000544898 0.000460436)
(0.121669 -0.000100047 -0.000492326)
(0.123364 -0.000832693 -0.000249176)
(0.115265 -0.000329449 0.000188375)
(0.120224 0.000326147 3.11633e-05)
(0.118889 0.000401238 0.00042698)
(0.114965 -0.000254537 4.93956e-05)
(0.12131 -0.000164984 -0.000184688)
(0.116406 3.64723e-05 -0.000134879)
(0.119794 -3.99239e-05 0.000668971)
(0.122933 0.000415515 8.8482e-05)
(0.121479 0.000144955 0.000170417)
(0.11418 0.000334246 -3.19619e-05)
(0.121787 0.000279719 2.6247e-05)
(0.116259 0.000131646 -0.000388901)
(0.12175 -9.29157e-05 -1.3826e-05)
(0.121853 0.000288652 0.000127499)
(0.122289 -0.000220349 -0.000546533)
(0.122964 -0.000213432 -0.000501005)
(0.115194 -6.5058e-05 -0.00062924)
(0.121828 -0.000906643 0.000136537)
(0.114507 4.08771e-05 -0.000542059)
(0.11903 3.42206e-05 -0.000457994)
(0.115367 9.2652e-05 -0.000385259)
(0.123966 -4.56881e-06 -0.000505092)
(0.122856 0.000102688 -0.000503178)
(0.123677 -1.55765e-05 1.78788e-05)
(0.123185 -0.000363639 -0.000540675)
(0.120798 -5.00092e-05 -0.000577112)
(0.122222 -9.0959e-05 0.000231457)
(0.119328 0.000270595 -6.5249e-05)
(0.120778 0.000216372 -0.000284011)
(0.119943 0.000111442 -0.00037924)
(0.116251 9.87108e-05 9.84209e-05)
(0.122102 -2.35657e-05 -0.000420602)
(0.120371 -0.000355106 -0.000108129)
(0.120533 -0.000225085 -0.000279214)
(0.122571 0.000114547 0.000123532)
(0.122216 -3.64574e-05 -0.000526156)
(0.122572 4.72049e-05 0.000209349)
(0.11963 -0.00070056 0.000149109)
(0.114573 -0.000139617 0.000712152)
(0.119404 0.00024789 0.000195489)
(0.121796 0.000137565 0.000370599)
(0.121078 -0.000273859 0.000101714)
(0.115297 -0.000597329 -0.000467292)
(0.122942 8.68319e-05 -0.000344722)
(0.122696 -0.000160031 -0.000816801)
(0.118297 0.000279524 -0.000457113)
(0.121637 -0.000332961 -0.000522146)
(0.122095 -0.000291451 -0.00112051)
(0.121826 -0.000352399 -0.000636174)
(0.121995 -0.000363912 -0.000101227)
(0.114865 -0.000164827 -0.000101514)
(0.121269 -0.000406632 8.34412e-05)
(0.121803 -0.000490017 0.000269743)
(0.11319 0.000143292 -2.28153e-05)
(0.120931 -0.000825217 4.85438e-06)
(0.121272 -0.000305431 -0.000193769)
(0.117699 0.000138915 0.000261751)
(0.11417 -0.000114917 0.000137413)
(0.114042 -0.000295107 0.000654243)
(0.119208 -0.000904318 0.000194091)
(0.113681 0.000493648 -0.000438196)
(0.119593 2.03548e-05 0.000193108)
(0.12055 -9.29262e-05 -3.0241e-05)
(0.118059 0.000571018 0.000287584)
(0.121843 0.000524135 7.99596e-05)
(0.115038 -0.000194566 0.000177257)
(0.121419 0.000382096 7.17636e-05)
(0.123861 0.000240129 1.46513e-05)
(0.11952 -0.000157342 0.000102784)
(0.12163 -0.000117771 0.000588996)
(0.119389 6.36931e-05 2.40311e-05)
(0.12307 0.000874933 -8.9286e-05)
(0.120824 0.000427757 1.67544e-05)
(0.120967 -0.000194568 -0.000610276)
(0.123969 5.74353e-05 -0.000450567)
(0.120128 7.66558e-05 -0.000395406)
(0.115173 9.23495e-05 0.000195881)
(0.119683 1.39097e-06 -0.000186392)
(0.123527 0.000266589 -0.00108266)
(0.12265 0.000290566 -0.000680895)
(0.121969 -0.000141286 0.000624958)
(0.122918 9.2045e-05 7.20775e-06)
(0.119864 -0.000686811 0.000547493)
(0.122166 -0.000232085 0.000188505)
(0.121079 0.000126262 0.000274501)
(0.122271 0.000187354 -0.000207075)
(0.122695 -0.000472254 -0.000429101)
(0.114 -0.000481905 -0.000283045)
(0.1193 -0.000349832 0.000222552)
(0.112841 -0.000213716 0.000194889)
(0.119372 0.000452646 0.000707742)
(0.118474 -9.56514e-05 -0.0006485)
(0.115106 -0.000369423 0.000672218)
(0.114146 -0.000489291 -0.000368123)
(0.120225 0.000352556 -0.000255496)
(0.121269 -0.000393615 -0.000173669)
(0.122751 9.70848e-06 -0.000621857)
(0.115468 -0.000145899 0.000572301)
(0.121665 -0.000167988 7.31785e-05)
(0.11974 -6.77175e-05 0.000216722)
(0.119824 -0.000179821 -0.000475199)
(0.121199 2.77415e-05 -0.000594738)
(0.114213 0.0001274 0.00197178)
(0.119823 -6.60425e-05 -0.000520106)
(0.114791 0.000115982 0.000352127)
(0.118254 -0.000418144 -0.000400692)
(0.122064 -0.000199553 3.61424e-06)
(0.124223 0.00130374 0.000387583)
(0.122452 0.000219594 -0.000996889)
(0.12082 0.000577492 -0.000681522)
(0.113652 0.000198772 0.00117586)
(0.121679 -0.000202055 0.000122665)
(0.121035 -6.51411e-05 -0.000449248)
(0.122286 -0.000212358 -0.00038601)
(0.114258 1.07366e-05 -6.40481e-06)
(0.116586 -0.000154193 0.000475898)
(0.118848 0.000449853 0.000550439)
(0.116415 0.000409027 -0.000264359)
(0.113498 -0.000568604 -0.000138455)
(0.122179 -5.20089e-05 -0.000365014)
(0.116088 -7.97084e-05 3.67078e-05)
(0.118588 0.000820863 0.000197552)
(0.115069 -0.000451523 -0.000932467)
(0.12177 0.000319638 6.68828e-05)
(0.115668 8.26199e-05 -0.00027836)
(0.123116 -0.000137655 0.00056227)
(0.121895 0.00016568 -0.000422861)
(0.123248 -9.13401e-05 0.0005128)
(0.12338 -0.000109684 -0.000432269)
(0.115843 2.00773e-05 0.00020991)
(0.122474 0.000113426 0.000231591)
(0.12354 -0.000185739 -0.000123939)
(0.12077 -0.000415007 0.000340993)
(0.121749 0.000550516 -0.000181484)
(0.120982 -0.000454837 -0.0002549)
(0.122988 0.000408456 -0.000106269)
(0.12223 5.216e-05 0.000469451)
(0.118114 6.938e-05 -0.000428444)
(0.124273 -0.000169883 -9.19146e-05)
(0.12371 -0.000283869 -0.000157505)
(0.120338 -0.000214278 -0.000185171)
(0.119421 -0.000311825 -0.000798131)
(0.122971 -0.000397633 -0.000242564)
(0.120596 0.00029448 7.55171e-06)
(0.113463 0.000647793 -0.000247411)
(0.113583 0.000408551 -6.26538e-05)
(0.119849 2.22236e-05 0.000126147)
(0.122404 1.18204e-05 0.000150358)
(0.123677 -0.000196996 -0.000218723)
(0.118014 -0.000246108 -8.93236e-05)
(0.122647 0.00046308 0.000245211)
(0.121569 -7.53511e-05 0.000235705)
(0.122986 0.000996686 0.000840186)
(0.120264 -1.78108e-05 -8.73629e-05)
(0.120104 0.000494036 -0.00040343)
(0.121101 -0.00159091 0.000693541)
(0.114872 -6.98867e-06 -0.000235141)
(0.119399 0.000148678 6.57354e-05)
(0.121161 2.97256e-05 -0.000247748)
(0.123075 2.5254e-05 -2.78991e-05)
(0.116249 -0.000250672 7.47264e-05)
(0.116949 0.000621008 -0.00065545)
(0.117907 -9.71039e-05 -0.000333569)
(0.117602 -0.000375799 -9.10773e-05)
(0.119779 -0.000161691 -0.000537038)
(0.114556 -9.68123e-05 -0.000409482)
(0.122421 0.000242894 -0.000853038)
(0.118805 7.62936e-05 -0.000270456)
(0.121643 9.69784e-05 0.000998476)
(0.119446 -0.000252804 -9.23333e-05)
(0.123636 -0.000237434 -0.000278766)
(0.12043 -0.000195864 -0.000855581)
(0.114697 0.00018453 0.000565696)
(0.120944 0.000827105 8.33004e-05)
(0.123798 -0.000215734 -0.000957803)
(0.115523 0.000357849 0.00109994)
(0.122645 -0.000118265 -0.000740914)
(0.124402 -0.00100515 -0.000574394)
(0.120457 -0.000268158 -2.15715e-05)
(0.11902 0.000245763 0.000120125)
(0.123056 -2.58071e-05 -0.000906085)
(0.117971 -1.24211e-05 -5.14804e-05)
(0.120074 -0.000429639 3.14409e-05)
(0.119824 0.000176575 0.000258783)
(0.115606 -5.58487e-05 2.8445e-05)
(0.116017 -0.000136831 -0.00117718)
(0.119075 0.000214929 0.000425605)
(0.118106 0.000597671 0.000148796)
(0.122233 -0.00011649 -0.000306385)
(0.117776 -0.00039939 0.00030676)
(0.11923 0.00043291 0.000438671)
(0.123322 0.000175064 0.000339213)
(0.11908 0.000211339 -1.11624e-05)
(0.114008 0.000213592 0.000313116)
(0.118041 0.000286129 0.000144741)
(0.120158 0.000420707 -0.000264339)
(0.123641 -0.00019049 0.00024294)
(0.114577 0.000709968 0.000419384)
(0.114439 -0.000107473 0.000275398)
(0.123511 0.000301604 0.000891753)
(0.114727 0.000252061 3.25927e-05)
(0.121036 -5.64214e-05 -0.000107001)
(0.122346 0.000200494 -0.000249319)
(0.116129 -0.000159835 -0.000820655)
(0.120222 0.000162357 -0.000284495)
(0.123098 0.000473298 -0.000595377)
(0.119986 8.99773e-07 0.000628352)
(0.113078 4.21756e-05 0.000188798)
(0.12277 0.000217461 -0.000108612)
(0.120029 -6.12789e-05 -0.000321647)
(0.113713 0.000519504 1.34398e-05)
(0.123097 0.000236217 -0.000186297)
(0.118567 -0.000134121 -0.000228655)
(0.119003 0.000497941 -0.000388953)
(0.121681 -0.000112345 -5.96134e-05)
(0.113992 0.00081075 -0.000449312)
(0.118898 -6.31106e-05 -0.00101325)
(0.118381 -0.00057954 2.73416e-05)
(0.120066 2.65244e-05 -0.000481688)
(0.116045 -0.000105007 0.000428971)
(0.117724 -5.42418e-05 -9.21802e-05)
(0.121954 0.000479005 0.000407428)
(0.124078 -0.000804466 -0.000632792)
(0.124846 -0.000323118 6.40339e-05)
(0.123548 0.000444833 -0.000304898)
(0.123045 -0.000572376 -0.000206625)
(0.12195 0.000116365 -0.00127962)
(0.117403 -0.000235715 0.000389419)
(0.124214 0.000178543 -0.00100332)
(0.12211 -8.33606e-05 -5.5197e-05)
(0.121393 0.000589142 0.000158998)
(0.116298 0.000849877 -0.000326341)
(0.120572 -0.000163422 -0.000221502)
(0.121346 0.000409386 0.000576578)
(0.124668 0.000898858 4.08581e-05)
(0.114622 -5.65733e-05 0.000285479)
(0.113512 -0.000512269 0.000376836)
(0.123008 0.000133874 -0.000613538)
(0.118088 -5.83373e-05 -0.000343673)
(0.122998 7.33947e-05 -3.49197e-05)
(0.118692 7.46666e-05 -0.000440618)
(0.116096 -0.000249846 -0.000803103)
(0.121138 -3.61021e-05 -0.000867293)
(0.122901 0.000362742 -0.000103057)
(0.120564 0.000255266 0.000104102)
(0.122293 0.000924348 -0.000308832)
(0.115303 5.91297e-05 -0.00167023)
(0.122434 0.00105477 0.000365018)
(0.122067 -0.000228793 -0.000495421)
(0.113908 0.000350844 -3.98714e-05)
(0.121958 -0.00020056 -0.000523959)
(0.121768 -0.000238691 1.65745e-05)
(0.1207 0.000177471 0.00144585)
(0.11556 -0.000606414 -0.00088382)
(0.114434 0.000282368 -0.00076404)
(0.119456 0.000318116 -0.000309735)
(0.119645 2.09943e-06 0.000928782)
(0.120231 -0.000181261 0.000180831)
(0.119552 0.000521655 0.00017024)
(0.119018 0.000474296 0.000697178)
(0.122661 0.000115118 2.87726e-05)
(0.120449 -0.000126023 0.000206354)
(0.120735 0.000351628 0.000244971)
(0.11629 -0.000280757 0.000665805)
(0.123551 -8.86468e-05 -0.000981469)
(0.114961 -0.000216216 4.34228e-06)
(0.120073 0.000714147 -5.69836e-06)
(0.119504 0.000351161 -7.85011e-05)
(0.11963 -0.000823725 -0.000656378)
(0.121273 0.000468572 5.38394e-05)
(0.118081 -0.000222625 -0.000434509)
(0.115468 -0.000796915 -0.000497889)
(0.114147 -0.000177467 -0.000520452)
(0.115548 -0.000312905 -0.000252609)
(0.119467 -0.000512094 -0.000374146)
(0.121875 0.000668817 0.000243149)
(0.114789 0.000447811 0.00174931)
(0.122339 -0.000183055 -7.6567e-05)
(0.119836 9.0356e-06 -0.000745386)
(0.123225 -0.000372957 -0.00040679)
(0.114681 -4.63618e-06 -0.000746805)
(0.11807 0.00040229 0.000553609)
(0.122101 0.000205076 -0.000754949)
(0.123363 -0.000845747 -4.01349e-05)
(0.121995 0.000351882 -0.000397259)
(0.123008 -0.000229476 -0.000256005)
(0.120553 0.000117626 0.000179273)
(0.119686 0.000533188 0.000161161)
(0.12358 -2.61515e-05 0.000306628)
(0.123287 0.000389846 -1.66948e-05)
(0.123347 0.000273839 0.000101282)
(0.116565 0.000969134 -0.000434465)
(0.123288 -0.00077717 -0.000732714)
(0.114181 -0.000317472 0.000420065)
(0.123465 0.000694239 3.64001e-05)
(0.120743 0.00017158 -0.000200932)
(0.119496 0.000104025 -0.00053404)
(0.115442 0.000831332 4.63111e-06)
(0.119755 0.00114458 -0.000736639)
(0.112892 -0.000829099 -0.000632761)
(0.122336 0.000193754 -0.000542967)
(0.120022 0.000123685 -0.000257399)
(0.122658 -0.000170796 -0.000245084)
(0.118976 0.00035747 -0.000286423)
(0.118857 0.00117963 -0.000323226)
(0.114785 -0.000305881 0.000694126)
(0.123894 0.000231435 -6.83757e-05)
(0.116089 -0.000551688 0.000242717)
(0.113321 -0.000285417 -0.000334933)
(0.115895 -0.000223848 5.77517e-05)
(0.116267 0.000304005 0.000133351)
(0.115621 0.000746178 -0.000106244)
(0.119915 -0.000320974 0.000106578)
(0.114919 0.000123144 -8.10103e-05)
(0.121476 -0.0011275 0.000433432)
(0.122041 1.03841e-05 -0.000473606)
(0.113251 -6.94701e-05 -4.1027e-05)
(0.121635 0.000347092 -0.000115054)
(0.115326 0.000352213 -0.000744875)
(0.119233 0.000706854 -0.000141163)
(0.120198 0.000340978 -0.000123302)
(0.119738 -0.000237592 -0.000972207)
(0.122115 0.000112812 -9.59863e-05)
(0.124057 0.000245062 -0.000855943)
(0.12221 -3.08565e-05 0.000359912)
(0.121375 4.80523e-05 -0.000134726)
(0.121036 -0.000186654 -0.0011192)
(0.121864 0.000381874 0.000199148)
(0.11898 0.000306025 2.15071e-05)
(0.11945 0.000382019 0.000161476)
(0.113859 0.000599152 -0.000841362)
(0.110854 0.00109651 0.00351316)
(0.122834 3.63323e-05 9.51829e-05)
(0.119945 6.44237e-05 -0.000218256)
(0.122041 -0.000292188 -0.000137583)
(0.122015 -5.42683e-05 0.000201838)
(0.114237 -0.000539484 -5.70768e-05)
(0.122774 -0.000130065 -0.00033241)
(0.123139 0.000565875 7.23146e-05)
(0.122837 5.71247e-05 0.000139173)
(0.122806 0.000251128 0.000456193)
(0.121276 0.000366656 0.000436644)
(0.120809 -0.000542073 -0.000227406)
(0.122819 -6.07812e-05 7.36311e-05)
(0.123579 -0.000158837 0.00050094)
(0.121033 0.000352535 0.000344994)
(0.123153 0.00024993 -0.000221741)
(0.122526 -0.000367091 -0.000452536)
(0.116739 -0.000329146 -0.000474494)
(0.122768 -0.00014548 0.000260796)
(0.117227 -0.000119389 0.000532146)
(0.120192 8.93032e-05 -9.39792e-05)
(0.120268 -0.000844913 3.81975e-05)
(0.119658 -0.000501989 0.000188659)
(0.119111 0.000659348 7.12036e-05)
(0.121921 0.000380853 -0.000101101)
(0.119317 0.00029918 0.000252669)
(0.120748 0.000477865 -0.000514643)
(0.119177 0.00118237 -0.000615179)
(0.114219 0.00122638 -0.000841302)
(0.123976 0.00045209 -0.000340358)
(0.121854 0.000623058 -0.000171728)
(0.118868 4.64364e-06 0.00071323)
(0.114795 -0.000464146 -1.56335e-05)
(0.122206 -0.000364245 -7.77163e-05)
(0.114354 -0.000598044 -0.000577409)
(0.123029 -0.000331061 6.95087e-05)
(0.122329 -7.82597e-05 0.000343061)
(0.118726 0.00117172 -0.000515739)
(0.121997 -0.000370208 0.000183206)
(0.123464 0.000113098 -0.000462753)
(0.120874 -0.000465256 -0.000149709)
(0.114046 -0.000115891 0.000227391)
(0.119275 1.53162e-05 0.000104104)
(0.117048 0.000614871 -0.000474742)
(0.119871 0.000150117 -0.000195944)
(0.114364 -0.000496953 -0.000922224)
(0.121598 -0.000127179 -0.000342387)
(0.122124 -0.000487784 0.000591733)
(0.117677 0.000689183 -0.000738677)
(0.119762 0.000100783 4.96811e-05)
(0.117032 6.78546e-05 -0.000377132)
(0.122391 2.66769e-05 -0.000428859)
(0.119004 -0.000698058 0.000125283)
(0.120003 0.000422804 0.000493766)
(0.11488 -0.000196218 4.11179e-05)
(0.122697 -3.9031e-06 1.0242e-05)
(0.12091 -0.000374862 -0.00016803)
(0.122858 3.29624e-05 -0.000116519)
(0.117365 0.000535229 -0.000367147)
(0.119853 -6.18789e-05 -0.000327303)
(0.120811 0.000117674 -0.000319578)
(0.118677 -0.000133768 0.000244228)
(0.120669 -7.16623e-05 0.000280487)
(0.120162 -0.000241706 0.000567794)
(0.122416 -0.000417503 0.000109896)
(0.119904 -0.000208864 -0.000112657)
(0.115397 7.49737e-06 -0.000205446)
(0.113511 -0.000170298 -0.000660018)
(0.121416 -0.000675622 0.000115264)
(0.114333 0.000528047 -0.00111207)
(0.117977 -0.000695099 -0.00134316)
(0.119933 0.000270881 -0.000241385)
(0.120078 0.000300986 9.99352e-05)
(0.123453 0.000501047 -0.000315205)
(0.114207 -4.00157e-06 -4.55295e-05)
(0.119528 -0.000117006 -0.000704249)
(0.123848 9.73227e-05 -0.000424991)
(0.115555 0.000828034 -0.00271737)
(0.115766 0.00137466 7.71239e-05)
(0.119124 7.77624e-05 -0.000784179)
(0.11572 1.13833e-05 4.65246e-06)
(0.121468 0.000721266 -0.000794452)
(0.115902 -0.000325128 8.80141e-05)
(0.12327 -0.000806846 -0.000336078)
(0.117506 0.000231557 0.000493372)
(0.118651 0.00048057 0.000498747)
(0.124236 0.000418253 0.000849495)
(0.113443 -0.00016603 0.000508524)
(0.118019 0.000111097 0.000387363)
(0.118007 1.9202e-05 0.000561289)
(0.122779 -5.91451e-05 -0.000749648)
(0.122938 5.22184e-05 0.000282894)
(0.122793 4.51072e-05 -0.000161269)
(0.115068 0.00071178 0.000325202)
(0.121661 0.000117319 -0.00035827)
(0.122506 0.000123365 0.000932222)
(0.117728 -0.000184019 -0.000184528)
(0.122717 0.000385702 -0.000108213)
(0.122103 0.000381892 0.000204972)
(0.121938 0.00037989 -7.28965e-06)
(0.123122 -2.53793e-05 -0.000617541)
(0.12001 6.21933e-05 -0.000164208)
(0.124144 -1.36705e-05 0.000381642)
(0.123491 0.000716661 0.000820788)
(0.122974 7.31368e-05 -0.000503067)
(0.120798 0.000508093 0.000307429)
(0.119086 -0.000262587 -0.00036412)
(0.120175 0.0004027 7.49771e-05)
(0.119842 0.000163897 -0.000344427)
(0.113884 -0.000885745 -0.000267441)
(0.11888 -0.000432966 7.30491e-05)
(0.120914 -0.000244516 0.000464697)
(0.122777 -0.000283929 -0.000293972)
(0.123287 -0.000289631 -0.000692804)
(0.119212 -0.000449384 2.98622e-05)
(0.124094 0.00115942 -0.000186069)
(0.121923 -6.14532e-05 -4.16888e-05)
(0.118083 -0.000693201 0.000556531)
(0.122175 -0.000111803 -0.000402902)
(0.122869 1.98569e-05 -0.000226669)