/*--------------------------------*- C++ -*----------------------------------*\
| =========                 |                                                 |
| \\      /  F ield         | OpenFOAM: The Open Source CFD Toolbox           |
|  \\    /   O peration     | Version:  2212                                  |
|   \\  /    A nd           | Website:  www.openfoam.com                      |
|    \\/     M anipulation  |                                                 |
\*---------------------------------------------------------------------------*/
FoamFile
{
    version     2.0;
    format      ascii;
    arch        "LSB;label=32;scalar=64";
    class       surfaceVectorField;
    location    "0.042";
    object      Uf;
}
// * * * * * * * * * * * * * * * * * * * * * * * * * * * * * * * * * * * * * //

dimensions      [0 1 -1 0 0 0 0];

internalField   nonuniform List<vector> 
68568
(
(0.121387 0.000235499 -0.000136083)
(0.120658 0.000569429 -0.000184285)
(0.120359 0.000376848 -2.6499e-05)
(0.122857 0.00079565 -0.000353929)
(0.120688 -0.000415733 -0.000247901)
(0.120648 -0.000481289 -0.000476864)
(0.119486 -0.000422016 9.43883e-06)
(0.113687 -0.000210783 -0.0002335)
(0.121981 0.000210297 0.000302886)
(0.121699 -0.000486098 0.000750862)
(0.120356 -0.000284622 0.000168337)
(0.116805 -0.000638373 0.000783317)
(0.124047 -0.000196606 -0.000229103)
(0.12291 -5.62502e-05 -0.000432407)
(0.123913 -0.000128522 -0.000319497)
(0.124231 -0.00020563 -0.000336971)
(0.118831 -0.000225869 -0.000264894)
(0.121664 -0.000502287 -0.000311993)
(0.118224 -0.000229879 -0.000323072)
(0.121287 -0.000498054 -0.000358808)
(0.121284 -0.000139427 -2.5507e-05)
(0.119897 -7.74146e-05 0.000141383)
(0.121465 -8.43147e-05 0.000156454)
(0.115055 -8.65208e-05 -0.000273064)
(0.120243 -3.56716e-05 -0.000189772)
(0.115762 -0.000179241 0.000135687)
(0.117554 0.000108152 -0.000463562)
(0.120314 -5.17569e-05 -0.000253954)
(0.120197 0.000254642 0.000441881)
(0.122406 0.000136671 2.90963e-05)
(0.121135 -4.7264e-05 -2.24454e-05)
(0.12156 -0.000171524 -0.000366003)
(0.120372 9.19619e-05 -0.000273486)
(0.120419 0.000273684 -0.000615025)
(0.122361 -0.000264555 -9.60161e-05)
(0.121212 -0.000529433 -0.00036452)
(0.122888 -0.000129196 -0.000590724)
(0.123083 -0.000506649 -0.000425252)
(0.123152 0.000467529 2.88832e-05)
(0.121945 0.000312842 -6.93179e-05)
(0.122986 0.000283671 -8.81801e-05)
(0.119468 -0.000134387 -0.000524255)
(0.123395 -0.00046116 -0.000747942)
(0.122968 -0.000564738 -0.000669679)
(0.120744 -0.000235618 4.15133e-05)
(0.119721 -0.000440668 -2.90832e-05)
(0.114164 7.98596e-06 -0.000338903)
(0.122895 -0.000161624 -0.000144246)
(0.122779 -0.000148681 0.000259913)
(0.121925 -0.000159101 0.000169408)
(0.120033 -8.62485e-05 0.000171357)
(0.118473 -0.000316792 -2.30202e-05)
(0.12012 -0.000285123 -0.000144196)
(0.119429 -0.000255109 -3.91897e-05)
(0.113668 -0.000305931 -7.211e-05)
(0.120415 -0.000435016 0.000798161)
(0.115902 -0.000366995 0.000507691)
(0.11763 -0.000396059 0.000735572)
(0.120694 -0.000320906 0.000289983)
(0.119816 0.000174102 0.000252726)
(0.120716 0.000322516 0.000269456)
(0.120282 0.000255104 0.000189054)
(0.121789 8.05942e-05 0.000160806)
(0.116152 0.000417679 0.000446624)
(0.116287 -0.000325337 0.000700293)
(0.120006 -6.13055e-05 0.000267593)
(0.120212 2.92669e-05 -0.000599006)
(0.117759 -0.000374697 -4.47357e-05)
(0.116496 9.38171e-05 -0.000695722)
(0.120662 -0.000198669 -0.000351627)
(0.120488 8.29485e-06 -0.000138076)
(0.121899 -0.00031015 -5.61351e-05)
(0.121481 -0.000477384 3.35842e-05)
(0.116177 -0.000138585 -4.74474e-05)
(0.115556 -0.000184378 -0.000379934)
(0.117228 5.98766e-05 -0.000316945)
(0.115886 0.000269096 -0.000325517)
(0.10584 -0.000145398 -0.000469988)
(0.121933 -0.000458637 -0.000560016)
(0.123389 -0.000214196 -0.000637486)
(0.12244 -0.000317801 -0.000634196)
(0.122879 -0.000353243 -0.000743159)
(0.122425 0.000385859 -0.000238401)
(0.122476 0.000452886 -0.000114584)
(0.120206 0.00049183 -3.78811e-06)
(0.123213 0.000563431 -0.000264632)
(0.117312 0.000276548 -0.000263883)
(0.117696 -0.000129642 -0.000251456)
(0.120282 0.000180181 -0.000393324)
(0.120728 4.17825e-05 -5.72624e-05)
(0.115207 -3.8288e-05 7.7553e-05)
(0.119352 -0.000133379 -7.90963e-05)
(0.117049 0.000237366 -0.000460665)
(0.119414 -0.000119134 0.000243052)
(0.120027 -1.68666e-05 -7.29042e-05)
(0.120049 -0.000411209 0.000168193)
(0.122109 -0.000280285 0.000741394)
(0.120221 -8.19161e-05 -0.000267086)
(0.121568 -0.00016639 -0.000146649)
(0.115836 -0.000117905 0.000280803)
(0.122938 0.00078418 0.000372674)
(0.120692 0.000940999 -0.000234081)
(0.122716 0.000937838 0.000175006)
(0.121046 0.000631306 -0.000633669)
(0.121142 0.00018781 0.000433469)
(0.11523 0.000438433 -0.000246234)
(0.117039 0.000459678 0.000146217)
(0.122833 8.0785e-05 0.000315705)
(0.121956 -0.000102299 0.000300367)
(0.122883 2.29985e-06 0.000318129)
(0.123465 -0.000289235 -0.000205609)
(0.121759 -5.92641e-05 -4.56193e-06)
(0.123604 -0.000233501 -0.000142361)
(0.121232 -0.000139732 -0.000184182)
(0.1198 -0.000215232 -0.000170945)
(0.119842 -8.70302e-05 -0.000291042)
(0.116347 0.000336754 1.14285e-05)
(0.11587 -0.000287737 0.00033479)
(0.122491 0.000260461 -0.000476454)
(0.121806 3.47046e-05 -0.000297068)
(0.122654 7.77107e-06 -0.000432602)
(0.12303 -6.52667e-07 -0.00030492)
(0.117451 -0.000126564 -0.000227674)
(0.116316 -0.000263059 0.000113531)
(0.120695 -0.000201362 4.33506e-05)
(0.120855 -2.05876e-05 0.000133254)
(0.117541 0.000337146 0.000245848)
(0.115302 0.000209287 0.00021436)
(0.115252 9.17683e-05 -9.56698e-05)
(0.106664 7.60931e-05 0.000217402)
(0.122895 0.000460898 -0.00012157)
(0.115087 -8.83918e-06 -7.73834e-05)
(0.115294 -0.000473428 -0.000222242)
(0.112974 -0.000259697 5.70748e-05)
(0.106016 -0.00030297 -5.43593e-05)
(0.123431 -0.000464904 0.000292795)
(0.123411 -0.000622691 0.000162586)
(0.123578 -0.000214073 0.000428343)
(0.122869 -0.000564277 0.000290681)
(0.121379 -0.000324496 0.000330899)
(0.121432 -0.000338463 0.000542828)
(0.12294 -0.000382512 0.000591662)
(0.113941 0.000523811 -0.000452496)
(0.115209 -0.000306137 -4.17151e-05)
(0.106935 5.87882e-05 -0.000121972)
(0.118659 -7.51886e-05 -0.00010801)
(0.116141 -0.000106073 -0.000391952)
(0.107113 0.000134149 -0.00048449)
(0.116961 -0.0002232 0.00010755)
(0.116982 -0.000505208 -0.00011995)
(0.117974 -0.000430694 -0.000108897)
(0.106326 -0.000334128 0.000106296)
(0.122676 -0.000190975 0.000147805)
(0.120661 -0.000175197 3.64515e-05)
(0.12201 -0.000303203 -0.000501041)
(0.123044 -0.000830116 -0.000463265)
(0.12175 -0.000779996 -0.00077504)
(0.123204 -0.000553216 -0.000903533)
(0.122416 -0.000567693 0.000627303)
(0.122816 -0.000730418 0.00023685)
(0.122175 -0.000296077 0.000309727)
(0.123602 -0.000641311 -0.000246261)
(0.122258 -0.000711072 -3.51925e-05)
(0.121652 -0.000425968 -0.000363329)
(0.123511 -0.000289053 -0.000492629)
(0.119558 -4.77155e-06 -0.000356139)
(0.117824 0.000505998 -0.000515684)
(0.11264 -4.21205e-05 -0.000345544)
(0.120973 0.000349408 -0.000474301)
(0.121296 2.25332e-05 -0.00034148)
(0.118742 0.000212753 -0.000748408)
(0.117387 0.000113323 -0.000261279)
(0.119598 -0.000224735 0.000212068)
(0.119333 -3.25192e-05 4.507e-05)
(0.121505 -1.7931e-05 -0.000268044)
(0.120402 -0.0002287 0.000122429)
(0.122757 -0.000136684 -0.000365489)
(0.121634 -0.000289965 -0.000532135)
(0.121857 4.63665e-05 -0.000443735)
(0.123495 0.00013576 -0.000829752)
(0.123919 -0.000118789 -0.000405805)
(0.117595 -0.000236585 -0.000571892)
(0.1153 3.26255e-05 -0.000271118)
(0.116031 9.63025e-06 -0.000174019)
(0.105482 2.41689e-05 -0.0003365)
(0.122027 0.000688674 0.000196711)
(0.121249 0.000550758 0.000259911)
(0.122834 0.000630296 0.000219166)
(0.12241 0.000440354 0.00017117)
(0.114497 -0.000421118 0.000102953)
(0.106511 -0.000155374 0.000373116)
(0.118458 -0.000189563 -0.000261096)
(0.118301 -0.000438056 -9.82852e-06)
(0.121489 -0.000238607 -0.000282802)
(0.121532 -0.000352777 -7.36893e-05)
(0.11892 0.000225459 0.000224745)
(0.119512 0.000116033 0.000181174)
(0.121449 -0.000127494 6.41993e-06)
(0.117106 -7.00001e-05 -0.000716375)
(0.11578 -7.95985e-05 -0.000342868)
(0.117323 8.51338e-05 -0.000170007)
(0.106427 0.000347434 -0.000283752)
(0.12189 0.000127237 0.000454481)
(0.12145 -0.000206831 0.000120658)
(0.120358 1.08753e-06 0.000416584)
(0.116111 2.57843e-05 0.000353876)
(0.121598 -0.000280508 0.000163293)
(0.120289 6.6654e-05 0.000455616)
(0.121574 -7.03625e-05 -5.14748e-06)
(0.115146 6.82691e-05 0.000251578)
(0.115111 1.18457e-05 -0.000141829)
(0.115269 0.000482338 -0.000152312)
(0.107358 0.000164407 -0.000129245)
(0.120441 -0.000476259 -0.000544142)
(0.12012 -4.16456e-05 -0.000373672)
(0.120373 -0.000153127 -0.000216597)
(0.122241 0.000364899 0.00010176)
(0.120902 0.000424707 0.000191165)
(0.123018 0.000132264 -0.000135126)
(0.121559 0.000245883 -0.000191544)
(0.12016 -0.000155092 -0.000408715)
(0.11744 -0.000238091 -0.000533502)
(0.117515 -0.000228999 -0.000291531)
(0.107299 -0.00031891 -0.000211553)
(0.121476 -0.000118522 -0.000129144)
(0.12157 2.76082e-05 6.28328e-05)
(0.114521 1.39665e-05 -0.000235138)
(0.119889 0.000123588 -1.01228e-05)
(0.120201 0.000395598 0.00013234)
(0.121763 0.000451365 0.000190783)
(0.120347 0.000414126 0.000305089)
(0.123423 -0.000132878 -0.000593894)
(0.123706 -0.000208897 -0.000487913)
(0.123603 -0.000336857 -0.000416307)
(0.123036 -0.000231501 -0.000355375)
(0.119519 0.000284599 -0.0010402)
(0.121753 0.000169643 -0.000896855)
(0.122408 -0.000266445 -0.000726978)
(0.120021 -0.000446681 4.62767e-05)
(0.121364 -0.0002978 3.07614e-05)
(0.119988 -0.000141634 0.000206169)
(0.115397 -6.4066e-05 -0.000229245)
(0.11744 -0.000935143 -0.000492587)
(0.117994 0.00026067 -0.000395826)
(0.106477 -6.38544e-05 -0.000474514)
(0.123312 0.00028359 5.98541e-05)
(0.123674 0.000215736 -0.000300967)
(0.123278 2.26304e-05 -9.39571e-05)
(0.123844 6.46972e-05 -0.000436439)
(0.122415 0.000313568 2.63318e-05)
(0.120396 0.000295803 0.000115266)
(0.121616 9.94548e-05 6.58572e-05)
(0.121534 0.00018771 -0.000174918)
(0.117568 1.98459e-05 -0.00110462)
(0.11704 0.000204468 -0.000493221)
(0.118647 4.41705e-05 -0.000820308)
(0.109627 -0.000645097 -0.000808249)
(0.120702 -0.000279512 -0.00064886)
(0.120781 -0.000324891 -0.000865658)
(0.122737 -0.000305506 -0.000486856)
(0.122419 -0.000271401 -0.000611727)
(0.121971 -0.000240564 -0.000210949)
(0.120373 -0.000337595 -0.000360674)
(0.120361 2.10017e-05 -0.000105072)
(0.115709 6.88249e-05 -0.000576982)
(0.122191 0.000624279 0.000303296)
(0.121628 0.000652902 3.6045e-05)
(0.120446 0.000409613 -0.000118037)
(0.115362 7.04688e-06 -0.000645299)
(0.114912 0.000138135 -0.000435082)
(0.116679 0.000344922 -0.000665158)
(0.105785 0.000393181 -0.000198597)
(0.122533 -0.000559182 -0.000118055)
(0.122215 -0.00058936 0.000134631)
(0.123635 -0.000499697 5.95035e-05)
(0.117974 0.00103418 -0.000619397)
(0.121275 2.50418e-05 -0.000434692)
(0.120758 0.000147952 -0.000454858)
(0.119979 -0.000276708 0.000487185)
(0.120437 -1.38642e-05 0.000236258)
(0.120898 4.02996e-05 0.000334169)
(0.114502 -0.000124471 0.00034032)
(0.11745 -0.00021079 -0.000134647)
(0.122413 -1.2747e-05 5.37725e-05)
(0.120296 0.000248339 5.41278e-05)
(0.122383 0.000431578 -0.000102228)
(0.115666 0.000324241 -0.000320738)
(0.119504 -0.000158734 -0.00010628)
(0.119765 -5.28263e-05 1.58118e-05)
(0.112695 -0.000105984 -0.000307021)
(0.113783 -3.38723e-05 0.000258473)
(0.113404 -0.000324145 9.70127e-05)
(0.106427 -0.000186733 0.000115275)
(0.123526 -4.57569e-05 0.000212417)
(0.121659 -0.000105272 -0.000104321)
(0.123455 -0.000290271 0.000174809)
(0.122645 -0.000522041 0.000217368)
(0.122521 -0.000470805 -0.000294059)
(0.122094 -2.95275e-05 -0.000156306)
(0.121922 -0.000100183 -0.000292484)
(0.115032 -0.000163672 2.25888e-05)
(0.119624 -0.000278178 -0.000110479)
(0.121629 -0.000299247 -0.000121699)
(0.122041 -0.000128349 -0.000180979)
(0.119619 1.89358e-05 0.000118834)
(0.123375 -0.000165559 -0.000137466)
(0.121441 -0.000118147 -0.00028478)
(0.121662 5.93812e-05 3.94111e-05)
(0.123358 -0.000240554 -4.61164e-05)
(0.123418 1.13607e-05 0.000194379)
(0.122927 -0.000170505 2.70931e-05)
(0.123693 -0.000148756 -0.000166209)
(0.121834 -0.000164778 -0.000276463)
(0.12158 -0.000280811 -0.000465718)
(0.123327 -0.000110212 -0.000627001)
(0.115283 0.00134631 -0.000945489)
(0.118373 0.000176172 -0.00134272)
(0.117345 0.000567649 -0.000885472)
(0.104285 9.71565e-05 -0.000393007)
(0.122114 -0.000182361 -0.000256373)
(0.122175 -0.00027464 -0.000320973)
(0.123428 -0.000224536 -0.000553931)
(0.120765 -0.000271428 0.000198255)
(0.122375 -0.000210681 6.65119e-05)
(0.114945 -9.92593e-05 -8.6249e-05)
(0.117726 -0.000259681 1.97029e-05)
(0.11729 -2.61281e-05 4.50044e-05)
(0.120599 -0.000303247 0.000255113)
(0.120401 -0.000358126 -7.40137e-05)
(0.11673 -0.000390753 -0.000978712)
(0.117307 -0.000551607 -0.000150103)
(0.105699 -0.000393242 -0.00017064)
(0.118213 0.000497246 -0.000822711)
(0.120002 0.000246376 -0.000955532)
(0.113646 -0.000282842 -0.000495644)
(0.116663 -0.000573961 -8.27792e-05)
(0.119869 -0.0006567 -0.000167547)
(0.116226 -0.000437361 -0.000420062)
(0.119666 -0.000456651 -0.000226147)
(0.120935 0.00048506 0.000136979)
(0.120723 0.000785473 -6.49538e-06)
(0.119005 0.00105766 0.000499587)
(0.115497 0.000577738 0.000363866)
(0.119184 0.000282379 -0.000251246)
(0.120048 -6.8686e-05 -0.00029019)
(0.122112 0.000231252 -0.000117149)
(0.122475 -0.000249634 -7.5508e-05)
(0.122075 -0.00020333 -8.36869e-06)
(0.114768 -0.000192278 8.57368e-06)
(0.119768 8.33388e-05 0.000313265)
(0.11931 0.000370222 0.00024971)
(0.120796 7.77175e-05 0.000249325)
(0.114317 5.98325e-05 -0.000162529)
(0.116402 -0.00087805 0.000161544)
(0.116891 -0.000375584 -8.94012e-06)
(0.115798 -0.00105914 -0.000333717)
(0.106049 -0.000726528 0.000192378)
(0.121531 0.000344232 0.000206053)
(0.121694 -5.18894e-06 0.000177355)
(0.119684 0.000257686 -0.000258884)
(0.121868 -8.28032e-05 -0.000174828)
(0.121532 0.000148549 0.000243123)
(0.119943 -0.000109862 0.000403471)
(0.119749 0.00053867 0.000279903)
(0.118287 -0.000372196 -0.000425006)
(0.113881 -6.36639e-06 -0.000174019)
(0.115206 -3.96891e-05 -0.000234525)
(0.116997 -0.00035408 -0.000311474)
(0.116107 0.000124495 -0.000353453)
(0.106379 -4.76525e-05 7.40107e-05)
(0.117575 -5.77504e-05 -0.000282034)
(0.105957 -3.13715e-05 -0.000317571)
(0.121912 -0.000413086 -1.7891e-05)
(0.123746 -0.000197095 0.000274486)
(0.123843 -0.000296227 -8.99499e-05)
(0.107484 2.55662e-05 0.000234074)
(0.116044 -0.000655965 -0.000717994)
(0.117177 -0.000505724 -0.000307627)
(0.116701 -0.000869708 -0.000679004)
(0.10539 -0.000400105 -0.000966932)
(0.115858 0.000626636 -0.000187505)
(0.119327 0.000416979 -8.36913e-05)
(0.115195 -0.000360186 0.000695941)
(0.114045 -1.15354e-05 0.000332443)
(0.115908 0.00024006 0.000677775)
(0.106132 -0.000295724 0.000323128)
(0.122161 -0.00108474 0.000316877)
(0.119863 -0.00111323 0.000573378)
(0.120253 -0.000979819 0.000432875)
(0.122175 -0.00102631 0.000183784)
(0.118774 -0.000333588 -0.000648829)
(0.117663 -0.000302527 -0.000266455)
(0.116854 -0.000157456 -0.000263722)
(0.105775 0.000122942 -0.000285968)
(0.121302 0.000344309 -0.000110361)
(0.120306 0.000245606 -0.000148287)
(0.12086 -0.000409936 -0.000124013)
(0.116111 0.000140718 -0.000340019)
(0.11763 -0.000472297 -0.000476847)
(0.117568 -0.000477328 -0.000619611)
(0.120368 -0.00053487 -0.000606102)
(0.121466 9.54747e-05 -0.00064528)
(0.121273 0.000167032 -0.000648634)
(0.120232 0.000128928 -0.000612424)
(0.114246 0.000424809 -0.000747664)
(0.116762 -8.04109e-05 6.29091e-05)
(0.115005 -0.000436578 9.66892e-05)
(0.115979 -0.000571637 0.000443343)
(0.10592 -0.000434075 -3.40647e-05)
(0.121273 0.000548797 0.000288882)
(0.117321 0.000443803 -0.000293494)
(0.117114 -0.000225011 -4.74944e-05)
(0.120882 -0.000762621 -9.47526e-05)
(0.11727 -0.000520146 6.6188e-06)
(0.120643 -0.000651781 0.000251424)
(0.121889 0.00013316 0.000163611)
(0.120925 5.43484e-05 -7.14672e-05)
(0.121766 5.1957e-05 -0.000111244)
(0.121213 7.54658e-05 0.000195892)
(0.121359 -0.000283093 -4.84867e-05)
(0.115243 -0.00029795 6.81553e-05)
(0.120337 -0.000387141 -0.00024722)
(0.120784 -6.9698e-05 -0.000481236)
(0.1221 8.58125e-06 -0.000267587)
(0.120425 -0.0002474 -0.000124149)
(0.120874 -0.000330262 0.000296581)
(0.122522 -0.000175102 0.000171263)
(0.123223 -0.0003392 0.000122385)
(0.121359 -1.92249e-05 -0.000587412)
(0.121266 -6.94704e-05 -0.000504483)
(0.123436 1.51216e-05 -0.000629456)
(0.120099 0.000240999 -0.000492668)
(0.121862 0.000175929 -0.000346982)
(0.122207 -0.000181083 -0.000691475)
(0.118606 -0.000776919 -0.00024413)
(0.123017 0.000118342 -0.00064306)
(0.120833 -0.000438001 0.000270935)
(0.122491 9.02862e-05 0.000415694)
(0.122386 -6.52394e-05 0.00018033)
(0.122538 -0.000322075 0.000190537)
(0.120653 8.3521e-05 0.00013604)
(0.121443 -0.00016643 0.000265522)
(0.114137 -4.25176e-05 7.16947e-05)
(0.115868 -0.000107113 -0.000578959)
(0.115929 -0.000324385 -0.000280475)
(0.116546 -0.000695788 -0.000340284)
(0.119743 -0.000620176 -0.000384751)
(0.120208 -0.000503665 -0.000400791)
(0.120922 -0.000387607 0.00017744)
(0.120664 -0.000316894 -2.94074e-05)
(0.12294 -0.00023602 -0.000291803)
(0.12292 -0.000227495 4.36164e-05)
(0.122138 -1.50722e-05 -0.000247764)
(0.120602 -0.00025154 -0.000407497)
(0.120207 0.000189253 -0.000141132)
(0.122087 0.000331788 -1.81167e-05)
(0.121832 0.000313092 -0.000419801)
(0.123212 -1.23315e-05 -0.000703731)
(0.122325 9.81492e-05 -0.000241205)
(0.123116 -0.000148129 -0.000637699)
(0.121935 -0.000466811 -5.51877e-05)
(0.120956 -0.000262147 -4.85221e-05)
(0.119729 -0.000918847 0.000177029)
(0.122359 -0.000660002 6.4625e-05)
(0.121741 -0.000162206 6.59591e-05)
(0.118285 -0.000172466 -0.000336185)
(0.122528 -0.000172491 -5.8777e-07)
(0.118102 6.42009e-05 -0.000674491)
(0.122673 -6.70358e-05 -1.58437e-05)
(0.123442 -0.000203675 -0.000406233)
(0.122308 -3.93926e-05 -0.000250039)
(0.121919 -2.66751e-05 0.000281592)
(0.114554 -1.33728e-05 -9.83392e-05)
(0.115349 -0.000234357 -0.000430251)
(0.107236 -0.000103973 -0.000275961)
(0.115901 -0.000606752 -0.000865079)
(0.10582 -0.000307265 -0.000218413)
(0.123428 0.000206331 0.000718843)
(0.121435 0.000223194 0.000212031)
(0.1202 -0.000522921 -0.000456484)
(0.114508 -0.000338912 -0.000343273)
(0.121561 -0.000171102 -0.000784342)
(0.12127 -0.000192788 -0.000581895)
(0.120043 -0.000327632 -0.000318606)
(0.11399 -0.000304346 -0.000403897)
(0.123061 0.000321841 0.000684103)
(0.123111 0.000120927 0.000711845)
(0.123221 0.00019578 0.000616931)
(0.122272 0.000341077 0.000671229)
(0.121354 0.000613892 0.000326588)
(0.121478 0.000351736 0.000238824)
(0.122755 0.000433489 0.000280849)
(0.115049 -0.000224333 -0.000398581)
(0.116822 -9.72026e-05 -0.000227823)
(0.105457 -0.000344241 -0.000425678)
(0.117716 0.000269887 -0.000345368)
(0.116507 -9.65474e-05 -0.000273987)
(0.115839 0.000294935 -0.000347685)
(0.106329 -5.56457e-05 -0.000696456)
(0.122801 -0.000113446 7.78904e-05)
(0.121264 -0.000259501 -0.000399459)
(0.122837 -0.000417143 -0.000104469)
(0.119966 -3.66002e-05 -0.000243037)
(0.121714 -0.000179057 -0.000338182)
(0.116332 -0.000336914 -0.000513968)
(0.11699 -0.000219878 -0.000625433)
(0.106231 -0.000374681 -0.000391281)
(0.117762 -0.000338698 -0.00012858)
(0.115574 -7.82412e-05 5.7849e-06)
(0.11516 -2.73221e-06 0.000245055)
(0.107274 -0.000115122 0.000130186)
(0.123281 -0.000642001 0.000204739)
(0.121588 -0.000424304 0.000454123)
(0.121414 -0.000432897 7.64875e-05)
(0.12317 -0.000397384 -3.72677e-05)
(0.117399 -0.000124925 -0.00127789)
(0.117165 1.83363e-05 -0.000851391)
(0.12005 -0.000253492 -0.000846228)
(0.106552 -0.000286258 -0.00113938)
(0.119959 0.000205592 0.000199161)
(0.120397 -0.000439173 0.000233641)
(0.120453 -0.00015894 0.000234821)
(0.114748 -0.000287942 0.000279358)
(0.117792 -0.000631594 -0.000448054)
(0.120989 -0.000336902 -0.000642123)
(0.120809 -8.40551e-05 -0.000815643)
(0.121418 -0.000116236 -8.0575e-05)
(0.123102 -0.000168815 0.000104838)
(0.122166 6.12145e-05 0.000375003)
(0.118433 0.000195715 -0.0011384)
(0.116043 0.000413644 -0.00082002)
(0.117894 0.000824992 -0.000866372)
(0.104967 -0.000352923 -0.000871114)
(0.124314 -7.28122e-05 6.00241e-05)
(0.124062 -0.000229163 -8.99535e-06)
(0.122487 1.80405e-05 -5.55233e-05)
(0.124117 2.74613e-05 1.24133e-06)
(0.122316 -0.000131518 -0.000460696)
(0.119681 -0.000169849 -0.000303914)
(0.119177 -3.47513e-05 -0.00067878)
(0.122044 -0.000261578 -0.000192637)
(0.118514 -0.00101371 -0.000374727)
(0.118868 -0.000927228 -7.47947e-05)
(0.106324 -0.000311046 -0.000521847)
(0.117353 -0.000665463 0.000906718)
(0.116179 -0.000281463 0.000886583)
(0.117944 -0.000557749 0.000646811)
(0.10497 7.15557e-05 0.000173971)
(0.120543 -0.00033015 -9.87928e-06)
(0.115691 -0.000294438 3.01064e-05)
(0.117956 -0.000301828 -0.000722928)
(0.124033 -0.000187732 -0.000210182)
(0.122493 -0.000170666 -0.000328704)
(0.116002 0.000255201 0.000254657)
(0.115151 0.000126514 0.000257151)
(0.117044 -0.000155447 -0.00013955)
(0.105243 -0.000155162 0.000182638)
(0.118332 -0.000195922 -0.000821624)
(0.118151 0.000363843 -0.000550785)
(0.10642 -0.000399848 -0.000925754)
(0.115434 -0.000194703 0.000288835)
(0.117897 -9.25587e-05 0.000286303)
(0.115747 -0.000509674 9.56925e-05)
(0.106798 -0.000291411 0.000100383)
(0.115492 -0.000996316 -0.000360692)
(0.11826 -0.000720571 0.000241356)
(0.116576 -0.00103296 -0.000223028)
(0.104718 -0.000551838 -0.000363546)
(0.118194 0.00044008 -0.000556076)
(0.119637 0.00023099 -3.72969e-05)
(0.119999 1.63988e-05 -0.000363229)
(0.11359 0.000232606 -0.000266395)
(0.116495 0.000333181 0.00016143)
(0.1157 0.000233033 0.00030726)
(0.106771 2.31928e-05 0.000226045)
(0.122858 -0.000559533 1.90566e-05)
(0.122438 -0.000382036 0.000156949)
(0.123251 -0.000502769 -4.18404e-06)
(0.12284 -0.000471661 0.000196458)
(0.121435 -0.000325995 0.000236464)
(0.121605 -0.000241565 3.03151e-05)
(0.123459 -0.000326578 0.00028921)
(0.12373 -0.000331461 0.000269636)
(0.114396 0.000173016 -0.00107246)
(0.114502 0.000116774 -0.000439449)
(0.116495 0.000209339 -0.000725269)
(0.107586 -0.000242647 -0.000543847)
(0.117014 -0.000404989 0.000539212)
(0.117398 -0.00131697 -8.50721e-05)
(0.117645 -0.000655134 0.000210026)
(0.109688 -0.00051598 3.1654e-05)
(0.119083 0.00094469 -0.000172333)
(0.120915 0.000589928 -0.000398794)
(0.120937 0.000541124 -0.000629338)
(0.115449 0.000235144 -0.00067354)
(0.117549 4.17102e-05 0.000123925)
(0.115089 -6.04213e-05 -4.56577e-05)
(0.114463 -0.000223979 -0.000198313)
(0.106754 0.000165673 -7.50255e-05)
(0.121685 -4.53365e-05 0.000463259)
(0.11553 5.02742e-05 -1.2777e-05)
(0.121865 -0.000482179 -0.000367196)
(0.123068 -0.000105087 -0.000381965)
(0.122168 -0.000120927 -0.000235093)
(0.122108 -0.000118043 -0.000284254)
(0.120273 0.000415131 9.17628e-05)
(0.11911 0.000340595 0.000215722)
(0.115185 0.000453354 0.000322665)
(0.122477 0.000205454 -3.82323e-05)
(0.121564 0.00026053 0.000386192)
(0.122258 0.000169692 0.000283226)
(0.12223 0.000336927 0.00032877)
(0.122106 -0.000137898 -6.69696e-05)
(0.122027 -0.000439346 -0.000144972)
(0.114861 -0.000273563 -0.00014022)
(0.120359 -0.000222997 -0.000206734)
(0.119134 -0.000348137 3.43833e-05)
(0.120325 -0.000372055 0.000132098)
(0.112988 -0.000126628 -0.000275686)
(0.120432 -1.69093e-05 -1.7179e-05)
(0.120753 0.00025524 9.21539e-05)
(0.11446 0.000177009 0.000218212)
(0.116843 -0.000490937 0.000629782)
(0.12043 -0.000494345 0.00040343)
(0.120643 -0.000743894 0.000603436)
(0.118482 -7.84021e-06 0.00023385)
(0.119998 -0.000343251 -0.000114933)
(0.120176 -0.000299164 9.76169e-05)
(0.114298 -0.000135062 0.00021892)
(0.116979 0.0003912 -0.000153755)
(0.114381 0.000256512 -0.000503993)
(0.105649 0.000881246 -0.000502966)
(0.12179 -0.000183278 -5.17777e-05)
(0.123144 -0.000161208 -0.000126924)
(0.123718 0.000385786 -0.000200274)
(0.120121 -6.82116e-05 0.00034134)
(0.120666 -8.09286e-05 0.000538765)
(0.113633 -0.000398521 0.000697221)
(0.122099 0.000287973 8.60244e-05)
(0.122815 -5.66233e-05 9.5654e-05)
(0.122675 0.000243305 -7.99304e-05)
(0.122882 0.000260639 -6.10494e-05)
(0.117138 -6.36695e-05 -0.000102141)
(0.11787 -0.000145288 0.00016979)
(0.11729 -0.000364513 4.50584e-06)
(0.10552 0.000115146 9.21182e-05)
(0.115222 3.25315e-05 0.000398341)
(0.115054 -0.000199782 0.000390233)
(0.116428 -9.92984e-05 0.000607538)
(0.105885 -0.00025944 0.000351192)
(0.121653 -0.000307393 -0.000253891)
(0.122484 -0.000183848 0.000236896)
(0.123327 -0.000403945 1.59538e-05)
(0.123022 -8.34569e-05 0.000216258)
(0.121615 -0.000381352 -0.000361275)
(0.122781 1.98999e-05 -0.000471786)
(0.121194 0.000142453 -0.000368724)
(0.119079 -0.000229914 0.000706804)
(0.121177 -0.00028404 0.000148277)
(0.120778 -0.000172965 0.000284508)
(0.119588 -0.000238735 0.000739768)
(0.119595 -0.00011622 0.000184393)
(0.121251 -0.000386256 7.56289e-05)
(0.114825 -0.000115574 0.000301473)
(0.121634 -0.000312421 -0.000679608)
(0.12179 -3.97895e-05 -0.000575237)
(0.119708 -0.000114278 -0.000319464)
(0.114433 0.000159183 -0.000573149)
(0.121218 -0.000144153 -0.000777305)
(0.117762 -0.000223529 -0.000733471)
(0.121098 7.34081e-05 -0.00063728)
(0.117569 0.000317501 0.000297039)
(0.121001 0.000455725 0.000440972)
(0.118467 0.000191519 0.000641623)
(0.121384 0.000322856 0.000279167)
(0.12276 0.00021898 -0.000545749)
(0.120096 0.000379153 -0.000547274)
(0.12069 -6.33777e-05 -0.000785034)
(0.117671 -4.09233e-05 -4.54341e-05)
(0.106416 -0.000173521 -0.000331568)
(0.117048 1.94713e-06 -7.05419e-05)
(0.120141 -0.000221926 -9.15051e-05)
(0.123319 0.00024647 0.000112865)
(0.123108 -8.17408e-05 8.10012e-05)
(0.122678 8.50617e-05 0.000301365)
(0.123182 -2.88352e-05 0.000397415)
(0.122027 -0.000515256 9.07891e-05)
(0.122109 -0.000615326 -3.47577e-05)
(0.121853 -0.000472927 3.0221e-05)
(0.122076 -0.000527591 -0.000166458)
(0.122187 -0.000433521 0.000189702)
(0.121878 -0.000574308 0.00016567)
(0.120133 -0.000456268 0.000414068)
(0.118801 -0.00126045 -2.44023e-05)
(0.121154 -0.00127534 -0.000333742)
(0.120275 -0.00104987 -0.000583818)
(0.118867 -9.32666e-05 -0.000283115)
(0.118661 0.000266169 -0.000502291)
(0.114594 7.24043e-05 0.000243462)
(0.121861 0.00010701 -0.000441107)
(0.11545 -0.000167373 -0.00034439)
(0.118761 0.00057878 -0.000492084)
(0.118943 0.000622485 -0.000688716)
(0.120107 0.000180994 -0.000517405)
(0.113911 -6.77745e-05 -0.000467567)
(0.122846 0.000206126 -0.000361006)
(0.121285 0.000331115 -0.000393257)
(0.121886 0.0001162 -0.000566402)
(0.106503 3.96258e-05 -0.000173201)
(0.120106 0.000114906 -0.000248921)
(0.115125 -0.000115698 -0.000136561)
(0.117883 0.000169324 -8.40189e-05)
(0.120631 0.000177055 0.000253602)
(0.117536 0.000219746 -0.000141728)
(0.120917 0.000494252 2.11104e-05)
(0.121198 6.39414e-05 -0.000258487)
(0.120654 6.52716e-05 -0.000420913)
(0.120069 7.6685e-05 -7.28836e-05)
(0.116049 0.000295201 -0.000332464)
(0.123047 -9.30706e-05 -0.000408215)
(0.121483 -0.000187037 -0.000573266)
(0.1226 -0.000284021 -0.000556549)
(0.121269 -0.000464081 -0.00040133)
(0.12096 -0.00061786 -0.00042594)
(0.122934 -0.000469313 -0.000249177)
(0.122045 -0.00049204 -0.00012155)
(0.122577 0.000151925 -0.000411346)
(0.122837 -0.000115924 -0.000305833)
(0.116376 -0.000674579 -0.000430924)
(0.117406 -0.000891032 -0.000463467)
(0.105527 -4.64674e-05 -0.000398873)
(0.119695 -0.00072992 0.000317178)
(0.12067 -0.000339239 5.20855e-05)
(0.123046 -0.000374278 -0.000163813)
(0.120742 -0.000187206 -0.000263572)
(0.12321 -0.000406755 -0.000194903)
(0.122638 -6.52242e-05 0.000213689)
(0.122448 6.43355e-05 -9.2161e-05)
(0.12178 0.000270313 0.000252639)
(0.118329 -0.000276215 -0.000482325)
(0.122083 -0.000311415 -0.000597204)
(0.11302 0.000136216 0.00013256)
(0.11506 -0.000298806 0.000657973)
(0.114709 -0.000474336 0.000270205)
(0.103991 -0.000524718 0.00034277)
(0.121499 -0.000385156 -1.6155e-05)
(0.120631 -0.000468152 0.000319398)
(0.11576 -0.000339223 0.000888403)
(0.115136 -0.00105567 -0.000345888)
(0.107006 -0.000582521 -0.0002048)
(0.119982 0.000343358 -0.000147852)
(0.120231 0.000466545 0.000220286)
(0.103286 0.000141317 -0.000217914)
(0.120921 -0.000215258 0.000339363)
(0.123166 -0.000375915 0.000304548)
(0.115913 -0.00040585 0.000313245)
(0.118527 0.000312366 0.000317483)
(0.11928 -0.000385655 7.13042e-05)
(0.116614 0.000483356 -0.000234776)
(0.11675 0.000213763 -0.000271492)
(0.117189 0.000413189 -0.000580039)
(0.105428 2.86108e-05 -0.000110619)
(0.120842 -4.30739e-05 0.000122927)
(0.120195 1.25633e-05 0.000112232)
(0.119712 8.87328e-06 0.000194471)
(0.121757 0.000729158 -0.000300195)
(0.122604 0.000782104 -0.000263328)
(0.119803 0.000120955 -0.000203353)
(0.120641 7.0311e-05 -0.000359991)
(0.122719 -0.000656218 -0.000187114)
(0.122303 1.08348e-05 0.000277575)
(0.117504 -0.000537473 -1.58864e-05)
(0.117283 -0.000285527 -9.57407e-05)
(0.104771 -0.000319406 0.000130169)
(0.116065 -0.000932957 0.000231206)
(0.114728 -0.000627351 0.000607925)
(0.106563 -0.000604852 0.000186554)
(0.122009 -0.000628605 0.00035769)
(0.120343 -0.000128677 0.000553172)
(0.121397 -0.000463402 0.000622541)
(0.120105 -0.00028486 0.000108112)
(0.122517 0.000122429 -0.000641174)
(0.123282 1.33049e-06 -0.000610171)
(0.121169 0.000150679 -0.000436966)
(0.11679 0.000492479 0.000120121)
(0.117619 0.000132938 5.95502e-05)
(0.104631 0.000298762 -0.00047595)
(0.122621 -0.00063396 0.000119508)
(0.122543 -0.000663597 0.000364928)
(0.122388 -0.000449727 0.00028174)
(0.119343 -9.49818e-05 -0.000205951)
(0.117125 7.8287e-05 -0.000487427)
(0.106813 -5.23456e-05 -0.000377472)
(0.115271 -0.000253235 0.000233622)
(0.115257 -0.000526274 8.8835e-05)
(0.107251 -0.000317915 -4.21169e-05)
(0.119664 0.000229563 -0.000451369)
(0.11929 0.000196988 -0.00034067)
(0.120798 0.000311017 -0.000165663)
(0.114789 -0.000222465 -0.000366869)
(0.120254 -0.000349051 -0.000294834)
(0.122026 -0.000507425 7.32042e-05)
(0.120029 -0.000289556 0.000464536)
(0.121515 -0.000366714 7.14362e-05)
(0.118318 -0.00115269 0.000234685)
(0.119976 -0.000894149 1.38794e-05)
(0.120155 -0.000796357 -9.52949e-05)
(0.113074 -0.000869209 -0.000195095)
(0.115471 -0.000330519 0.000582189)
(0.119294 2.37281e-05 0.000550855)