/*--------------------------------*- C++ -*----------------------------------*\
| =========                 |                                                 |
| \\      /  F ield         | OpenFOAM: The Open Source CFD Toolbox           |
|  \\    /   O peration     | Version:  2212                                  |
|   \\  /    A nd           | Website:  www.openfoam.com                      |
|    \\/     M anipulation  |                                                 |
\*---------------------------------------------------------------------------*/
FoamFile
{
    version     2.0;
    format      ascii;
    arch        "LSB;label=32;scalar=64";
    class       volScalarField;
    location    "0.052";
    object      epsilon;
}
// * * * * * * * * * * * * * * * * * * * * * * * * * * * * * * * * * * * * * //

dimensions      [0 2 -3 0 0 0 0];

internalField   nonuniform List<scalar> 
31639
(
0.281596
0.281817
0.283341
0.276651
0.288636
0.286715
0.294535
0.283845
0.284058
0.277727
0.280504
0.278244
0.279757
0.276469
0.28143
0.296958
0.283254
0.291145
0.291904
0.284489
0.311246
0.280317
0.277582
0.291762
0.296822
0.284796
0.283071
0.231474
0.29244
0.279293
0.277145
0.29361
0.276019
0.296495
0.30723
0.27914
0.313239
0.278482
0.278287
0.323695
0.30343
0.309333
0.276196
0.281721
0.282299
0.277827
0.28375
0.288554
0.281851
0.277129
0.277966
0.316699
0.279202
0.317269
0.289882
0.285744
0.312611
0.283218
0.281316
0.310266
0.284198
0.283832
0.299901
0.284168
0.282142
0.276348
0.282746
0.281358
0.305201
0.276739
0.278004
0.28478
0.277652
0.281938
0.278938
0.309094
0.276836
0.290069
0.281262
0.281431
0.296798
0.3242
0.277317
0.280855
0.277391
0.277821
0.276774
0.276866
0.302114
0.27671
0.281578
0.286245
0.307736
0.282227
0.2959
0.284112
0.285669
0.282025
0.281413
0.310305
0.278221
0.278885
0.280629
0.310867
0.308735
0.277657
0.312557
0.317631
0.296787
0.316166
0.276446
0.309614
0.284948
0.291416
0.280546
0.315597
0.291366
0.29196
0.283577
0.282324
0.282095
0.278715
0.27793
0.283393
0.286786
0.27911
0.283198
0.296296
0.29724
0.276976
0.275941
0.276418
0.277091
0.292843
0.280781
0.280944
0.308429
0.313205
0.278103
0.282017
0.282319
0.277989
0.278059
0.313108
0.319789
0.277258
0.280204
0.308269
0.306767
0.277846
0.303624
0.286872
0.292254
0.281801
0.308545
0.277031
0.285916
0.30646
0.305698
0.293511
0.277451
0.310123
0.302798
0.313298
0.313409
0.282703
0.309982
0.278402
0.278505
0.309096
0.283966
0.284683
0.308386
0.28022
0.276664
0.279795
0.281359
0.278884
0.280312
0.279214
0.28223
0.288729
0.281485
0.320345
0.286732
0.277677
0.281415
0.278019
0.312546
0.312745
0.28258
0.281642
0.282399
0.28276
0.281901
0.2913
0.293068
0.277144
0.309884
0.289908
0.279304
0.278496
0.276696
0.276884
0.289139
0.282801
0.28325
0.28099
0.2801
0.321632
0.283112
0.291141
0.281973
0.280327
0.286337
0.276541
0.306924
0.29499
0.282391
0.279212
0.277717
0.288702
0.310379
0.288984
0.311401
0.29134
0.280341
0.298402
0.308606
0.28331
0.281473
0.278285
0.305002
0.31567
0.282457
0.281006
0.30893
0.276955
0.302982
0.312328
0.282246
0.282122
0.283321
0.298722
0.301352
0.284177
0.281227
0.283349
0.30765
0.28216
0.281926
0.310744
0.29891
0.278899
0.280441
0.293223
0.307344
0.278083
0.279169
0.293875
0.276563
0.277346
0.285872
0.277845
0.282955
0.290054
0.309145
0.294481
0.275367
0.28188
0.269609
0.2938
0.288314
0.285273
0.27687
0.28682
0.310625
0.290526
0.300138
0.277994
0.289882
0.27951
0.277737
0.292854
0.306667
0.305453
0.306673
0.317519
0.277201
0.303067
0.283366
0.281982
0.293305
0.304461
0.279552
0.293262
0.304252
0.280369
0.287783
0.304031
0.283282
0.303005
0.282349
0.282209
0.30921
0.290376
0.283119
0.319356
0.31594
0.277932
0.276761
0.269277
0.311736
0.308716
0.278393
0.301965
0.296523
0.278904
0.281486
0.283807
0.279091
0.276802
0.307277
0.276105
0.316669
0.317386
0.281498
0.278425
0.277598
0.277075
0.281573
0.303853
0.280861
0.281854
0.279169
0.280408
0.276892
0.282946
0.283374
0.283527
0.277614
0.280439
0.283199
0.286195
0.281426
0.287775
0.280823
0.281578
0.308169
0.286632
0.277125
0.29026
0.281491
0.276243
0.282707
0.30965
0.282778
0.282762
0.31198
0.280609
0.306016
0.286177
0.27251
0.317736
0.282605
0.283479
0.308899
0.284593
0.306197
0.287261
0.279805
0.28553
0.316767
0.282566
0.3056
0.282643
0.278067
0.279969
0.281826
0.306497
0.277507
0.310392
0.28256
0.316481
0.276962
0.277159
0.277109
0.276829
0.293938
0.282129
0.282152
0.282684
0.282901
0.312388
0.286027
0.280392
0.279038
0.279227
0.285425
0.280362
0.288809
0.309746
0.290522
0.281245
0.278948
0.31754
0.277992
0.277926
0.283543
0.277522
0.277503
0.288453
0.277014
0.298855
0.282491
0.279034
0.314938
0.285185
0.282009
0.306456
0.31018
0.309771
0.295447
0.313913
0.284366
0.273381
0.294802
0.281693
0.309191
0.278136
0.276986
0.282684
0.280313
0.289625
0.2795
0.284837
0.290801
0.276761
0.281086
0.309781
0.282449
0.279174
0.277492
0.282352
0.277453
0.283434
0.281859
0.281366
0.278946
0.28174
0.307648
0.284846
0.318659
0.29722
0.282569
0.311629
0.319286
0.292344
0.280503
0.279582
0.309687
0.282057
0.296902
0.282011
0.282359
0.254203
0.282534
0.318047
0.282651
0.277342
0.277983
0.278965
0.289884
0.309151
0.283499
0.280686
0.277555
0.314671
0.311127
0.282743
0.311043
0.304824
0.283487
0.314739
0.290128
0.301051
0.284093
0.308936
0.27687
0.278432
0.277805
0.27797
0.302843
0.277271
0.278182
0.284162
0.281322
0.28118
0.276825
0.283104
0.295808
0.279577
0.277289
0.281749
0.293539
0.277199
0.282084
0.317437
0.31915
0.283105
0.281544
0.276872
0.285501
0.283069
0.284772
0.277735
0.283175
0.291736
0.286691
0.306154
0.283109
0.286056
0.278303
0.305966
0.301263
0.302921
0.284799
0.282014
0.316296
0.283083
0.296767
0.281677
0.287502
0.277582
0.289296
0.30848
0.280548
0.275785
0.302508
0.279227
0.272324
0.273415
0.2837
0.232158
0.303316
0.281999
0.282485
0.306655
0.307882
0.282274
0.281814
0.281832
0.303385
0.289055
0.27799
0.28274
0.308092
0.300795
0.282218
0.277414
0.311674
0.318428
0.280146
0.312273
0.280853
0.278908
0.311334
0.281367
0.283339
0.290677
0.31635
0.277265
0.290841
0.305009
0.276768
0.280761
0.283906
0.278563
0.31689
0.293853
0.285724
0.292055
0.305098
0.293909
0.285657
0.276614
0.279058
0.279711
0.276878
0.279276
0.297763
0.277969
0.280152
0.280783
0.301254
0.28209
0.285781
0.278818
0.307167
0.317335
0.276563
0.299263
0.277026
0.284653
0.306451
0.28548
0.277798
0.289376
0.283026
0.308952
0.27818
0.282424
0.317678
0.278045
0.279311
0.239156
0.30853
0.309872
0.293675
0.281249
0.283349
0.284779
0.281441
0.278481
0.283182
0.284682
0.309676
0.276258
0.315616
0.281499
0.290853
0.285724
0.277117
0.281351
0.300575
0.312423
0.312358
0.289794
0.277431
0.298845
0.27716
0.292538
0.277412
0.309144
0.284002
0.28044
0.276185
0.278073
0.276568
0.280708
0.287662
0.27781
0.278646
0.27948
0.302002
0.278188
0.307061
0.278963
0.288559
0.284138
0.305501
0.283805
0.316214
0.277292
0.28899
0.27974
0.283699
0.283837
0.30512
0.266928
0.310496
0.323636
0.309127
0.307062
0.308145
0.285825
0.316441
0.275986
0.284786
0.319827
0.279419
0.308616
0.292236
0.282283
0.290838
0.282548
0.276423
0.275215
0.279917
0.287655
0.279961
0.293131
0.290369
0.312241
0.271819
0.277788
0.283057
0.28111
0.27836
0.309991
0.278625
0.279351
0.278571
0.277736
0.278079
0.281131
0.277731
0.27752
0.284616
0.279563
0.279497
0.306163
0.278683
0.292285
0.283885
0.282087
0.280926
0.29501
0.279666
0.284673
0.283588
0.291275
0.30905
0.277375
0.284985
0.29479
0.31217
0.277939
0.311446
0.275363
0.282938
0.283137
0.284134
0.277483
0.282002
0.312335
0.281372
0.293638
0.287575
0.304266
0.277702
0.278631
0.285102
0.283997
0.283236
0.283857
0.293218
0.286685
0.315168
0.277248
0.283214
0.275748
0.304002
0.281064
0.280599
0.284155
0.296419
0.280986
0.277732
0.284869
0.312714
0.314274
0.283009
0.312476
0.299672
0.28417
0.282072
0.276172
0.313827
0.28136
0.277375
0.304026
0.308941
0.279595
0.304607
0.287092
0.305492
0.281059
0.298979
0.294065
0.278268
0.313142
0.283508
0.283459
0.278603
0.279864
0.275874
0.30891
0.277356
0.281221
0.293645
0.277066
0.279894
0.284054
0.272074
0.281166
0.279996
0.278223
0.279685
0.279317
0.290335
0.282385
0.281254
0.306172
0.282179
0.284171
0.277888
0.282755
0.285973
0.277108
0.27923
0.280335
0.28155
0.278291
0.280456
0.28363
0.309343
0.28873
0.277693
0.320278
0.286569
0.284372
0.291307
0.284768
0.277246
0.279515
0.27674
0.285566
0.281167
0.282929
0.28148
0.282221
0.293077
0.309274
0.27879
0.313379
0.286443
0.289955
0.285302
0.283298
0.276553
0.310637
0.279501
0.306129
0.280843
0.295295
0.283391
0.283999
0.276705
0.30894
0.278348
0.278358
0.284694
0.285286
0.286205
0.316498
0.278226
0.280442
0.281569
0.27646
0.27722
0.280575
0.28935
0.279128
0.303404
0.289882
0.277611
0.308496
0.300941
0.280212
0.27699
0.293958
0.290674
0.287379
0.295659
0.282831
0.299756
0.279107
0.281344
0.320858
0.285404
0.275582
0.282862
0.285171
0.280986
0.27789
0.305213
0.305602
0.276387
0.278457
0.280442
0.30259
0.278789
0.27865
0.303341
0.280476
0.277976
0.278081
0.283776
0.277852
0.285388
0.279271
0.280422
0.29169
0.308311
0.282594
0.281046
0.30241
0.276803
0.31404
0.284751
0.28803
0.30894
0.285895
0.291946
0.279962
0.286738
0.281384
0.312494
0.313341
0.288849
0.308279
0.283862
0.277173
0.283598
0.278047
0.293329
0.282199
0.281288
0.292434
0.289045
0.280908
0.28314
0.285201
0.307095
0.28386
0.281329
0.275638
0.277537
0.315047
0.309566
0.283865
0.27668
0.298867
0.285078
0.286869
0.281845
0.279213
0.288582
0.283282
0.286181
0.308411
0.277945
0.284776
0.306881
0.297097
0.281263
0.293126
0.279046
0.280011
0.287712
0.307691
0.27756
0.308696
0.287183
0.28444
0.299168
0.282322
0.312852
0.283207
0.282421
0.28513
0.318134
0.309362
0.275947
0.279599
0.292812
0.27653
0.283844
0.281936
0.312009
0.306038
0.285449
0.28566
0.284381
0.27894
0.275832
0.281445
0.276441
0.284789
0.286464
0.278168
0.31386
0.28235
0.279657
0.281453
0.284672
0.281165
0.292272
0.277002
0.284974
0.315813
0.278215
0.300084
0.27825
0.291605
0.276321
0.309392
0.278985
0.2781
0.28565
0.281717
0.313843
0.276889
0.279011
0.277461
0.309548
0.276358
0.28631
0.276661
0.281717
0.280165
0.279266
0.282381
0.293359
0.281832
0.308707
0.309602
0.309931
0.29931
0.282423
0.312438
0.277891
0.278823
0.284498
0.285939
0.283794
0.283305
0.279183
0.283261
0.292609
0.278687
0.286396
0.295438
0.276731
0.2812
0.284163
0.279424
0.294911
0.280758
0.279535
0.276692
0.280729
0.279978
0.294566
0.278786
0.287049
0.284644
0.282286
0.282282
0.276521
0.282062
0.279026
0.290775
0.284408
0.282003
0.307567
0.315966
0.279494
0.295908
0.282834
0.293661
0.311828
0.285335
0.279484
0.3018
0.292988
0.281716
0.27758
0.278465
0.283919
0.305588
0.283455
0.285843
0.291718
0.283952
0.284009
0.317471
0.296821
0.296406
0.284609
0.281871
0.284173
0.281721
0.284004
0.282756
0.285022
0.301531
0.296227
0.32059
0.285203
0.283446
0.281258
0.279692
0.277758
0.309871
0.283047
0.291573
0.285232
0.282993
0.278327
0.312299
0.276305
0.308806
0.281283
0.284764
0.287485
0.281867
0.289689
0.284071
0.301825
0.285116
0.290398
0.284459
0.291913
0.30929
0.276855
0.280702
0.284507
0.278666
0.279651
0.307627
0.293601
0.286718
0.304564
0.277995
0.281708
0.277338
0.276291
0.277314
0.308882
0.312695
0.306756
0.278249
0.314328
0.277751
0.282845
0.305461
0.292235
0.279847
0.279165
0.296785
0.293081
0.28348
0.282423
0.280522
0.285246
0.30277
0.283543
0.282814
0.28089
0.283474
0.277966
0.278836
0.277966
0.284054
0.309539
0.314164
0.283693
0.295146
0.282957
0.316588
0.280806
0.286255
0.276822
0.308161
0.285712
0.279959
0.2848
0.294253
0.309302
0.280044
0.300911
0.283906
0.286662
0.276165
0.276418
0.282583
0.315584
0.311434
0.284233
0.288769
0.292238
0.281722
0.313865
0.27026
0.279083
0.294903
0.279552
0.274851
0.280964
0.27705
0.279596
0.283068
0.28271
0.314216
0.292057
0.278185
0.30969
0.281941
0.285537
0.301539
0.281849
0.254524
0.283122
0.278234
0.2788
0.313379
0.284448
0.283784
0.310095
0.291838
0.283142
0.292021
0.281166
0.306421
0.307107
0.284239
0.291193
0.276454
0.278367
0.277028
0.28151
0.282861
0.281242
0.281257
0.278907
0.303022
0.282241
0.288335
0.278828
0.283864
0.293762
0.289277
0.281698
0.311023
0.285344
0.280037
0.286332
0.324655
0.285774
0.313927
0.282639
0.31836
0.280647
0.279428
0.283577
0.28167
0.303321
0.307266
0.279647
0.281467
0.283213
0.283043
0.293038
0.276871
0.280734
0.278706
0.309915
0.296603
0.279379
0.279204
0.287139
0.285644
0.309013
0.280652
0.27825
0.280992
0.281802
0.282119
0.28253
0.277822
0.280051
0.306321
0.282548
0.281923
0.282817
0.284702
0.28289
0.318752
0.299344
0.278663
0.282114
0.281269
0.281238
0.28054
0.27727
0.282991
0.285027
0.27905
0.278404
0.294352
0.290067
0.282519
0.282254
0.279269
0.31548
0.284339
0.309279
0.278516
0.310306
0.306984
0.281003
0.313942
0.294725
0.281971
0.277643
0.277974
0.293989
0.286756
0.277405
0.302769
0.306768
0.293916
0.297257
0.27838
0.282473
0.284554
0.312434
0.2821
0.278013
0.27767
0.307861
0.305295
0.285796
0.28256
0.282433
0.298698
0.308335
0.288518
0.293519
0.277629
0.280138
0.313481
0.282917
0.280794
0.305584
0.317129
0.278187
0.298875
0.300287
0.276099
0.282126
0.276984
0.278021
0.279976
0.292501
0.279146
0.294901
0.277037
0.294594
0.277913
0.280186
0.282085
0.306507
0.276134
0.274853
0.28774
0.283408
0.284636
0.301654
0.246231
0.282524
0.290276
0.27691
0.290944
0.273118
0.309469
0.279423
0.279404
0.313286
0.280163
0.284569
0.319581
0.307785
0.282581
0.281465
0.279859
0.29373
0.306472
0.27774
0.280092
0.279742
0.283286
0.276174
0.31039
0.279611
0.283479
0.308778
0.307804
0.324637
0.30239
0.277167
0.293242
0.28381
0.27976
0.294683
0.29303
0.315215
0.315909
0.278948
0.27884
0.306948
0.28045
0.284421
0.309329
0.285909
0.28892
0.304739
0.288564
0.274928
0.305448
0.317063
0.276699
0.279619
0.299807
0.281492
0.296321
0.30096
0.308224
0.281882
0.304709
0.3116
0.283868
0.276172
0.285159
0.285019
0.27996
0.284564
0.27623
0.242644
0.282792
0.306866
0.276523
0.280948
0.28187
0.293228
0.281096
0.303565
0.279858
0.28301
0.290568
0.311461
0.312014
0.319805
0.292826
0.30927
0.287723
0.303182
0.290503
0.277572
0.281466
0.290851
0.282221
0.283492
0.285199
0.277636
0.31425
0.28379
0.277066
0.276956
0.282772
0.277449
0.301212
0.284962
0.284099
0.310484
0.284489
0.27639
0.278314
0.272775
0.280633
0.284889
0.317042
0.309803
0.283301
0.277801
0.285219
0.277222
0.293892
0.29018
0.303661
0.313061
0.31241
0.316735
0.280127
0.282207
0.274148
0.282874
0.291029
0.280019
0.319031
0.279067
0.282348
0.279484
0.28336
0.284632
0.278212
0.277866
0.280353
0.251645
0.288733
0.280589
0.278211
0.27951
0.279606
0.282226
0.277748
0.280246
0.296242
0.279897
0.28201
0.278165
0.27927
0.312576
0.277001
0.280051
0.282566
0.276844
0.307524
0.318319
0.282932
0.280763
0.294838
0.278414
0.276692
0.276016
0.275325
0.292785
0.282358
0.28515
0.280369
0.315952
0.316017
0.286237
0.28456
0.304494
0.278057
0.308042
0.28887
0.283622
0.284326
0.291014
0.275572
0.285509
0.282571
0.282309
0.282853
0.281681
0.293192
0.316952
0.278583
0.323352
0.322386
0.250698
0.307236
0.313996
0.287685
0.284091
0.30726
0.293003
0.322099
0.306372
0.279919
0.28158
0.312603
0.312907
0.277641
0.312498
0.282803
0.278706
0.288914
0.278136
0.304929
0.308484
0.287803
0.280633
0.303062
0.307285
0.288771
0.295826
0.282809
0.282141
0.311554
0.279752
0.312682
0.314258
0.291045
0.281644
0.295772
0.291707
0.291337
0.278052
0.315917
0.304007
0.284508
0.271693
0.280576
0.316079
0.319221
0.290006
0.275451
0.281708
0.284936
0.286741
0.280621
0.280825
0.305679
0.277203
0.294703
0.307285
0.318676
0.276811
0.282056
0.278214
0.281201
0.278712
0.309437
0.289885
0.31582
0.326955
0.286008
0.308887
0.29523
0.282369
0.256626
0.308629
0.277794
0.278994
0.277291
0.282187
0.329312
0.281491
0.309571
0.279449
0.312028
0.277934
0.319536
0.283658
0.28799
0.29623
0.291856
0.318236
0.296729
0.281394
0.278431
0.281056
0.280108
0.27973
0.310511
0.278404
0.242429
0.281837
0.2817
0.279511
0.283062
0.269581
0.280986
0.289852
0.293846
0.293788
0.279275
0.279428
0.293821
0.298983
0.282746
0.288076
0.279416
0.27349
0.281643
0.287265
0.286232
0.276629
0.279533
0.278094
0.285568
0.28016
0.283678
0.263062
0.281131
0.29311
0.280866
0.285035
0.27612
0.304798
0.303355
0.283017
0.272675
0.275583
0.269541
0.27785
0.282934
0.280251
0.304443
0.294657
0.278526
0.279536
0.278369
0.277097
0.293481
0.275693
0.308327
0.277054
0.292796
0.281518
0.290149
0.282884
0.280633
0.278019
0.307806
0.279066
0.276064
0.287328
0.304903
0.278656
0.277307
0.278925
0.281798
0.281851
0.282781
0.308566
0.276633
0.291983
0.282997
0.297441
0.295201
0.304146
0.312963
0.293578
0.27896
0.285105
0.304016
0.288109
0.309909
0.28596
0.284254
0.31782
0.30674
0.297437
0.284783
0.282609
0.291593
0.258939
0.289272
0.256552
0.299184
0.276357
0.277676
0.279799
0.265324
0.284911
0.314637
0.30412
0.281692
0.295592
0.290513
0.278787
0.277533
0.282132
0.273684
0.313649
0.270247
0.277531
0.289856
0.275947
0.274298
0.282414
0.272366
0.278191
0.293585
0.305374
0.284438
0.312903
0.31688
0.289086
0.284382
0.285316
0.284082
0.282794
0.283565
0.319379
0.292639
0.275624
0.280705
0.31287
0.290241
0.298975
0.280968
0.277462
0.291751
0.281316
0.280157
0.281355
0.311928
0.278563
0.312115
0.275518
0.27689
0.279579
0.275266
0.281271
0.275589
0.307991
0.272213
0.277645
0.298218
0.279352
0.284393
0.292094
0.280334
0.288076
0.278898
0.278756
0.274941
0.281773
0.277687
0.285478
0.277098
0.304467
0.282558
0.310525
0.30834
0.284987
0.282854
0.282773
0.280111
0.269881
0.278076
0.311892
0.28188
0.277825
0.283562
0.276508
0.308306
0.315142
0.28315
0.317024
0.277033
0.281517
0.318017
0.287291
0.281243
0.286053
0.310266
0.299986
0.314712
0.2793
0.315329
0.28034
0.280997
0.31529
0.281458
0.279695
0.278218
0.276179
0.300053
0.278737
0.280082
0.301758
0.281933
0.277942
0.284076
0.304791
0.272518
0.285235
0.278211
0.292283
0.279974
0.289687
0.290878
0.293103
0.290979
0.269911
0.278642
0.278954
0.299574
0.283585
0.281249
0.276065
0.282121
0.318698
0.275968
0.301514
0.280297
0.276983
0.275466
0.292729
0.282906
0.281453
0.284292
0.280238
0.28782
0.30908
0.306318
0.283759
0.278168
0.259115
0.293371
0.277541
0.306464
0.281242
0.311578
0.28013
0.278192
0.279844
0.309783
0.278422
0.308013
0.282079
0.284331
0.297631
0.283304
0.301061
0.29427
0.281905
0.308971
0.295102
0.282635
0.320153
0.284521
0.279356
0.319435
0.294866
0.270139
0.287331
0.284534
0.278223
0.280273
0.274899
0.295453
0.312692
0.316959
0.232352
0.277076
0.267129
0.278732
0.280002
0.305339
0.30499
0.282033
0.282953
0.315544
0.281799
0.279631
0.293967
0.276768
0.284051
0.274471
0.302626
0.288748
0.280211
0.323903
0.275567
0.267502
0.278492
0.277388
0.278351
0.283386
0.312241
0.27929
0.28372
0.280331
0.27766
0.26928
0.27481
0.279931
0.284092
0.275951
0.283127
0.279345
0.307689
0.28803
0.27665
0.265271
0.279159
0.283086
0.285582
0.278338
0.307531
0.278481
0.307397
0.281104
0.28133
0.288921
0.281564
0.291235
0.287457
0.277965
0.288719
0.267959
0.260363
0.279645
0.313329
0.282519
0.28208
0.296705
0.277128
0.280493
0.277233
0.278019
0.310911
0.278261
0.27846
0.277242
0.286599
0.283652
0.314903
0.304208
0.272482
0.308365
0.279447
0.279996
0.303091
0.286374
0.275394
0.294809
0.296673
0.298297
0.291489
0.287295
0.272355
0.292647
0.276552
0.267126
0.279168
0.312885
0.279693
0.279115
0.275498
0.306339
0.29686
0.285903
0.232473
0.305468
0.281854
0.285396
0.2793
0.26873
0.278496
0.280593
0.286992
0.278888
0.285386
0.289869
0.289846
0.277189
0.278734
0.282281
0.271635
0.274934
0.301863
0.310556
0.28599
0.247508
0.283558
0.276866
0.279636
0.275363
0.27987
0.269075
0.281672
0.27452
0.301789
0.286162
0.289828
0.274964
0.279261
0.274772
0.280726
0.285702
0.288782
0.280037
0.283299
0.283243
0.278369
0.2844
0.294505
0.294198
0.30469
0.289576
0.281481
0.305577
0.278488
0.284521
0.277097
0.281202
0.278974
0.280025
0.269339
0.266401
0.28318
0.282024
0.276293
0.291066
0.31233
0.280576
0.289219
0.280833
0.282888
0.282383
0.277464
0.284031
0.314347
0.295075
0.309998
0.281613
0.284536
0.305726
0.279022
0.286034
0.291664
0.282182
0.298827
0.303977
0.276881
0.302041
0.306788
0.23941
0.248955
0.278048
0.299358
0.280351
0.279153
0.296575
0.280101
0.274585
0.269833
0.27807
0.312017
0.277617
0.244583
0.274441
0.300906
0.301289
0.27587
0.312481
0.29345
0.287492
0.278236
0.274256
0.275255
0.289897
0.28433
0.259468
0.285188
0.283631
0.278542
0.287119
0.304654
0.268618
0.282804
0.274337
0.236058
0.304696
0.281494
0.311223
0.308095
0.281848
0.277658
0.292173
0.287786
0.279586
0.274145
0.282345
0.260393
0.316594
0.275728
0.311318
0.280327
0.307334
0.282531
0.276079
0.277623
0.306733
0.289735
0.278044
0.278484
0.284131
0.274105
0.285336
0.280318
0.282849
0.306188
0.283399
0.295486
0.268282
0.272128
0.276978
0.285778
0.276056
0.287985
0.29209
0.308391
0.275339
0.275095
0.317445
0.279383
0.282614
0.282627
0.306666
0.282288
0.289985
0.285081
0.25164
0.291788
0.281825
0.32315
0.281492
0.313486
0.306536
0.285441
0.279571
0.315577
0.28112
0.280336
0.243548
0.316894
0.272998
0.277141
0.322842
0.284271
0.323184
0.315659
0.27999
0.278504
0.286547
0.269484
0.279812
0.281729
0.292131
0.26792
0.287102
0.284749
0.288205
0.272699
0.304743
0.262408
0.289777
0.2909
0.279063
0.274681
0.284957
0.279538
0.285443
0.274392
0.279306
0.287135
0.284934
0.278374
0.284792
0.282637
0.276948
0.280231
0.282182
0.256713
0.261856
0.273409
0.287273
0.29515
0.267474
0.270763
0.295969
0.282609
0.260396
0.307035
0.304372
0.273443
0.274253
0.28487
0.279604
0.278722
0.301255
0.281589
0.284518
0.301614
0.290708
0.309788
0.271217
0.281902
0.281598
0.276575
0.309331
0.285185
0.281564
0.278764
0.276067
0.238531
0.283129
0.281307
0.280066
0.267003
0.280639
0.246108
0.274608
0.275738
0.297075
0.31771
0.294697
0.272732
0.278362
0.300657
0.297578
0.279336
0.280313
0.283098
0.294447
0.320978
0.29662
0.296503
0.282679
0.285664
0.285855
0.279405
0.275301
0.253555
0.279563
0.275954
0.28402
0.292813
0.279375
0.264161
0.305736
0.293326
0.282815
0.253153
0.255954
0.281137
0.285178
0.274771
0.31396
0.284895
0.279956
0.267528
0.267488
0.27062
0.276357
0.279773
0.276857
0.281404
0.288578
0.272689
0.276896
0.278233
0.280233
0.274589
0.274385
0.305535
0.295414
0.314381
0.286721
0.259207
0.288208
0.304914
0.280701
0.294872
0.297796
0.287478
0.274797
0.283381
0.26895
0.281877
0.285587
0.273245
0.305754
0.274436
0.302057
0.281251
0.269407
0.284044
0.282807
0.27598
0.268359
0.300074
0.300506
0.290677
0.292221
0.286022
0.245207
0.280516
0.289964
0.274488
0.286423
0.293638
0.294508
0.246842
0.278004
0.283164
0.304859
0.307473
0.293919
0.270887
0.276387
0.302678
0.24054
0.274959
0.311227
0.278255
0.28131
0.278761
0.311291
0.27798
0.302638
0.298836
0.305926
0.273592
0.283536
0.286521
0.280158
0.281259
0.282558
0.307383
0.321818
0.280378
0.285117
0.281686
0.272306
0.304586
0.274216
0.291674
0.25565
0.283196
0.294021
0.296813
0.28067
0.274846
0.299068
0.30421
0.26465
0.269355
0.274664
0.290633
0.30194
0.30751
0.277151
0.282621
0.26412
0.272125
0.289819
0.281309
0.273246
0.262471
0.278826
0.27433
0.290834
0.281987
0.269806
0.276723
0.289349
0.258278
0.275805
0.268543
0.25578
0.272855
0.274682
0.287438
0.269918
0.276111
0.252403
0.28636
0.306303
0.278007
0.284283
0.292841
0.283575
0.262438
0.278509
0.258494
0.306554
0.305074
0.278505
0.240651
0.279611
0.310304
0.291355
0.28052
0.305024
0.280667
0.282542
0.317654
0.285762
0.276422
0.278647
0.279864
0.275834
0.276257
0.276306
0.27544
0.277426
0.28402
0.270555
0.28598
0.275855
0.269824
0.2785
0.279048
0.283655
0.260512
0.278587
0.279384
0.283815
0.292821
0.28598
0.313412
0.273078
0.282576
0.279928
0.278315
0.264706
0.28388
0.312515
0.28119
0.291337
0.294397
0.256398
0.307623
0.271025
0.285363
0.278577
0.27968
0.263102
0.30734
0.2845
0.267362
0.301826
0.270103
0.272024
0.251043
0.278627
0.294765
0.295009
0.263054
0.254799
0.258667
0.302604
0.283202
0.258093
0.276308
0.308267
0.284069
0.267697
0.272588
0.259813
0.280938
0.26813
0.286633
0.284093
0.268265
0.26566
0.296353
0.297543
0.280156
0.291249
0.312027
0.248606
0.277391
0.301235
0.288949
0.304796
0.277903
0.27517
0.280529
0.237937
0.27876
0.280439
0.282072
0.275712
0.281629
0.280358
0.26977
0.288887
0.284721
0.274928
0.284193
0.292158
0.292338
0.281162
0.252096
0.296828
0.256783
0.266322
0.273311
0.259324
0.278986
0.282007
0.280439
0.284792
0.279389
0.262294
0.258628
0.232177
0.282944
0.27068
0.290069
0.291885
0.307201
0.27152
0.278041
0.273699
0.26364
0.263556
0.265653
0.27653
0.293218
0.282938
0.281432
0.260604
0.307369
0.297632
0.307115
0.25845
0.275394
0.246652
0.235796
0.285058
0.253808
0.312493
0.281658
0.30999
0.302212
0.261483
0.298594
0.297257
0.258579
0.247248
0.277553
0.310255
0.278597
0.283086
0.282715
0.272904
0.272945
0.258128
0.26049
0.307108
0.292863
0.281171
0.288667
0.275802
0.287401
0.26637
0.289604
0.281783
0.284418
0.268704
0.232211
0.230715
0.262452
0.275131
0.27398
0.283906
0.265707
0.307402
0.2797
0.28775
0.260378
0.311595
0.269825
0.264762
0.285587
0.312096
0.257445
0.279292
0.233326
0.257307
0.240174
0.27838
0.305786
0.296497
0.27114
0.297007
0.267733
0.304787
0.239612
0.278617
0.291773
0.280178
0.253508
0.318693
0.255664
0.276472
0.250622
0.274721
0.279864
0.263565
0.318545
0.266287
0.285093
0.272179
0.277411
0.282536
0.259435
0.295804
0.310485
0.269895
0.31109
0.246441
0.310455
0.297637
0.262026
0.280027
0.279371
0.285339
0.252695
0.301863
0.276552
0.254845
0.272564
0.302273
0.2761
0.275659
0.245541
0.274256
0.284415
0.277566
0.27536
0.273817
0.276439
0.30332
0.276506
0.281506
0.296499
0.239723
0.264093
0.273135
0.289045
0.282234
0.248322
0.273573
0.261939
0.261784
0.240658
0.229464
0.231176
0.281927
0.285636
0.282121
0.275521
0.295186
0.286633
0.280659
0.280401
0.259971
0.269462
0.280435
0.268007
0.279696
0.292813
0.307948
0.265907
0.280002
0.277325
0.263419
0.279693
0.274679
0.293111
0.260044
0.283604
0.264421
0.265646
0.259727
0.301315
0.254891
0.274657
0.258239
0.270225
0.252194
0.250351
0.270642
0.302523
0.251729
0.3125
0.287967
0.296884
0.242067
0.282169
0.266703
0.260797
0.266147
0.284495
0.275705
0.228596
0.270551
0.250523
0.281421
0.292446
0.284822
0.259535
0.280562
0.278333
0.274613
0.253702
0.262485
0.275112
0.269569
0.241594
0.237666
0.279286
0.247977
0.246539
0.26005
0.269183
0.278551
0.262703
0.251382
0.253913
0.282762
0.262994
0.249215
0.234835
0.27309
0.259488
0.290917
0.295728
0.279202
0.287429
0.264585
0.260515
0.256071
0.234518
0.233114
0.279463
0.291573
0.267634
0.281131
0.274821
0.274012
0.268027
0.245035
0.255468
0.305856
0.27223
0.292772
0.244676
0.282034
0.280498
0.303128
0.303385
0.265491
0.251212
0.252763
0.282518
0.272142
0.279835
0.279546
0.252732
0.251452
0.314891
0.253281
0.231395
0.250875
0.268685
0.256124
0.269824
0.25302
0.267023
0.26809
0.23533
0.297068
0.294137
0.267338
0.274042
0.255967
0.265408
0.27679
0.253583
0.306746
0.25924
0.274478
0.290997
0.25978
0.260094
0.280819
0.267182
0.263297
0.277383
0.288816
0.26771
0.276157
0.255587
0.264344
0.247304
0.260887
0.277056
0.267232
0.264512
0.270138
0.281296
0.252307
0.244645
0.245162
0.279379
0.29586
0.240087
0.269557
0.290455
0.279491
0.280009
0.301521
0.244069
0.26109
0.252996
0.249152
0.283929
0.288864
0.292752
0.293312
0.267172
0.272147
0.265736
0.278089
0.255259
0.249646
0.268712
0.243609
0.304302
0.261927
0.268462
0.25592
0.2601
0.297322
0.252196
0.243423
0.255135
0.248657
0.283316
0.274317
0.257978
0.240176
0.256371
0.242164
0.277733
0.286756
0.288117
0.280084
0.263129
0.284699
0.281461
0.304763
0.268391
0.278362
0.252535
0.277184
0.264251
0.256631
0.248708
0.304093
0.256532
0.276962
0.255401
0.275138
0.22697
0.236134
0.25138
0.273399
0.255209
0.248026
0.26451
0.28344
0.280253
0.264416
0.269385
0.286534
0.277617
0.276682
0.237264
0.255106
0.280612
0.24922
0.286955
0.254062
0.240606
0.279266
0.254373
0.267875
0.258054
0.252695
0.24873
0.244733
0.291045
0.288051
0.279276
0.261912
0.25372
0.255625
0.253141
0.270599
0.255106
0.276192
0.251804
0.281275
0.240914
0.286199
0.254248
0.251598
0.283057
0.279275
0.26039
0.26694
0.230898
0.253231
0.256722
0.24166
0.258459
0.274409
0.293437
0.284648
0.28526
0.265109
0.261787
0.253511
0.249196
0.265462
0.268373
0.300377
0.264195
0.268399
0.277727
0.247226
0.25617
0.298573
0.293928
0.308148
0.28092
0.229859
0.244961
0.308464
0.272629
0.251933
0.277828
0.298508
0.304626
0.258757
0.256425
0.273753
0.240309
0.2279
0.280715
0.231627
0.282185
0.253965
0.24232
0.26773
0.252509
0.281823
0.283343
0.238094
0.237214
0.27123
0.245619
0.258537
0.240134
0.250025
0.259181
0.283668
0.246337
0.263842
0.28988
0.26513
0.260607
0.245856
0.271905
0.263565
0.261833
0.245956
0.257159
0.268762
0.274719
0.257611
0.290192
0.256215
0.278371
0.236039
0.257997
0.249222
0.285545
0.264392
0.281168
0.299372
0.260591
0.286297
0.28021
0.265109
0.272125
0.245982
0.252457
0.267215
0.261204
0.277819
0.260055
0.245079
0.271875
0.253276
0.248009
0.234697
0.257808
0.259177
0.28463
0.238503
0.264678
0.277481
0.239132
0.243326
0.284942
0.244726
0.260602
0.258645
0.259057
0.2294
0.236493
0.257227
0.249927
0.267993
0.25568
0.264951
0.239099
0.266955
0.271635
0.257597
0.244741
0.26224
0.289351
0.262186
0.260958
0.283931
0.230013
0.235602
0.264938
0.22687
0.298037
0.269463
0.259187
0.269393
0.261912
0.242606
0.293722
0.278804
0.235957
0.281787
0.271735
0.256625
0.255773
0.25005
0.245198
0.254563
0.276028
0.295254
0.241899
0.269753
0.26321
0.243047
0.303628
0.247117
0.238541
0.237642
0.253603
0.256272
0.255789
0.266902
0.269929
0.271606
0.248251
0.249847
0.242081
0.284937
0.249343
0.226884
0.248197
0.247511
0.240117
0.268062
0.249902
0.275609
0.27727
0.262836
0.284536
0.263166
0.273575
0.26726
0.260678
0.29414
0.275656
0.244402
0.239981
0.266095
0.233528
0.22609
0.237263
0.271466
0.231469
0.229405
0.258525
0.273125
0.271711
0.275162
0.243816
0.23259
0.256921
0.253613
0.242972
0.275416
0.247992
0.279108
0.237685
0.231423
0.242814
0.241068
0.299754
0.253841
0.269923
0.270217
0.264545
0.256265
0.246625
0.269907
0.241061
0.252091
0.278141
0.24398
0.275407
0.230222
0.229683
0.262493
0.250437
0.253004
0.247963
0.266782
0.268147
0.292393
0.305479
0.285254
0.234859
0.229637
0.24948
0.252891
0.230874
0.228798
0.236521
0.245433
0.266552
0.280494
0.264754
0.258975
0.278042
0.228565
0.248557
0.253246
0.270965
0.270204
0.238999
0.255038
0.255609
0.27192
0.28385
0.24534
0.246685
0.275966
0.294261
0.281051
0.247149
0.278018
0.267862
0.266956
0.282555
0.271465