/*--------------------------------*- C++ -*----------------------------------*\
| =========                 |                                                 |
| \\      /  F ield         | OpenFOAM: The Open Source CFD Toolbox           |
|  \\    /   O peration     | Version:  2212                                  |
|   \\  /    A nd           | Website:  www.openfoam.com                      |
|    \\/     M anipulation  |                                                 |
\*---------------------------------------------------------------------------*/
FoamFile
{
    version     2.0;
    format      ascii;
    arch        "LSB;label=32;scalar=64";
    class       volScalarField;
    location    "0.052";
    object      k;
}
// * * * * * * * * * * * * * * * * * * * * * * * * * * * * * * * * * * * * * //

dimensions      [0 2 -2 0 0 0 0];

internalField   nonuniform List<scalar> 
31639
(
0.0103472
0.0101706
0.0102877
0.0106345
0.0102684
0.0101049
0.0100968
0.0104263
0.0103067
0.0104987
0.0104797
0.0104873
0.0102382
0.0105468
0.01002
0.00994818
0.0104123
0.0101309
0.00986205
0.010275
0.00939982
0.0105476
0.0105548
0.00987729
0.00983768
0.0102658
0.0102269
0.00849825
0.0100839
0.0106132
0.0105016
0.0100262
0.0105525
0.00983229
0.0096385
0.0105875
0.00914547
0.0107325
0.0105548
0.00911363
0.00955231
0.00963074
0.0104383
0.010527
0.0104868
0.0105074
0.0100632
0.0101083
0.0103941
0.0106019
0.010495
0.00915056
0.0106145
0.0093732
0.0100285
0.0103446
0.00943742
0.0102541
0.0101317
0.00943667
0.01024
0.0105285
0.00991007
0.0102217
0.0103084
0.0106166
0.0101954
0.0102152
0.00979256
0.0105919
0.0105043
0.00983264
0.0104039
0.0102488
0.0105269
0.00967107
0.0104447
0.0101073
0.0100149
0.0104023
0.00988683
0.00905005
0.0105549
0.0103139
0.0102901
0.0104732
0.0105719
0.0105324
0.00971504
0.010629
0.0102871
0.0103181
0.00947979
0.0100764
0.00970753
0.0101127
0.0100931
0.0102249
0.010266
0.00948474
0.0105606
0.0104503
0.0100558
0.00936616
0.0094321
0.0105312
0.00939695
0.00925558
0.00972404
0.00938589
0.0103933
0.00951383
0.010129
0.00999484
0.010214
0.00934158
0.0101967
0.0102406
0.0104148
0.0101409
0.0104802
0.0104615
0.0104356
0.0103027
0.0103161
0.0105548
0.0102299
0.00977287
0.00964133
0.0104025
0.0104751
0.0104404
0.0105089
0.0101047
0.0104672
0.010207
0.00943638
0.0092795
0.0104411
0.010224
0.0102139
0.0104711
0.0105024
0.00931007
0.00918263
0.0105486
0.0104061
0.00956333
0.00954025
0.0104776
0.00986856
0.0104465
0.00988936
0.0104033
0.00974159
0.0106102
0.0102294
0.00972698
0.00965926
0.00988505
0.01054
0.00979051
0.00988586
0.009434
0.00956856
0.01011
0.00971344
0.0106272
0.0104799
0.00931999
0.00997929
0.00993981
0.00960515
0.0102085
0.010631
0.0103745
0.0102769
0.0106307
0.0102233
0.0101948
0.0100492
0.0101278
0.00995928
0.00917275
0.0103243
0.0106813
0.010145
0.0105983
0.00956643
0.00954436
0.010863
0.0104729
0.0104241
0.0101583
0.0102411
0.010105
0.0100892
0.0104085
0.00939509
0.0100621
0.0105633
0.0106576
0.0103917
0.010349
0.0102498
0.0101432
0.0101132
0.00995432
0.0105374
0.00918717
0.0101742
0.0101216
0.0103621
0.0104998
0.0105599
0.0105424
0.00961818
0.00992353
0.0105435
0.0104099
0.0103269
0.0102064
0.00939638
0.0101879
0.0094459
0.0101259
0.0104628
0.00997879
0.00959223
0.0104082
0.0103342
0.0106663
0.00971199
0.00956921
0.010378
0.0103999
0.00939651
0.0105776
0.00990501
0.00938612
0.010063
0.0103755
0.0101848
0.0100177
0.00996867
0.0104457
0.0100404
0.00998384
0.00959614
0.0101346
0.00999826
0.00967881
0.0100297
0.0106258
0.0104633
0.0100419
0.00966852
0.0103949
0.010417
0.0103867
0.0106096
0.0105187
0.0102664
0.0105337
0.010048
0.0101588
0.00927202
0.00985529
0.010502
0.00998581
0.0101315
0.0100076
0.0102829
0.0107717
0.0106361
0.010385
0.00949584
0.0101489
0.00984221
0.010516
0.0101925
0.010622
0.0106082
0.0100908
0.00955597
0.00992327
0.0096969
0.00949995
0.0104969
0.00973955
0.0105114
0.0100974
0.00995112
0.0096791
0.0107195
0.0100506
0.0101589
0.0105417
0.0103282
0.00995141
0.0101105
0.00977177
0.0102126
0.0100852
0.00961498
0.0100236
0.00998451
0.00898054
0.00925916
0.0105038
0.0105531
0.010187
0.0093936
0.00975933
0.0104023
0.00975427
0.00963609
0.0105737
0.0107468
0.0100871
0.0105098
0.010589
0.00963544
0.0104737
0.00936925
0.00940358
0.0106288
0.0105019
0.0105166
0.0106226
0.0104548
0.009679
0.0101444
0.010105
0.0105652
0.0106898
0.0106739
0.0101111
0.00996425
0.0104433
0.0103878
0.0102968
0.010048
0.0101322
0.0100367
0.0102141
0.0103363
0.0100717
0.00963295
0.0103633
0.0106261
0.0100511
0.0105463
0.0105629
0.0101669
0.00961887
0.0101498
0.0101335
0.00938315
0.0107682
0.00976172
0.010339
0.0103382
0.00932146
0.0101885
0.0101691
0.00948145
0.0102627
0.00966968
0.0102166
0.0106127
0.0104296
0.00926037
0.0103015
0.00968181
0.010318
0.0105067
0.010594
0.0105741
0.00976276
0.0104411
0.00940581
0.0100541
0.00941033
0.0105704
0.0104303
0.0105199
0.0104666
0.00975275
0.0106707
0.0101448
0.0104215
0.0101203
0.00990375
0.0101736
0.0103884
0.0103457
0.010407
0.010275
0.0104254
0.0101377
0.00966881
0.0102231
0.0103544
0.0103609
0.00929382
0.0105296
0.0104927
0.0101387
0.0102833
0.0103479
0.0103137
0.0105907
0.00925651
0.0103325
0.0105366
0.00929487
0.0102202
0.0103354
0.00969598
0.0094709
0.00946732
0.0100415
0.00949912
0.0101376
0.00990973
0.0100181
0.0106295
0.00956204
0.0104509
0.0105611
0.0101801
0.0104771
0.010054
0.0105614
0.0101666
0.0103644
0.0106182
0.0101362
0.00953779
0.0102093
0.0105415
0.0104863
0.0104188
0.010563
0.0100562
0.0102986
0.0104968
0.010649
0.0105658
0.009642
0.0101357
0.00913734
0.010293
0.010083
0.00958986
0.00952182
0.0100287
0.0104335
0.0104786
0.00948411
0.0104307
0.00998438
0.0101305
0.0104627
0.00838581
0.0100989
0.00940884
0.0100133
0.0105013
0.0106226
0.0104341
0.0102032
0.00927838
0.0104143
0.0102011
0.0103469
0.0094389
0.0096603
0.010133
0.00952095
0.00965966
0.0102648
0.00940064
0.0100733
0.00923005
0.0104233
0.0095731
0.0106017
0.0104824
0.010451
0.0105315
0.00998647
0.0104294
0.0105226
0.0102483
0.0104936
0.0101989
0.0104433
0.01068
0.0100003
0.0105233
0.0105551
0.0101379
0.0098396
0.0106247
0.0102023
0.00926636
0.00939465
0.010198
0.0106483
0.0105588
0.0101857
0.0108038
0.0107407
0.0103785
0.0102557
0.0101177
0.0100527
0.00966359
0.0101692
0.0103935
0.0105983
0.00991687
0.0097852
0.00973703
0.0100158
0.0101
0.00917305
0.0103998
0.00997685
0.0103749
0.0102088
0.0104823
0.0102115
0.00967814
0.0103542
0.0105357
0.00981715
0.0104777
0.010503
0.00993042
0.0101427
0.00851483
0.00977693
0.0101441
0.0102007
0.00969645
0.00962311
0.0102168
0.00950944
0.010381
0.00991588
0.0101222
0.0105269
0.0101614
0.00937748
0.01004
0.0102175
0.0105573
0.00956465
0.00909755
0.0105062
0.00944051
0.0102588
0.0106738
0.00961596
0.01015
0.0105752
0.010282
0.0095588
0.0104885
0.010283
0.00946938
0.0104353
0.0102481
0.0101082
0.0103504
0.00928543
0.00986684
0.0103448
0.0100453
0.0102091
0.0102755
0.0106699
0.0104582
0.0103361
0.0105279
0.0105345
0.0104351
0.00982891
0.0104278
0.0105762
0.0106754
0.00980408
0.0102233
0.0102743
0.0108067
0.00971823
0.00924547
0.0105671
0.00967552
0.0107145
0.0100511
0.00961841
0.0102643
0.0105083
0.0103923
0.0103414
0.00929769
0.0103827
0.0102144
0.00935665
0.010562
0.010482
0.00854403
0.00958304
0.00982691
0.0100261
0.0102789
0.0102514
0.0101786
0.0101887
0.0105071
0.010188
0.010162
0.00963363
0.0106255
0.00943542
0.0101483
0.0101358
0.00987318
0.0106337
0.010151
0.00983513
0.00941914
0.00959997
0.0101065
0.0105156
0.00973537
0.0106226
0.0103007
0.010477
0.00962456
0.0100319
0.0104181
0.0106388
0.0105704
0.0104071
0.0102001
0.0102463
0.0106179
0.0106264
0.0105453
0.00989121
0.010495
0.00960478
0.0105761
0.0104489
0.0101613
0.00973369
0.0100799
0.00906197
0.0105592
0.0103475
0.0106931
0.010113
0.0098953
0.00950953
0.0102866
0.00941022
0.00929526
0.00970197
0.0100113
0.00959156
0.0101735
0.00950861
0.010421
0.0103613
0.00926859
0.0106248
0.00970499
0.00978844
0.0100155
0.00993725
0.0104282
0.0105679
0.010626
0.0105071
0.0101833
0.0102391
0.0100879
0.0100671
0.00943894
0.00765854
0.0105935
0.010094
0.0104248
0.0104962
0.00950793
0.0105374
0.0105617
0.0104235
0.0104431
0.010386
0.0102844
0.0106333
0.0106595
0.0102532
0.0105074
0.0104978
0.00972708
0.0105174
0.00993869
0.0103513
0.00991871
0.0100981
0.00987434
0.0106833
0.0101258
0.0102297
0.0101958
0.0097621
0.0106346
0.0102994
0.010042
0.00969746
0.0104033
0.00935241
0.010485
0.0104394
0.00990511
0.0105954
0.0106928
0.0105817
0.0094622
0.0102441
0.0102256
0.0103052
0.00968871
0.0104742
0.0105088
0.00998479
0.010208
0.00996125
0.0104277
0.0100003
0.0101257
0.00937354
0.0104202
0.0103278
0.010413
0.0100026
0.0101582
0.0103149
0.0102019
0.00998478
0.0104153
0.0104373
0.0101051
0.00935596
0.00934492
0.0101256
0.0091434
0.00949453
0.0102852
0.0102864
0.0104691
0.00932008
0.0100854
0.0105612
0.00977371
0.00941044
0.0102184
0.00966028
0.0104342
0.00983824
0.0105279
0.00986845
0.00997671
0.0106355
0.00933654
0.0100018
0.0100776
0.010474
0.0105998
0.010531
0.00972981
0.0103438
0.0105809
0.00997884
0.010605
0.0105003
0.0103529
0.010362
0.0102157
0.0106635
0.0106972
0.0106614
0.0103659
0.00996102
0.0103441
0.0101682
0.0093834
0.0100336
0.0104755
0.0105162
0.0106542
0.0101637
0.0105772
0.010522
0.00997008
0.0105226
0.010486
0.0103604
0.0105106
0.00955343
0.0100335
0.010388
0.00926918
0.0102672
0.0101201
0.0101796
0.0100847
0.0106282
0.0104091
0.0104768
0.0100661
0.0104177
0.0102251
0.0105858
0.0102691
0.0101163
0.00967464
0.0105156
0.00981364
0.0100563
0.0101889
0.0100567
0.0103076
0.0105949
0.00960703
0.0105667
0.00965305
0.0103169
0.0100995
0.0100558
0.0101334
0.0105553
0.00950478
0.0103639
0.0105245
0.0106271
0.0103195
0.0102046
0.00916794
0.0104671
0.0104974
0.0103199
0.0103989
0.0104972
0.0102694
0.0104915
0.0101688
0.00971486
0.01014
0.0105941
0.00934816
0.00974758
0.0107806
0.0104607
0.00991986
0.0101067
0.010284
0.00988662
0.0101283
0.00979174
0.010484
0.010605
0.00925326
0.010301
0.0105343
0.010533
0.0107608
0.010067
0.0104993
0.00974622
0.00972299
0.0105625
0.0104832
0.0101667
0.00975322
0.0104564
0.0104851
0.00992833
0.0106185
0.0105225
0.0105457
0.0103885
0.0104495
0.0103142
0.0102721
0.0100709
0.00992669
0.00949207
0.0102681
0.0102253
0.00969692
0.0105376
0.0094676
0.010044
0.0101591
0.00964493
0.0101208
0.00998418
0.0102855
0.0102306
0.0104925
0.00963576
0.00963664
0.0100903
0.00950852
0.00992089
0.0104819
0.0101176
0.0105238
0.0103433
0.0100924
0.0106219
0.010009
0.0103272
0.0100942
0.0101056
0.0103252
0.00975102
0.0102289
0.0104635
0.0105527
0.0106421
0.0096948
0.00949357
0.0102114
0.0104999
0.00974603
0.0100172
0.0104673
0.0101265
0.0108021
0.010129
0.0100471
0.0104946
0.00957529
0.0104998
0.0107079
0.0096923
0.00990799
0.0101467
0.0100237
0.0106232
0.0106378
0.0104605
0.00977428
0.0104693
0.00954153
0.0100868
0.0105776
0.0100763
0.010789
0.00934246
0.0102183
0.0103552
0.010273
0.0094445
0.00947014
0.0104548
0.010639
0.0100333
0.0105906
0.0103724
0.0101524
0.00958819
0.0099185
0.0103679
0.010168
0.0101851
0.0106606
0.0105558
0.0107373
0.010595
0.0103503
0.0103489
0.0104002
0.00976515
0.0105416
0.010379
0.0102791
0.0103297
0.0106394
0.0101938
0.0105861
0.0100853
0.00922536
0.0106791
0.00995802
0.010492
0.00995513
0.0105089
0.00977062
0.0103706
0.0107118
0.0101348
0.0101862
0.00943644
0.0104383
0.0105125
0.0102917
0.00951867
0.0107478
0.0101595
0.0102661
0.0105665
0.0105751
0.0104575
0.0101324
0.0102768
0.0107388
0.00975979
0.00983379
0.00969016
0.00983004
0.0103
0.00949582
0.010612
0.0105507
0.0107505
0.0100749
0.0100464
0.010223
0.0104725
0.0102252
0.0103138
0.0105633
0.0106476
0.0102814
0.0105168
0.0102772
0.0100396
0.0103274
0.00997384
0.0106332
0.0105925
0.0106414
0.0107177
0.0105204
0.00992251
0.0107131
0.0103152
0.0102668
0.0100501
0.0103391
0.0105926
0.0101688
0.0104694
0.0100581
0.0102013
0.0103724
0.00980976
0.00950632
0.0100322
0.0101474
0.0106552
0.00995052
0.0094675
0.0103117
0.0105125
0.00992107
0.00996484
0.0102231
0.01062
0.0105032
0.0100614
0.0100081
0.0102159
0.0105548
0.010017
0.0101887
0.0102212
0.00947254
0.0100596
0.010098
0.0104362
0.0105182
0.0101777
0.0105654
0.010447
0.0101604
0.0102391
0.00958556
0.00979622
0.00949915
0.0106014
0.0103411
0.0107076
0.0109291
0.0103653
0.00947665
0.0105443
0.0100317
0.0103757
0.0103654
0.0104822
0.00951699
0.0105778
0.00965324
0.0102377
0.0102364
0.0102009
0.0107787
0.010115
0.0104527
0.00975791
0.0101065
0.0102102
0.010593
0.00986634
0.00995961
0.0103986
0.0104914
0.010426
0.0104133
0.0105927
0.009704
0.0102531
0.0100847
0.00993855
0.0104251
0.0106848
0.0106249
0.0104888
0.01068
0.00970091
0.00967442
0.0097214
0.0106033
0.00951702
0.0104822
0.0103581
0.00961245
0.0100238
0.0104593
0.0105669
0.00991072
0.0100014
0.00998835
0.0102934
0.010657
0.0101895
0.00964076
0.0102648
0.0107374
0.0105127
0.0107617
0.0106108
0.0108447
0.0106372
0.0105811
0.0098119
0.00949916
0.0102435
0.00990825
0.0106595
0.00968054
0.0103274
0.0101429
0.0106544
0.00985747
0.0104812
0.0104486
0.0103529
0.0101649
0.00965444
0.0105451
0.0100522
0.0107293
0.01022
0.010666
0.0106238
0.0102537
0.00951171
0.00962248
0.0101261
0.0104384
0.00990006
0.0108268
0.00973766
0.0104314
0.0104197
0.0100232
0.0103698
0.0104303
0.01062
0.0106051
0.0105983
0.0102921
0.010339
0.00948433
0.00994406
0.0106541
0.0098193
0.0104256
0.0101391
0.00972392
0.0101419
0.00988702
0.0101446
0.0103717
0.010486
0.0097577
0.010125
0.0102641
0.00969139
0.00994297
0.010165
0.0102664
0.0104261
0.00965068
0.0096145
0.010179
0.0100866
0.0106708
0.0107428
0.0106096
0.00997758
0.0100612
0.0102842
0.00993137
0.0104607
0.00958391
0.010223
0.0101768
0.0106761
0.010505
0.0102468
0.0103467
0.0106177
0.00965756
0.0103207
0.0106634
0.0100133
0.00907844
0.0102015
0.00976208
0.0102908
0.0094161
0.0106012
0.010744
0.01065
0.0102652
0.00959786
0.00960488
0.0105285
0.0106398
0.0106173
0.0102942
0.0102919
0.0103917
0.0106442
0.0105014
0.00940563
0.0102219
0.0103888
0.0103592
0.0099615
0.0103924
0.00938453
0.0106538
0.0105269
0.0102175
0.0102973
0.0104141
0.0101751
0.0106739
0.0104178
0.00973992
0.0101143
0.0105092
0.0100807
0.0102223
0.0103858
0.00943944
0.00968461
0.0106095
0.010716
0.0105796
0.0107226
0.010365
0.0105348
0.0103192
0.0103133
0.0103624
0.0105538
0.0100035
0.0102038
0.00994965
0.0101872
0.0105197
0.0093259
0.0102966
0.00944368
0.0105375
0.00947895
0.00942325
0.0101034
0.00935999
0.0103639
0.0103219
0.0105179
0.0105586
0.00997737
0.00984559
0.0107067
0.0100249
0.00970634
0.0102712
0.00987045
0.0106173
0.0104192
0.0103122
0.00971009
0.0105173
0.0104676
0.0106049
0.00950615
0.00997703
0.0103281
0.0104286
0.0107949
0.00962971
0.00956768
0.0105588
0.0103966
0.010644
0.0102127
0.00931746
0.0103845
0.0105195
0.00951951
0.00941371
0.010563
0.00971043
0.00972044
0.0105467
0.0107127
0.0104444
0.0107772
0.0101473
0.0100956
0.010605
0.00986265
0.0105874
0.00998878
0.0102481
0.0105475
0.0101148
0.00952501
0.0104704
0.0104851
0.0100142
0.0101688
0.0102408
0.00992339
0.0092719
0.0102692
0.0103656
0.0105191
0.0100197
0.0102769
0.00953498
0.0104528
0.0106955
0.00941553
0.010466
0.0103198
0.00919087
0.00953383
0.0102696
0.0101788
0.0105117
0.0100942
0.00972833
0.0104801
0.0106464
0.0105712
0.0103972
0.0106059
0.00959535
0.0106152
0.0102081
0.00966891
0.0095959
0.00907276
0.00964581
0.0103281
0.0101311
0.010378
0.010187
0.0097656
0.00991044
0.00940283
0.00936933
0.0107244
0.0106861
0.00977208
0.0106318
0.0106271
0.00973276
0.0101918
0.0103137
0.009934
0.0100007
0.0105811
0.00988447
0.00934537
0.0106002
0.0106479
0.0100216
0.0106531
0.0100608
0.00981926
0.00970632
0.0100873
0.00945702
0.00970192
0.010335
0.0103181
0.0101157
0.0105976
0.0106275
0.0101706
0.010484
0.00724554
0.0101063
0.00958228
0.0101118
0.0105558
0.0101376
0.00990878
0.0101032
0.00971971
0.0103431
0.0101532
0.00990897
0.00960643
0.00925728
0.00928035
0.0100811
0.00963472
0.0101652
0.0096129
0.010071
0.0105591
0.0102812
0.0100818
0.010249
0.0104355
0.0101835
0.0104457
0.00944333
0.0102752
0.0105876
0.0106198
0.0100546
0.0107638
0.00985218
0.0104502
0.0101324
0.00950794
0.010569
0.0105995
0.0103585
0.0102908
0.0105118
0.0103333
0.00926628
0.00934484
0.0100727
0.0106783
0.0102535
0.0105336
0.0099812
0.0100957
0.00977435
0.0095452
0.00955981
0.00952091
0.0103973
0.0103111
0.010511
0.00999952
0.0100113
0.0107735
0.00967331
0.0101651
0.0106978
0.0105446
0.00985414
0.0100899
0.0104401
0.0105745
0.0105819
0.00877941
0.0103806
0.010517
0.0102677
0.0101671
0.0106711
0.0104696
0.0106013
0.0103203
0.00988998
0.0102666
0.0105959
0.0103614
0.0100949
0.00962212
0.0105579
0.0105687
0.0105095
0.0104909
0.00937498
0.00910786
0.0100761
0.0104413
0.0101219
0.0103085
0.0104372
0.0104733
0.0104779
0.010022
0.010476
0.0102258
0.0105275
0.00972425
0.00971032
0.0100682
0.0107024
0.0096953
0.0104889
0.00962479
0.0101326
0.010214
0.0107383
0.0101923
0.0105309
0.0106937
0.0105077
0.0102826
0.0104925
0.0101958
0.0100062
0.00931854
0.0107093
0.00901465
0.00957866
0.00888811
0.00929947
0.0094286
0.010107
0.0103138
0.00965118
0.00996805
0.00915254
0.00970482
0.00987965
0.010636
0.00946079
0.00954013
0.0104483
0.00947429
0.0100221
0.0103342
0.010464
0.0100476
0.00958395
0.00932733
0.00992162
0.0107307
0.00985233
0.00947199
0.0104054
0.00998356
0.010286
0.0101663
0.00970913
0.0105475
0.00929599
0.0095308
0.0100891
0.0105697
0.0100223
0.0101332
0.01017
0.0101831
0.00925375
0.00975982
0.0100538
0.0104705
0.0104435
0.00954513
0.00916187
0.0100879
0.0106647
0.0101214
0.01022
0.00980672
0.010061
0.0101613
0.00954137
0.0105929
0.00994714
0.0095108
0.0091678
0.0103927
0.0101903
0.0106019
0.0102406
0.0105134
0.00959147
0.0100815
0.00931283
0.00918063
0.0105523
0.00971248
0.0102089
0.0102224
0.00983974
0.00952155
0.0106097
0.010492
0.0106412
0.0103325
0.00895689
0.0101486
0.00926411
0.0106074
0.00966938
0.0105661
0.00915389
0.0103811
0.0104535
0.00994383
0.0099834
0.00929335
0.00988354
0.0101616
0.0104269
0.0103759
0.0106435
0.0104958
0.00966241
0.0106283
0.00925071
0.0102847
0.0103796
0.0105514
0.0105335
0.0099496
0.0106727
0.0101399
0.00995634
0.0099228
0.0102553
0.010499
0.00987343
0.00960881
0.010612
0.01042
0.0100672
0.010604
0.0103269
0.0103732
0.0104375
0.0104753
0.0105077
0.0100953
0.010068
0.0105369
0.0104642
0.00919131
0.0101602
0.00976497
0.0106539
0.0103587
0.0105455
0.00954798
0.00951159
0.0102378
0.0103073
0.0103341
0.0104289
0.0104977
0.0101807
0.0104039
0.00964598
0.0103573
0.010087
0.0105996
0.01052
0.0105733
0.010315
0.0105958
0.00988649
0.0105641
0.00980257
0.01006
0.0100199
0.0102518
0.0100639
0.0104021
0.00943216
0.0105458
0.0103969
0.0101041
0.00956853
0.0105988
0.0103337
0.0105047
0.0101057
0.0101935
0.0105115
0.00951199
0.0105638
0.010201
0.0102483
0.00980162
0.00989365
0.00997034
0.00949104
0.0100118
0.0107324
0.0102908
0.00916104
0.0102994
0.00944729
0.0103345
0.010361
0.00933885
0.00938144
0.00993703
0.0102663
0.0105059
0.00998964
0.0100648
0.0101761
0.00922185
0.0100368
0.0105715
0.0105257
0.01057
0.010175
0.010413
0.0096443
0.00966404
0.0107187
0.0102035
0.0103717
0.0104169
0.0106901
0.0102519
0.0102385
0.00932315
0.0102971
0.0105284
0.00993289
0.0105395
0.0104496
0.0103203
0.00968641
0.0103498
0.0100625
0.00909986
0.0102907
0.00980811
0.00955859
0.0103453
0.0102236
0.0105075
0.0104965
0.0103036
0.01072
0.00909239
0.00997655
0.0105423
0.0106273
0.00930697
0.0103805
0.00967402
0.00982458
0.0106059
0.00983048
0.0103528
0.0107217
0.0104245
0.00925464
0.0104259
0.00964008
0.0105127
0.0103723
0.0103231
0.0105401
0.0102802
0.0104937
0.00953942
0.010383
0.0105328
0.00962561
0.0103209
0.0102085
0.0100339
0.0104992
0.0100392
0.0105262
0.0106336
0.0106126
0.0101348
0.0104926
0.0102529
0.0103751
0.00988517
0.00980982
0.00949208
0.00934798
0.0103523
0.010434
0.0101808
0.010658
0.00978817
0.0106267
0.00934439
0.0107153
0.0106598
0.0104447
0.010624
0.00986806
0.00930702
0.0101135
0.00958587
0.0105465
0.010181
0.00937271
0.0100683
0.0107528
0.0103838
0.0094899
0.00984385
0.0092955
0.0107514
0.00951496
0.0105084
0.00975954
0.00972162
0.0106011
0.0105931
0.0105673
0.0103815
0.00936715
0.010255
0.0106139
0.00967152
0.0106665
0.0101727
0.0107359
0.00912484
0.0103229
0.00984786
0.0102627
0.00995173
0.0100364
0.0100089
0.00987408
0.0101091
0.0101358
0.0101939
0.0100337
0.010678
0.00962784
0.0101498
0.0101571
0.0103758
0.0106501
0.00971088
0.010455
0.0095945
0.0100877
0.0105417
0.0104839
0.0101282
0.0103585
0.0103872
0.00984658
0.0101511
0.010098
0.00946061
0.00943431
0.010389
0.0104571
0.00969588
0.0100734
0.0104589
0.00960796
0.010289
0.00972465
0.0104044
0.0106325
0.0101626
0.0095364
0.0104713
0.00938045
0.0103347
0.0106792
0.00906986
0.0108094
0.00963238
0.0100292
0.00992362
0.00954126
0.0100501
0.00991317
0.00933536
0.0106003
0.0105656
0.00900975
0.00999918
0.0102088
0.0102398
0.0103702
0.0106854
0.0105106
0.00990317
0.00981189
0.00934507
0.00923372
0.00862721
0.0106374
0.0102737
0.0103655
0.0104249
0.00952166
0.00943062
0.0100981
0.0105403
0.00933153
0.0104209
0.0101502
0.0101832
0.0103433
0.00989363
0.0103504
0.0100191
0.0101924
0.0106288
0.00896818
0.0102031
0.0102591
0.0105192
0.0103065
0.0105016
0.0102349
0.00958587
0.0106817
0.0109113
0.0101885
0.0100909
0.00959472
0.0099936
0.0103542
0.0105582
0.0100854
0.0100745
0.00997248
0.00929326
0.00995757
0.0106055
0.010057
0.010823
0.0102061
0.0100274
0.0106129
0.00953869
0.0104124
0.0094988
0.0106259
0.0103741
0.00999028
0.0108104
0.00995573
0.0101907
0.010604
0.0100713
0.0104076
0.010049
0.0104197
0.00953864
0.0101802
0.0101335
0.00968663
0.0104664
0.00994729
0.00988306
0.0106072
0.00962365
0.0105989
0.0100983
0.0105199
0.00982729
0.0103014
0.00958348
0.00959034
0.0105666
0.00962181
0.0100944
0.0104585
0.00931538
0.0101039
0.0104255
0.00998176
0.00948819
0.00988792
0.0101295
0.0100021
0.0103073
0.0101555
0.0104573
0.00996568
0.0105145
0.00919461
0.00942328
0.0106308
0.00994013
0.00931234
0.00948929
0.0101979
0.00837724
0.00945889
0.0101723
0.0101476
0.0107363
0.00968745
0.0105151
0.0105322
0.0105926
0.0105349
0.0106689
0.0100424
0.00991314
0.0104813
0.0099898
0.00992201
0.0104101
0.0100147
0.00919905
0.00947261
0.0100746
0.00881775
0.0104044
0.0104268
0.0099547
0.0104653
0.0105152
0.0102337
0.0108483
0.00985816
0.00941065
0.00999957
0.0100726
0.0103859
0.00993396
0.0102656
0.0106
0.0100546
0.00990574
0.0101891
0.0107081
0.0104617
0.0108159
0.0105069
0.0101461
0.0102564
0.00978846
0.00990554
0.0106823
0.00987779
0.0106719
0.00994341
0.0104715
0.00901429
0.0103664
0.0101548
0.0102796
0.00980899
0.0103923
0.0101255
0.0104781
0.00906112
0.00984882
0.0101614
0.00996534
0.0102394
0.0101853
0.0102165
0.0105447
0.0102417
0.0093337
0.00983371
0.00951373
0.0102356
0.0101674
0.00956429
0.0108007
0.0102578
0.0102295
0.0105161
0.00978084
0.00958338
0.0106406
0.00955638
0.00937666
0.00925856
0.00931587
0.00916886
0.00995146
0.0106585
0.0105392
0.0101189
0.0102133
0.0104007
0.00992007
0.0103933
0.00935817
0.0105443
0.00727067
0.0103898
0.0094513
0.00933537
0.0104348
0.00948442
0.0103001
0.0103885
0.0104802
0.00965581
0.0103028
0.0101143
0.0101659
0.00949169
0.010497
0.010304
0.01053
0.0102988
0.00956349
0.0101929
0.010161
0.00994551
0.00924637
0.00978438
0.00973194
0.00935904
0.00947704
0.0101741
0.0098997
0.00949185
0.00990524
0.0104766
0.0105408
0.0106412
0.0074517
0.00939011
0.0105139
0.00946501
0.0103853
0.00930323
0.0106395
0.0104022
0.0104616
0.00955298
0.0101539
0.0106013
0.010588
0.0103164
0.0105113
0.0101858
0.0102023
0.0101324
0.00946221
0.0102417
0.00991541
0.00989845
0.00991473
0.00929849
0.0101292
0.0105436
0.00968584
0.00983615
0.00947235
0.0104093
0.0103665
0.00926343
0.0100484
0.0101734
0.0103385
0.00951982
0.0101914
0.0102595
0.0108629
0.00848848
0.0102408
0.0100678
0.00940744
0.0105912
0.00976694
0.00966487
0.0103301
0.0106552
0.00941814
0.0105491
0.0103104
0.00947586
0.00937352
0.0104985
0.010609
0.00946529
0.0102386
0.00933337
0.00983486
0.0106311
0.00980781
0.0103284
0.0102673
0.0107004
0.00998207
0.00997107
0.00979039
0.0100861
0.0102651
0.00990364
0.0104688
0.00955372
0.00951959
0.0102703
0.0100801
0.0104394
0.00992984
0.0104626
0.0103722
0.01027
0.01053
0.0103708
0.0100102
0.00965834
0.0104053
0.010064
0.00988711
0.0102808
0.0106778
0.0104498
0.00997631
0.00945137
0.0102682
0.00973713
0.00927061
0.00984831
0.0100746
0.00922935
0.0103499
0.00966324
0.00887101
0.0094186
0.0102751
0.00890929
0.0100241
0.0104254
0.0102372
0.00934918
0.0102601
0.0108538
0.00954127
0.00921985
0.00963714
0.0104088
0.0101442
0.0100243
0.010466
0.00946695
0.0104785
0.0101977
0.0106388
0.0105846
0.00742058
0.0102253
0.0103452
0.0103923
0.00989455
0.0100699
0.00873255
0.0101236
0.0106085
0.00992655
0.00935172
0.0100809
0.0104169
0.0103225
0.00924255
0.010267
0.0104788
0.010613
0.0101167
0.0102557
0.00929745
0.00935626
0.00932932
0.0101838
0.0100528
0.0103338
0.0107081
0.0104687
0.00907058
0.0105381
0.0105004
0.0104553
0.00998169
0.0105381
0.00966203
0.0096737
0.00997666
0.010139
0.00976449
0.00925202
0.0103285
0.00987224
0.010445
0.00974933
0.0088348
0.00992279
0.010384
0.0101654
0.00957219
0.00978953
0.010439
0.0105157
0.00981427
0.0100518
0.0103985
0.0106314
0.0103715
0.0106712
0.0103421
0.0103446
0.00923587
0.0101877
0.00959462
0.0104735
0.0101676
0.00987145
0.00941251
0.0106603
0.00922392
0.00992275
0.00936411
0.00992886
0.0089683
0.0101011
0.0101239
0.0101378
0.00996229
0.00980074
0.0105037
0.00950424
0.010371
0.00989886
0.0100642
0.00903278
0.0104007
0.0100912
0.00961874
0.00980399
0.0101227
0.0100691
0.0101698
0.00839141
0.0102472
0.0100043
0.010062
0.00973388
0.00988248
0.00986398
0.0085035
0.0104294
0.0101494
0.00605495
0.00965166
0.0104463
0.0104049
0.01039
0.00969555
0.00859307
0.0104983
0.00959068
0.0104609
0.010677
0.0101529
0.00971331
0.0105479
0.00932063
0.00899704
0.00908512
0.0102161
0.0100908
0.00980815
0.0106747
0.0104155
0.010247
0.00969736
0.00915934
0.0107249
0.0102491
0.0107634
0.0104278
0.00941021
0.00989814
0.0101113
0.00948783
0.0101278
0.00995694
0.0102032
0.0108906
0.0100748
0.0101598
0.00952568
0.00995517
0.00982523
0.0102426
0.0100114
0.0093232
0.00959992
0.0102154
0.0103983
0.00946093
0.0102918
0.0097756
0.0104076
0.00953324
0.00953621
0.00849047
0.0105511
0.0105048
0.0103256
0.0103876
0.00993063
0.00948494
0.00929943
0.0086656
0.0100909
0.00932137
0.00999716
0.00988212
0.0104199
0.00992833
0.0104087
0.00962518
0.00628207
0.0095448
0.0104477
0.0068384
0.0101871
0.0107374
0.0100388
0.0106732
0.00941186
0.00960368
0.00964678
0.010629
0.00822981
0.0105721
0.00956397
0.00876324
0.0104675
0.00963176
0.0105358
0.0066091
0.00913192
0.0101813
0.0104149
0.0106226
0.0103561
0.0105517
0.0103529
0.0103538
0.0105186
0.0103815
0.0101208
0.00979699
0.00844921
0.0104021
0.00978011
0.00985767
0.0105226
0.0105202
0.0101321
0.0092685
0.010616
0.010399
0.0100296
0.00944997
0.00934276
0.0103333
0.0104927
0.0105396
0.0104685
0.0100909
0.010248
0.00940993
0.0104078
0.0101207
0.0103529
0.00984437
0.00936535
0.00877519
0.0099842
0.0108065
0.0103622
0.00996785
0.00964889
0.0099597
0.00950378
0.00934982
0.0103802
0.00983351
0.00783998
0.00829929
0.00886415
0.00941178
0.0101625
0.00989817
0.010009
0.00991897
0.00901465
0.010041
0.0104714
0.0090202
0.010813
0.00918822
0.0104942
0.00960627
0.0104809
0.0102913
0.0102633
0.0103599
0.00980013
0.00946301
0.00968935
0.00980844
0.0103466
0.0101476
0.00966228
0.00962917
0.0101611
0.00926448
0.0101182
0.00968473
0.010403
0.00973861
0.0100039
0.00786951
0.0105214
0.0106452
0.0101814
0.0104108
0.0100156
0.0100324
0.0102515
0.0103038
0.0103039
0.010556
0.0102876
0.00924207
0.00916469
0.0108285
0.00942104
0.00922387
0.00915661
0.0101309
0.0105415
0.0100273
0.0106934
0.0107941
0.0105066
0.0104088
0.00992209
0.00938076
0.00997168
0.00877579
0.0102881
0.0100535
0.00992917
0.00994939
0.00970458
0.00997992
0.010608
0.0090384
0.00969035
0.0100038
0.00911183
0.0104491
0.00871202
0.00897619
0.00925246
0.0102181
0.00960423
0.00931307
0.00963566
0.00930108
0.0100487
0.00845719
0.00845655
0.0100061
0.00937695
0.00903198
0.0100467
0.0093995
0.00979859
0.00995012
0.00967886
0.00928458
0.0100466
0.009537
0.00969066
0.00926611
0.00981416
0.00975878
0.00870265
0.0104694
0.00995797
0.0100301
0.00962758
0.00951631
0.00925362
0.0100526
0.0100148
0.0105177
0.0101727
0.0102588
0.00985076
0.0101817
0.0104414
0.0102958
0.00813013
0.00839032
0.00911103
0.0103848
0.00919912
0.0102147
0.00827968
0.00973595
0.0101709
0.00966798
0.00986545
0.00979266
0.00979556
0.00983611
0.0106387
0.00957897
0.00977828
0.0106064
0.00905949
0.0098342
0.00937512
0.0104202
0.0096914
0.00918549
0.00997753
0.00932028
0.0085149
0.0086986
0.00936037
0.00962266
0.00867426
0.010581
0.00962654
0.00911484
0.00976668
0.0104125
0.0097948
0.00889795
0.0106326
0.0100451
0.00930303
0.00971787
0.0100955
0.00928526
0.00996335
0.0100573
0.00977048
0.00924089
0.00906364
0.00994894
0.00955461
0.00882587
0.00896848
0.00895563
0.00991251
0.00908323
0.0104414
0.0100218
0.00991476
0.00975739
0.0104466
0.00935848
0.00996562
0.00975694
0.00657267
0.0104575
0.00889467
0.00995242
0.0103091
0.010433
0.00856558
0.0101563
0.010563
0.00941842
0.0100434
0.0097703
0.00957192
0.00845393
0.00992185
0.00945121
0.0104797
0.0107648
0.00968126
0.0104909
0.00941644
0.00947163
0.00915268
0.00817957
0.00851428
0.0105245
0.00879486
0.010314
0.00938648
0.00884898
0.00978764
0.0106176
0.00862074
0.00688195
0.00936399
0.0102304
0.0102506
0.0101695
0.00639204
0.00979583
0.0101826
0.010226
0.0105446
0.00967148
0.00869985
0.0104105
0.00869331
0.00996011
0.00971015
0.00956258
0.00956681
0.0100456
0.00935887
0.00936212
0.00865921
0.00942998
0.0102134
0.00984974
0.00983407
0.00908722
0.00962297
0.00962589
0.00940291
0.0102743
0.0089803
0.00929278
0.0101267
0.0102876
0.00906626
0.0102511
0.0094847
0.0107016
0.00869297
0.0104039
0.00976607
0.0101488
0.0100954
0.00950741
0.00929926
0.0106556
0.0098507
0.0100063
0.00979642
0.00922456
0.0101899
0.0103079
0.00915039
0.00931104
0.00952719
0.00891874
0.00959799
0.00995331
0.0086939
0.010624
0.00868391
0.00962789
0.00985723
0.00873012
0.00953583
0.0097411
0.00920765
0.00978415
0.00936683
0.00995186
0.00878793
0.0101782
0.00883398
0.00958262
0.00789315
0.00985169
0.00888214
0.00909335
0.0101251
0.00911883
0.00945006
0.010622
0.0101042
0.0100818
0.0103669
0.00878052
0.00991395
0.00955002
0.00994819