/*--------------------------------*- C++ -*----------------------------------*\
| =========                 |                                                 |
| \\      /  F ield         | OpenFOAM: The Open Source CFD Toolbox           |
|  \\    /   O peration     | Version:  2212                                  |
|   \\  /    A nd           | Website:  www.openfoam.com                      |
|    \\/     M anipulation  |                                                 |
\*---------------------------------------------------------------------------*/
FoamFile
{
    version     2.0;
    format      ascii;
    arch        "LSB;label=32;scalar=64";
    class       volScalarField;
    location    "0.052";
    object      nut;
}
// * * * * * * * * * * * * * * * * * * * * * * * * * * * * * * * * * * * * * //

dimensions      [0 2 -1 0 0 0 0];

internalField   nonuniform List<scalar> 
31639
(
3.42187e-05
3.30348e-05
3.36177e-05
3.67916e-05
3.28776e-05
3.20523e-05
3.1151e-05
3.44682e-05
3.36568e-05
3.5719e-05
3.52373e-05
3.55752e-05
3.37217e-05
3.62105e-05
3.21074e-05
2.9994e-05
3.44474e-05
3.1727e-05
2.99872e-05
3.33993e-05
2.55493e-05
3.57193e-05
3.61203e-05
3.00947e-05
2.93448e-05
3.33035e-05
3.32535e-05
2.80801e-05
3.12944e-05
3.62976e-05
3.58136e-05
3.08139e-05
3.63089e-05
2.9345e-05
2.72144e-05
3.61413e-05
2.40314e-05
3.7226e-05
3.6029e-05
2.30935e-05
2.70645e-05
2.69858e-05
3.55044e-05
3.54024e-05
3.50606e-05
3.57646e-05
3.21205e-05
3.18694e-05
3.44984e-05
3.65027e-05
3.56625e-05
2.37953e-05
3.63184e-05
2.49224e-05
3.12246e-05
3.37051e-05
2.56416e-05
3.34131e-05
3.28404e-05
2.58313e-05
3.32067e-05
3.5149e-05
2.94726e-05
3.3091e-05
3.38968e-05
3.67077e-05
3.30869e-05
3.3379e-05
2.8278e-05
3.64857e-05
3.57215e-05
3.05543e-05
3.50863e-05
3.35298e-05
3.57551e-05
2.72333e-05
3.54657e-05
3.16966e-05
3.20941e-05
3.46044e-05
2.96412e-05
2.27369e-05
3.61555e-05
3.40882e-05
3.4355e-05
3.55331e-05
3.6343e-05
3.60601e-05
2.81165e-05
3.67452e-05
3.38243e-05
3.34738e-05
2.62822e-05
3.23781e-05
2.86625e-05
3.23959e-05
3.20946e-05
3.33639e-05
3.37053e-05
2.60919e-05
3.60771e-05
3.52434e-05
3.24294e-05
2.53975e-05
2.59343e-05
3.59491e-05
2.54265e-05
2.42732e-05
2.86742e-05
2.50771e-05
3.51675e-05
2.63107e-05
3.2405e-05
3.08519e-05
3.34684e-05
2.48857e-05
3.21159e-05
3.23276e-05
3.44249e-05
3.27827e-05
3.5042e-05
3.53405e-05
3.52648e-05
3.37097e-05
3.33978e-05
3.59225e-05
3.32578e-05
2.90108e-05
2.81455e-05
3.51625e-05
3.57881e-05
3.54907e-05
3.58701e-05
3.13804e-05
3.51183e-05
3.33751e-05
2.59836e-05
2.47436e-05
3.52799e-05
3.33589e-05
3.32572e-05
3.5498e-05
3.57013e-05
2.49146e-05
2.37308e-05
3.61203e-05
3.47808e-05
2.67013e-05
2.67026e-05
3.556e-05
2.88678e-05
3.42372e-05
3.01174e-05
3.45656e-05
2.76812e-05
3.65729e-05
3.29386e-05
2.77859e-05
2.74687e-05
2.99624e-05
3.60364e-05
2.78175e-05
2.90482e-05
2.55668e-05
2.62921e-05
3.25399e-05
2.73938e-05
3.65094e-05
3.54912e-05
2.52918e-05
3.15628e-05
3.12347e-05
2.6925e-05
3.34709e-05
3.6765e-05
3.46204e-05
3.37836e-05
3.64703e-05
3.35569e-05
3.35015e-05
3.22036e-05
3.1973e-05
3.17135e-05
2.36387e-05
3.34569e-05
3.69788e-05
3.29152e-05
3.63614e-05
2.6353e-05
2.62148e-05
3.75835e-05
3.50493e-05
3.46302e-05
3.28449e-05
3.34839e-05
3.1548e-05
3.126e-05
3.51814e-05
2.56357e-05
3.14312e-05
3.59557e-05
3.67066e-05
3.51246e-05
3.48133e-05
3.27015e-05
3.27425e-05
3.24977e-05
3.17376e-05
3.56778e-05
2.36182e-05
3.29066e-05
3.16693e-05
3.42713e-05
3.5395e-05
3.50499e-05
3.61713e-05
2.71267e-05
3.00446e-05
3.54288e-05
3.49302e-05
3.45603e-05
3.24743e-05
2.56018e-05
3.23251e-05
2.57875e-05
3.16747e-05
3.5144e-05
3.00329e-05
2.68335e-05
3.44136e-05
3.41473e-05
3.67945e-05
2.78327e-05
2.61073e-05
3.43173e-05
3.46407e-05
2.57226e-05
3.63583e-05
2.9143e-05
2.53866e-05
3.22902e-05
3.43416e-05
3.2951e-05
3.02353e-05
2.96785e-05
3.45563e-05
3.22618e-05
3.16603e-05
2.69388e-05
3.2761e-05
3.19122e-05
2.71321e-05
3.02884e-05
3.64352e-05
3.51349e-05
3.09508e-05
2.73739e-05
3.49714e-05
3.49832e-05
3.30397e-05
3.66305e-05
3.59041e-05
3.31823e-05
3.59421e-05
3.21131e-05
3.20222e-05
2.50282e-05
2.96841e-05
3.60472e-05
3.1838e-05
3.42653e-05
3.06798e-05
3.30069e-05
3.66055e-05
3.67733e-05
3.38416e-05
2.6126e-05
3.19076e-05
2.90474e-05
3.5802e-05
3.22541e-05
3.63295e-05
3.64665e-05
3.12926e-05
2.67994e-05
2.9014e-05
2.75952e-05
2.55809e-05
3.5774e-05
2.81696e-05
3.50928e-05
3.25414e-05
3.03855e-05
2.76936e-05
3.69941e-05
3.10006e-05
3.05282e-05
3.56726e-05
3.33602e-05
2.93152e-05
3.24764e-05
2.83621e-05
3.32449e-05
3.24373e-05
2.69083e-05
3.11404e-05
3.16904e-05
2.27286e-05
2.4422e-05
3.5727e-05
3.62157e-05
3.46849e-05
2.54753e-05
2.77666e-05
3.49822e-05
2.8358e-05
2.81829e-05
3.60777e-05
3.69273e-05
3.22666e-05
3.56196e-05
3.64568e-05
2.71929e-05
3.57577e-05
2.49486e-05
2.5075e-05
3.6119e-05
3.56507e-05
3.58569e-05
3.66529e-05
3.49366e-05
2.77486e-05
3.29765e-05
3.26057e-05
3.59856e-05
3.66769e-05
3.70322e-05
3.25191e-05
3.15334e-05
3.46199e-05
3.49822e-05
3.4026e-05
3.20855e-05
3.22842e-05
3.22149e-05
3.26278e-05
3.42408e-05
3.24226e-05
2.71001e-05
3.37222e-05
3.66701e-05
3.13241e-05
3.55611e-05
3.63512e-05
3.29064e-05
2.68917e-05
3.27878e-05
3.26845e-05
2.53988e-05
3.71898e-05
2.80254e-05
3.36177e-05
3.52979e-05
2.46118e-05
3.30582e-05
3.28311e-05
2.61924e-05
3.33072e-05
2.74831e-05
3.27024e-05
3.62275e-05
3.42869e-05
2.43646e-05
3.38004e-05
2.76059e-05
3.38994e-05
3.57292e-05
3.60788e-05
3.57069e-05
2.79873e-05
3.53559e-05
2.56522e-05
3.2197e-05
2.51828e-05
3.63082e-05
3.53269e-05
3.5943e-05
3.56154e-05
2.91233e-05
3.63229e-05
3.28279e-05
3.45781e-05
3.25835e-05
2.82585e-05
3.25676e-05
3.46396e-05
3.45226e-05
3.49086e-05
3.32901e-05
3.48907e-05
3.20266e-05
2.71633e-05
3.23765e-05
3.43088e-05
3.46349e-05
2.44812e-05
3.58952e-05
3.56526e-05
3.26276e-05
3.42934e-05
3.47277e-05
3.31892e-05
3.64411e-05
2.58034e-05
3.4013e-05
3.58088e-05
2.4689e-05
3.29639e-05
3.40903e-05
2.76094e-05
2.60262e-05
2.60409e-05
3.07157e-05
2.58702e-05
3.25267e-05
3.23294e-05
3.06398e-05
3.6099e-05
2.66144e-05
3.53421e-05
3.6241e-05
3.29949e-05
3.52435e-05
3.1411e-05
3.5917e-05
3.26584e-05
3.32454e-05
3.66637e-05
3.28968e-05
2.64291e-05
3.32118e-05
3.58235e-05
3.56647e-05
3.46008e-05
3.61929e-05
3.21111e-05
3.38662e-05
3.52441e-05
3.6588e-05
3.56612e-05
2.71972e-05
3.24592e-05
2.35807e-05
3.20807e-05
3.23815e-05
2.656e-05
2.55566e-05
3.09629e-05
3.49271e-05
3.53459e-05
2.61404e-05
3.47159e-05
3.02184e-05
3.27521e-05
3.48924e-05
2.48972e-05
3.24876e-05
2.50509e-05
3.19263e-05
3.57858e-05
3.65329e-05
3.51237e-05
3.23214e-05
2.50621e-05
3.44311e-05
3.33666e-05
3.47149e-05
2.54817e-05
2.69952e-05
3.26834e-05
2.6229e-05
2.75497e-05
3.34508e-05
2.52701e-05
3.1477e-05
2.54689e-05
3.44183e-05
2.6698e-05
3.65357e-05
3.5518e-05
3.5385e-05
3.59106e-05
2.9638e-05
3.53069e-05
3.58227e-05
3.32645e-05
3.52279e-05
3.32941e-05
3.54583e-05
3.62607e-05
3.0427e-05
3.56491e-05
3.61603e-05
3.28301e-05
2.96846e-05
3.66508e-05
3.32096e-05
2.43446e-05
2.48891e-05
3.30616e-05
3.6246e-05
3.62401e-05
3.2705e-05
3.71107e-05
3.64591e-05
3.49047e-05
3.34287e-05
3.158e-05
3.17241e-05
2.74524e-05
3.2875e-05
3.39871e-05
3.63243e-05
2.8928e-05
2.86046e-05
2.81687e-05
3.17012e-05
3.25549e-05
2.39428e-05
3.43855e-05
3.01865e-05
3.43921e-05
3.26248e-05
3.56259e-05
3.24401e-05
2.73275e-05
3.4393e-05
3.62244e-05
2.86733e-05
3.53846e-05
3.64571e-05
3.24606e-05
3.26353e-05
2.81067e-05
2.8363e-05
3.28416e-05
3.31517e-05
2.75942e-05
2.707e-05
3.32815e-05
2.88795e-05
3.44135e-05
2.91682e-05
3.19019e-05
3.58767e-05
3.28669e-05
2.56882e-05
3.01605e-05
3.32928e-05
3.61594e-05
2.64168e-05
2.33927e-05
3.54608e-05
2.56862e-05
3.37251e-05
3.67635e-05
2.67301e-05
3.29535e-05
3.55237e-05
3.2733e-05
2.59945e-05
3.57084e-05
3.27207e-05
2.6459e-05
3.54107e-05
3.36659e-05
3.23905e-05
3.46127e-05
2.44872e-05
2.98173e-05
3.37084e-05
3.10957e-05
3.07453e-05
3.23325e-05
3.58689e-05
3.55859e-05
3.44554e-05
3.56629e-05
3.60732e-05
3.50911e-05
2.92e-05
3.52075e-05
3.59345e-05
3.65293e-05
2.8716e-05
3.33458e-05
3.3244e-05
3.7697e-05
2.76721e-05
2.42428e-05
3.63379e-05
2.81539e-05
3.72961e-05
3.19413e-05
2.71699e-05
3.32142e-05
3.57748e-05
3.35894e-05
3.40076e-05
2.51826e-05
3.4877e-05
3.32479e-05
2.48026e-05
3.61093e-05
3.54033e-05
2.74718e-05
2.67887e-05
2.80476e-05
3.08065e-05
3.38099e-05
3.33803e-05
3.27422e-05
3.31966e-05
3.56787e-05
3.29879e-05
3.26467e-05
2.69721e-05
3.67814e-05
2.53867e-05
3.2927e-05
3.17895e-05
3.07051e-05
3.67238e-05
3.29621e-05
2.89635e-05
2.55578e-05
2.6554e-05
3.17216e-05
3.58721e-05
2.85431e-05
3.66412e-05
3.26436e-05
3.56113e-05
2.69677e-05
3.18922e-05
3.48322e-05
3.68834e-05
3.61631e-05
3.52449e-05
3.33577e-05
3.28471e-05
3.65233e-05
3.6472e-05
3.58103e-05
2.91563e-05
3.56344e-05
2.70391e-05
3.60868e-05
3.40528e-05
3.27046e-05
2.79117e-05
3.22207e-05
2.33726e-05
3.61885e-05
3.33452e-05
3.6787e-05
3.24445e-05
3.10478e-05
2.66741e-05
3.56772e-05
2.56676e-05
2.40276e-05
2.74048e-05
2.93765e-05
2.68699e-05
3.25902e-05
2.57148e-05
3.5414e-05
3.39279e-05
2.41743e-05
3.63603e-05
2.74672e-05
2.95078e-05
3.1982e-05
3.05579e-05
3.4639e-05
3.63618e-05
3.69244e-05
3.54959e-05
3.24453e-05
3.37028e-05
3.12454e-05
3.14121e-05
2.56803e-05
1.94202e-05
3.63585e-05
3.23961e-05
3.47937e-05
3.56202e-05
2.62461e-05
3.58665e-05
3.59383e-05
3.51025e-05
3.534e-05
3.49114e-05
3.38602e-05
3.66398e-05
3.68486e-05
3.32429e-05
3.55429e-05
3.54866e-05
2.78134e-05
3.57231e-05
3.04155e-05
3.39696e-05
3.13884e-05
3.26684e-05
2.97456e-05
3.67292e-05
3.24159e-05
3.32109e-05
3.21205e-05
2.77524e-05
3.66961e-05
3.35001e-05
3.07873e-05
2.71124e-05
3.50455e-05
2.52759e-05
3.59313e-05
3.46662e-05
3.11864e-05
3.55596e-05
3.7084e-05
3.57357e-05
2.57991e-05
3.35667e-05
3.20487e-05
3.32355e-05
2.77665e-05
3.55553e-05
3.5671e-05
3.14717e-05
3.30227e-05
3.15298e-05
3.4476e-05
3.06956e-05
3.21875e-05
2.50904e-05
3.52472e-05
3.38958e-05
3.53899e-05
2.96208e-05
3.30426e-05
3.41259e-05
3.29648e-05
3.02701e-05
3.47454e-05
3.53011e-05
3.2261e-05
2.51926e-05
2.50084e-05
3.26051e-05
2.40791e-05
2.70734e-05
3.35034e-05
3.37605e-05
3.57175e-05
2.49111e-05
3.25362e-05
3.61912e-05
2.82781e-05
2.5798e-05
3.36107e-05
2.75729e-05
3.41302e-05
2.85153e-05
3.54918e-05
2.93156e-05
3.04631e-05
3.65843e-05
2.50537e-05
3.17566e-05
3.22451e-05
3.54389e-05
3.61316e-05
3.61805e-05
2.75816e-05
3.47189e-05
3.58294e-05
3.05196e-05
3.65323e-05
3.54533e-05
3.39598e-05
3.55177e-05
3.34052e-05
3.65499e-05
3.70157e-05
3.65765e-05
3.46226e-05
3.07575e-05
3.41027e-05
3.30848e-05
2.58819e-05
3.21093e-05
3.47547e-05
3.5817e-05
3.61304e-05
3.25104e-05
3.63361e-05
3.56841e-05
3.19126e-05
3.53942e-05
3.556e-05
3.44451e-05
3.50547e-05
2.65535e-05
3.13805e-05
3.49736e-05
2.41433e-05
3.31067e-05
3.24133e-05
3.20151e-05
3.2142e-05
3.66687e-05
3.48869e-05
3.56964e-05
3.19346e-05
3.4739e-05
3.32583e-05
3.58297e-05
3.36291e-05
3.14272e-05
2.72376e-05
3.56972e-05
2.76587e-05
3.17745e-05
3.22232e-05
3.19044e-05
3.37532e-05
3.65309e-05
2.67404e-05
3.59535e-05
2.73948e-05
3.41094e-05
3.10878e-05
3.21138e-05
3.25414e-05
3.62383e-05
2.6318e-05
3.473e-05
3.58134e-05
3.57022e-05
3.35955e-05
3.27462e-05
2.39009e-05
3.54405e-05
3.5364e-05
3.40413e-05
3.52037e-05
3.57735e-05
3.38286e-05
3.42369e-05
3.3341e-05
2.79959e-05
3.19223e-05
3.63862e-05
2.54944e-05
2.84154e-05
3.73288e-05
3.55549e-05
3.01279e-05
3.16266e-05
3.31214e-05
2.97541e-05
3.2643e-05
2.87868e-05
3.54424e-05
3.59774e-05
2.4017e-05
3.3461e-05
3.62412e-05
3.53e-05
3.65445e-05
3.24607e-05
3.57018e-05
2.801e-05
2.7841e-05
3.63291e-05
3.55197e-05
3.3171e-05
2.82933e-05
3.52965e-05
3.55084e-05
2.92458e-05
3.61806e-05
3.58483e-05
3.59936e-05
3.42271e-05
3.53687e-05
3.35488e-05
3.40042e-05
3.25514e-05
3.04039e-05
2.63012e-05
3.35781e-05
3.34822e-05
2.79843e-05
3.6104e-05
2.56884e-05
3.18852e-05
3.2249e-05
2.70998e-05
3.22455e-05
3.07301e-05
3.40088e-05
3.28517e-05
3.52127e-05
2.67407e-05
2.66733e-05
3.17232e-05
2.63952e-05
3.12059e-05
3.56758e-05
3.24858e-05
3.58486e-05
3.2825e-05
3.24844e-05
3.60993e-05
3.08313e-05
3.32077e-05
3.26454e-05
3.24616e-05
3.36426e-05
2.78657e-05
3.31739e-05
3.50253e-05
3.63603e-05
3.67261e-05
2.685e-05
2.62028e-05
3.30601e-05
3.58624e-05
2.86036e-05
3.16788e-05
3.43738e-05
3.27453e-05
3.76117e-05
3.19968e-05
3.20703e-05
3.46365e-05
2.67557e-05
3.5698e-05
3.62363e-05
2.75503e-05
2.97382e-05
3.29444e-05
3.08492e-05
3.63982e-05
3.63723e-05
3.42285e-05
2.79445e-05
3.554e-05
2.65429e-05
3.18852e-05
3.54018e-05
3.05443e-05
3.71076e-05
2.51088e-05
3.31812e-05
3.41712e-05
3.33113e-05
2.52342e-05
2.60909e-05
3.5649e-05
3.64343e-05
3.09412e-05
3.65038e-05
3.41128e-05
3.29028e-05
2.65184e-05
2.89307e-05
3.38919e-05
3.25738e-05
3.283e-05
3.66686e-05
3.63562e-05
3.68671e-05
3.65464e-05
3.38548e-05
3.36478e-05
3.49964e-05
2.73441e-05
3.54213e-05
3.46677e-05
3.37866e-05
3.37345e-05
3.62339e-05
3.19985e-05
3.64112e-05
3.21227e-05
2.42538e-05
3.68921e-05
2.97403e-05
3.56059e-05
3.05874e-05
3.59705e-05
2.77701e-05
3.46949e-05
3.71335e-05
3.23623e-05
3.31478e-05
2.55356e-05
3.54156e-05
3.56479e-05
3.43568e-05
2.63431e-05
3.76195e-05
3.24452e-05
3.42851e-05
3.56693e-05
3.59253e-05
3.52434e-05
3.27216e-05
3.24011e-05
3.68265e-05
2.77701e-05
2.81113e-05
2.72671e-05
2.90557e-05
3.3808e-05
2.59742e-05
3.64721e-05
3.59313e-05
3.65614e-05
3.19488e-05
3.20078e-05
3.32005e-05
3.53554e-05
3.32197e-05
3.27184e-05
3.60351e-05
3.56272e-05
3.22021e-05
3.5971e-05
3.38049e-05
3.1923e-05
3.4353e-05
3.03582e-05
3.62442e-05
3.61248e-05
3.68337e-05
3.68261e-05
3.55779e-05
3.00818e-05
3.70513e-05
3.33613e-05
3.33278e-05
3.22027e-05
3.4082e-05
3.6519e-05
3.2994e-05
3.53544e-05
3.13127e-05
3.29313e-05
3.4336e-05
2.81591e-05
2.57411e-05
3.24089e-05
3.1318e-05
3.6127e-05
3.0345e-05
2.58701e-05
3.3539e-05
3.55872e-05
2.93521e-05
3.05024e-05
3.33883e-05
3.65684e-05
3.56548e-05
3.20898e-05
2.94992e-05
3.31372e-05
3.50765e-05
3.09566e-05
3.29031e-05
3.31066e-05
2.54373e-05
3.06837e-05
3.09618e-05
3.44414e-05
3.53242e-05
3.28064e-05
3.56611e-05
3.4586e-05
3.28587e-05
3.31043e-05
2.7425e-05
2.91565e-05
2.53316e-05
3.54661e-05
3.39548e-05
3.66876e-05
3.84355e-05
3.48131e-05
2.60838e-05
3.53527e-05
3.10633e-05
3.3969e-05
3.41696e-05
3.553e-05
2.61018e-05
3.64456e-05
2.71583e-05
3.35354e-05
3.31171e-05
3.25764e-05
3.70961e-05
3.17864e-05
3.46158e-05
2.83924e-05
3.22422e-05
3.23084e-05
3.55024e-05
3.00125e-05
2.88643e-05
3.51514e-05
3.52912e-05
3.43862e-05
3.50214e-05
3.61111e-05
2.75499e-05
3.2225e-05
3.19234e-05
2.91884e-05
3.51858e-05
3.64736e-05
3.66341e-05
3.58363e-05
3.7018e-05
2.74204e-05
2.69384e-05
2.77273e-05
3.63652e-05
2.59335e-05
3.56037e-05
3.41394e-05
2.72242e-05
3.09437e-05
3.51828e-05
3.59977e-05
2.97859e-05
3.07171e-05
3.16744e-05
3.37642e-05
3.6437e-05
3.27591e-05
2.76282e-05
3.34444e-05
3.66894e-05
3.54105e-05
3.677e-05
3.64539e-05
3.796e-05
3.66357e-05
3.54732e-05
2.7992e-05
2.58497e-05
3.32883e-05
2.99364e-05
3.61407e-05
2.66408e-05
3.41835e-05
3.23452e-05
3.69059e-05
2.83789e-05
3.46046e-05
3.50966e-05
3.38707e-05
3.16032e-05
2.71215e-05
3.57373e-05
3.0222e-05
3.64929e-05
3.27923e-05
3.70743e-05
3.6748e-05
3.34853e-05
2.58015e-05
2.67578e-05
3.24675e-05
3.39595e-05
3.01843e-05
3.74474e-05
2.719e-05
3.62368e-05
3.50123e-05
3.06603e-05
3.46193e-05
3.56239e-05
3.61279e-05
3.65355e-05
3.61565e-05
3.36792e-05
3.40297e-05
2.57648e-05
3.04721e-05
3.67236e-05
2.80205e-05
3.46965e-05
3.24023e-05
2.82216e-05
3.28448e-05
3.45656e-05
3.27146e-05
3.47964e-05
3.54955e-05
2.73443e-05
3.24363e-05
3.34113e-05
2.72596e-05
3.04883e-05
3.28438e-05
3.24839e-05
3.47953e-05
2.73553e-05
2.70899e-05
3.28069e-05
3.14451e-05
3.70692e-05
3.73129e-05
3.65691e-05
3.18273e-05
3.22086e-05
3.3846e-05
3.15616e-05
3.53104e-05
2.72806e-05
3.33257e-05
3.23274e-05
3.67904e-05
3.49881e-05
3.21677e-05
3.33066e-05
3.6018e-05
2.69889e-05
3.35965e-05
3.65443e-05
3.15156e-05
2.28477e-05
3.27756e-05
2.73211e-05
3.37219e-05
2.50649e-05
3.60406e-05
3.71794e-05
3.59972e-05
3.36694e-05
2.73331e-05
2.70217e-05
3.56752e-05
3.6198e-05
3.58225e-05
3.36957e-05
3.2532e-05
3.51027e-05
3.63223e-05
3.56114e-05
2.56907e-05
3.17053e-05
3.47682e-05
3.45917e-05
3.11028e-05
3.40288e-05
2.56502e-05
3.63983e-05
3.5843e-05
3.34377e-05
3.38643e-05
3.45984e-05
3.29802e-05
3.69078e-05
3.48782e-05
2.78726e-05
3.25851e-05
3.52576e-05
3.23384e-05
3.30334e-05
3.43167e-05
2.51584e-05
2.81991e-05
3.6354e-05
3.66337e-05
3.58146e-05
3.67932e-05
3.4466e-05
3.60241e-05
3.38656e-05
3.35856e-05
3.46324e-05
3.60066e-05
3.05972e-05
3.23048e-05
3.15363e-05
3.30909e-05
3.56638e-05
2.48115e-05
3.3558e-05
2.59522e-05
3.58811e-05
2.60599e-05
2.60332e-05
3.26937e-05
2.51156e-05
3.27997e-05
3.40062e-05
3.58606e-05
3.60955e-05
3.0475e-05
3.04238e-05
3.71915e-05
2.9874e-05
2.76404e-05
3.23044e-05
2.94974e-05
3.64446e-05
3.45889e-05
3.36338e-05
2.71601e-05
3.52898e-05
3.54707e-05
3.64529e-05
2.64178e-05
2.93444e-05
3.35911e-05
3.46403e-05
3.71334e-05
2.79406e-05
2.67198e-05
3.47775e-05
3.31426e-05
3.6727e-05
3.35081e-05
2.49245e-05
3.43046e-05
3.54685e-05
2.66896e-05
2.51494e-05
3.60979e-05
2.83942e-05
2.8319e-05
3.62589e-05
3.66096e-05
3.54453e-05
3.75993e-05
3.30998e-05
3.13603e-05
3.62605e-05
2.96861e-05
3.64151e-05
3.0482e-05
3.40108e-05
3.57355e-05
3.26419e-05
2.66399e-05
3.57313e-05
3.59991e-05
3.13671e-05
3.28373e-05
3.31606e-05
2.93801e-05
3.14222e-05
3.35939e-05
3.33136e-05
3.59636e-05
3.10559e-05
3.48029e-05
2.64402e-05
3.51919e-05
3.68478e-05
2.54678e-05
3.51879e-05
3.36821e-05
2.37889e-05
2.65784e-05
3.35895e-05
3.31292e-05
3.55347e-05
3.12202e-05
2.77926e-05
3.55905e-05
3.64206e-05
3.59526e-05
3.43437e-05
3.66568e-05
2.66966e-05
3.62695e-05
3.30832e-05
2.7249e-05
2.6924e-05
2.28204e-05
2.76919e-05
3.46368e-05
3.15014e-05
3.41537e-05
3.33849e-05
2.91263e-05
3.01659e-05
2.52437e-05
2.50091e-05
3.7108e-05
3.68574e-05
2.79996e-05
3.62747e-05
3.57367e-05
2.75609e-05
3.26979e-05
3.31355e-05
2.9145e-05
3.11931e-05
3.66507e-05
2.8788e-05
2.47908e-05
3.65476e-05
3.64922e-05
3.01493e-05
3.62854e-05
3.0743e-05
2.88331e-05
2.75097e-05
3.24884e-05
2.64159e-05
2.71869e-05
3.38647e-05
3.46947e-05
3.22959e-05
3.54637e-05
3.63088e-05
3.27157e-05
3.58118e-05
1.94722e-05
3.2506e-05
2.69297e-05
3.3279e-05
3.56944e-05
3.28145e-05
3.01354e-05
3.26818e-05
2.8009e-05
3.44035e-05
3.27826e-05
3.04124e-05
2.66663e-05
2.47193e-05
2.42374e-05
3.12354e-05
2.70136e-05
3.23219e-05
2.74314e-05
3.1422e-05
3.61511e-05
3.37992e-05
3.14519e-05
3.34977e-05
3.45724e-05
3.27257e-05
3.53704e-05
2.55398e-05
3.34832e-05
3.64125e-05
3.66491e-05
3.21763e-05
3.75826e-05
2.90025e-05
3.44907e-05
3.25234e-05
2.62045e-05
3.53382e-05
3.6584e-05
3.46978e-05
3.49413e-05
3.54369e-05
3.37325e-05
2.43746e-05
2.53689e-05
3.2232e-05
3.69413e-05
3.31748e-05
3.60222e-05
3.05085e-05
3.16119e-05
2.83158e-05
2.61929e-05
2.63279e-05
2.57575e-05
3.47317e-05
3.39064e-05
3.62701e-05
3.18132e-05
3.09944e-05
3.73051e-05
2.63973e-05
3.33237e-05
3.64795e-05
3.58049e-05
3.08419e-05
3.21911e-05
3.52594e-05
3.62184e-05
3.59472e-05
2.75667e-05
3.35883e-05
3.54776e-05
3.4105e-05
3.32841e-05
3.66535e-05
3.49545e-05
3.64178e-05
3.4205e-05
2.97158e-05
3.3892e-05
3.58308e-05
3.47359e-05
3.28413e-05
2.66581e-05
3.62175e-05
3.58962e-05
3.51795e-05
3.57794e-05
2.57219e-05
2.34537e-05
3.22956e-05
3.49475e-05
3.12741e-05
3.43515e-05
3.54332e-05
3.57666e-05
3.58874e-05
3.08749e-05
3.49811e-05
3.30038e-05
3.55764e-05
2.69361e-05
2.68534e-05
3.18726e-05
3.62268e-05
2.77835e-05
3.561e-05
2.70654e-05
3.19875e-05
3.31049e-05
3.65006e-05
3.21272e-05
3.62194e-05
3.60479e-05
3.51668e-05
3.37072e-05
3.50296e-05
3.32147e-05
3.07347e-05
2.46573e-05
3.70518e-05
2.26186e-05
2.56139e-05
2.83603e-05
2.5333e-05
2.54808e-05
3.19572e-05
3.36997e-05
2.72833e-05
3.05204e-05
2.34065e-05
2.76674e-05
3.13829e-05
3.61572e-05
2.57694e-05
2.6178e-05
3.53877e-05
2.58516e-05
3.19654e-05
3.44862e-05
3.4109e-05
3.2667e-05
2.71102e-05
2.5382e-05
3.07831e-05
3.69282e-05
2.88263e-05
2.62775e-05
3.37448e-05
3.03233e-05
3.36702e-05
3.29688e-05
2.72314e-05
3.57902e-05
2.48732e-05
2.60145e-05
3.14768e-05
3.57002e-05
3.05649e-05
3.16803e-05
3.19511e-05
3.3564e-05
2.43952e-05
2.81995e-05
3.1975e-05
3.63158e-05
3.49852e-05
2.59424e-05
2.36657e-05
3.15819e-05
3.71616e-05
3.27286e-05
3.29911e-05
3.01857e-05
3.24642e-05
3.30903e-05
2.68039e-05
3.6431e-05
3.02173e-05
2.64933e-05
2.37369e-05
3.51167e-05
3.31343e-05
3.63608e-05
3.35639e-05
3.56922e-05
2.67572e-05
3.1555e-05
2.47153e-05
2.32007e-05
3.50394e-05
2.74855e-05
3.17714e-05
3.33064e-05
3.39554e-05
2.64375e-05
3.6469e-05
3.55109e-05
3.67525e-05
3.40499e-05
2.19255e-05
3.29297e-05
2.49511e-05
3.62373e-05
2.69679e-05
3.61517e-05
2.36012e-05
3.41926e-05
3.415e-05
3.00415e-05
3.07349e-05
2.44252e-05
2.96284e-05
3.30258e-05
3.51429e-05
3.44746e-05
3.63984e-05
3.54431e-05
2.70606e-05
3.65169e-05
3.17694e-05
3.37778e-05
3.44204e-05
3.5848e-05
3.52782e-05
3.30495e-05
3.64841e-05
3.19253e-05
3.03614e-05
3.01632e-05
3.38927e-05
3.55032e-05
2.98604e-05
2.7793e-05
3.58461e-05
3.39213e-05
3.26443e-05
3.70032e-05
3.40787e-05
3.37122e-05
3.42542e-05
3.57011e-05
3.5549e-05
3.29829e-05
3.19462e-05
3.56669e-05
3.47399e-05
2.89028e-05
3.30476e-05
2.92788e-05
3.63715e-05
3.38809e-05
3.62475e-05
2.69187e-05
2.68409e-05
3.33303e-05
3.50664e-05
3.48768e-05
3.63159e-05
3.56957e-05
3.29694e-05
3.47609e-05
2.75061e-05
3.27655e-05
3.28777e-05
3.61731e-05
3.57809e-05
3.63104e-05
3.2629e-05
3.66506e-05
2.85309e-05
3.62527e-05
2.95364e-05
3.23544e-05
3.11419e-05
3.34377e-05
3.24813e-05
3.50276e-05
2.60128e-05
3.5867e-05
3.52403e-05
3.19784e-05
2.70253e-05
3.62814e-05
3.4657e-05
3.5606e-05
3.26167e-05
3.31795e-05
3.51657e-05
2.63898e-05
3.63063e-05
3.20751e-05
3.34014e-05
2.90695e-05
2.98426e-05
2.94157e-05
2.59046e-05
3.07286e-05
3.71615e-05
3.34299e-05
2.48448e-05
3.31369e-05
2.59192e-05
3.36136e-05
3.3989e-05
2.46973e-05
2.58232e-05
2.98787e-05
3.33088e-05
3.515e-05
3.08009e-05
3.52089e-05
3.2218e-05
2.98334e-05
3.03035e-05
3.63954e-05
3.59096e-05
3.59373e-05
3.51184e-05
3.42519e-05
2.66057e-05
2.76385e-05
3.67074e-05
3.1699e-05
3.33255e-05
3.50305e-05
3.70589e-05
3.35273e-05
3.44717e-05
2.49416e-05
3.53114e-05
3.59462e-05
3.06345e-05
3.62289e-05
3.5828e-05
3.39422e-05
3.10038e-05
3.46551e-05
3.10398e-05
2.4405e-05
3.3508e-05
2.76696e-05
2.59498e-05
3.33197e-05
3.30788e-05
3.48269e-05
3.49052e-05
3.37869e-05
3.64735e-05
2.32966e-05
3.06105e-05
3.62904e-05
3.62107e-05
2.49169e-05
3.34135e-05
2.81722e-05
3.09181e-05
3.64869e-05
2.98112e-05
3.42894e-05
3.69288e-05
3.47616e-05
2.47119e-05
3.51196e-05
2.67972e-05
3.61011e-05
3.49694e-05
3.43048e-05
3.63229e-05
3.38157e-05
3.59615e-05
2.65918e-05
3.56434e-05
3.59619e-05
2.79618e-05
3.43185e-05
3.29796e-05
3.10212e-05
3.53901e-05
3.1487e-05
3.5755e-05
3.6507e-05
3.68679e-05
3.28077e-05
3.56826e-05
3.31409e-05
3.49619e-05
2.88849e-05
3.06519e-05
2.61138e-05
2.55064e-05
3.3845e-05
3.46407e-05
3.29891e-05
3.64973e-05
3.19502e-05
3.65489e-05
2.51965e-05
3.66595e-05
3.681e-05
3.46246e-05
3.67373e-05
2.84266e-05
2.47375e-05
3.25111e-05
2.60863e-05
3.6135e-05
3.31373e-05
2.48612e-05
3.17564e-05
3.69999e-05
3.39242e-05
2.61235e-05
2.90717e-05
2.47101e-05
3.72479e-05
2.584e-05
3.54515e-05
3.0507e-05
2.6978e-05
3.5936e-05
3.61079e-05
3.6123e-05
3.51216e-05
2.63184e-05
3.39562e-05
3.61995e-05
2.7898e-05
3.63198e-05
3.3509e-05
3.65164e-05
2.45862e-05
3.51927e-05
3.06002e-05
3.40718e-05
3.04956e-05
3.23801e-05
3.11235e-05
3.01665e-05
3.13795e-05
3.17757e-05
3.46496e-05
3.25177e-05
3.67863e-05
2.78481e-05
3.26947e-05
3.30137e-05
3.50974e-05
3.61837e-05
2.66305e-05
3.56479e-05
2.74777e-05
3.26746e-05
3.61089e-05
3.59101e-05
3.15384e-05
3.41344e-05
3.4501e-05
3.06936e-05
3.30935e-05
3.18854e-05
2.60621e-05
2.61511e-05
3.42327e-05
3.538e-05
3.26531e-05
3.11298e-05
3.5472e-05
2.71097e-05
3.38771e-05
2.73164e-05
3.47789e-05
3.65737e-05
3.32148e-05
2.64213e-05
3.54438e-05
2.57111e-05
3.40772e-05
3.60992e-05
2.48751e-05
3.7119e-05
2.77368e-05
3.0763e-05
3.14398e-05
2.65177e-05
3.0804e-05
3.12926e-05
2.44989e-05
3.55438e-05
3.59645e-05
2.2871e-05
3.05173e-05
3.47222e-05
3.2843e-05
3.40158e-05
3.69343e-05
3.54742e-05
3.21083e-05
2.93265e-05
2.51357e-05
2.42099e-05
2.88295e-05
3.67546e-05
3.55609e-05
3.46928e-05
3.49319e-05
2.67231e-05
2.62444e-05
3.25404e-05
3.53373e-05
2.48363e-05
3.46831e-05
3.31592e-05
3.17475e-05
3.47894e-05
3.1014e-05
3.51284e-05
2.98537e-05
3.23801e-05
3.62849e-05
2.23478e-05
3.40002e-05
3.54109e-05
3.57598e-05
3.44651e-05
3.56584e-05
3.32683e-05
2.64859e-05
3.67679e-05
3.77663e-05
3.33266e-05
3.30058e-05
3.07683e-05
3.2708e-05
3.44686e-05
3.53156e-05
3.31738e-05
3.2263e-05
3.20411e-05
2.5262e-05
3.09821e-05
3.6591e-05
3.43155e-05
3.77647e-05
3.31165e-05
3.16872e-05
3.64201e-05
2.66276e-05
3.5039e-05
2.64168e-05
3.61501e-05
3.44294e-05
3.10899e-05
3.73547e-05
3.06298e-05
3.25148e-05
3.64076e-05
3.16181e-05
3.63808e-05
3.49066e-05
3.49422e-05
2.61345e-05
3.30145e-05
3.27632e-05
2.84619e-05
3.55757e-05
3.17489e-05
3.17088e-05
3.64222e-05
2.68093e-05
3.63342e-05
3.29593e-05
3.59256e-05
3.03275e-05
3.36704e-05
2.6249e-05
2.72107e-05
3.68785e-05
2.70203e-05
3.28174e-05
3.51583e-05
2.57674e-05
3.2084e-05
3.5521e-05
3.0417e-05
2.73107e-05
2.94987e-05
3.1681e-05
3.134e-05
3.5107e-05
3.17175e-05
3.55881e-05
3.3461e-05
3.56417e-05
2.43178e-05
2.85736e-05
3.64411e-05
3.22781e-05
2.54775e-05
2.72997e-05
3.27376e-05
2.71689e-05
2.63607e-05
3.30413e-05
3.24727e-05
3.71431e-05
3.14301e-05
3.57314e-05
3.558e-05
3.51866e-05
3.58155e-05
3.58961e-05
3.13123e-05
3.05139e-05
3.56693e-05
3.2223e-05
3.13878e-05
3.59057e-05
3.28315e-05
2.52301e-05
2.60041e-05
3.19406e-05
2.82728e-05
3.43584e-05
3.53404e-05
3.18938e-05
3.57965e-05
3.55564e-05
3.50299e-05
3.76026e-05
3.1861e-05
2.64106e-05
3.1448e-05
3.15052e-05
3.53065e-05
3.18036e-05
3.45177e-05
3.60225e-05
3.18461e-05
3.05806e-05
3.33652e-05
3.6427e-05
3.47765e-05
3.78225e-05
3.49349e-05
3.14593e-05
3.21804e-05
2.83017e-05
3.04955e-05
3.64858e-05
2.8737e-05
3.6806e-05
3.12751e-05
3.56144e-05
2.60068e-05
3.46682e-05
3.31428e-05
3.531e-05
3.25054e-05
3.43246e-05
3.27179e-05
3.57632e-05
2.53871e-05
2.7951e-05
3.31208e-05
3.0903e-05
3.36004e-05
3.30049e-05
3.32665e-05
3.60665e-05
3.32369e-05
2.49426e-05
2.94947e-05
2.62776e-05
3.34822e-05
3.26983e-05
2.69287e-05
3.7628e-05
3.3108e-05
3.22899e-05
3.52713e-05
2.88121e-05
2.71919e-05
3.68026e-05
2.72122e-05
2.57929e-05
3.22245e-05
3.13739e-05
2.72116e-05
2.97732e-05
3.64695e-05
3.58107e-05
3.10727e-05
3.35163e-05
3.54563e-05
3.28229e-05
3.49617e-05
2.52607e-05
3.60436e-05
1.94521e-05
3.54001e-05
2.67175e-05
2.60328e-05
3.55226e-05
2.59084e-05
3.2538e-05
3.37851e-05
3.55275e-05
3.0596e-05
3.4707e-05
3.17593e-05
3.27125e-05
3.12497e-05
3.47733e-05
3.36901e-05
3.58272e-05
3.32469e-05
2.70189e-05
3.48098e-05
3.28573e-05
3.24499e-05
3.25962e-05
2.82776e-05
3.02812e-05
2.53299e-05
2.62363e-05
3.30539e-05
3.17671e-05
2.77526e-05
3.06833e-05
3.53322e-05
3.64763e-05
3.60944e-05
1.91922e-05
2.50658e-05
3.60817e-05
2.58989e-05
3.46271e-05
2.53454e-05
3.60594e-05
3.52745e-05
3.548e-05
2.67769e-05
3.2026e-05
3.63785e-05
3.623e-05
3.37119e-05
3.62779e-05
3.27244e-05
3.34188e-05
3.26674e-05
2.63172e-05
3.33111e-05
2.99451e-05
3.2869e-05
3.25111e-05
2.80945e-05
3.23123e-05
3.62429e-05
2.93189e-05
2.9811e-05
2.61852e-05
3.54174e-05
3.51578e-05
2.43287e-05
3.25261e-05
3.29596e-05
3.40365e-05
2.65971e-05
3.31142e-05
3.26676e-05
3.72531e-05
2.57705e-05
3.23478e-05
3.23692e-05
2.4648e-05
3.58649e-05
2.73868e-05
2.74254e-05
3.36458e-05
3.65486e-05
2.52969e-05
3.56271e-05
3.41286e-05
3.31814e-05
2.49537e-05
3.63358e-05
3.65501e-05
2.49759e-05
3.31891e-05
2.42588e-05
2.75779e-05
3.63294e-05
3.10853e-05
3.35056e-05
3.52062e-05
3.68276e-05
3.18312e-05
3.06301e-05
3.21987e-05
3.18901e-05
3.33047e-05
3.06288e-05
3.61703e-05
2.69559e-05
3.10815e-05
3.276e-05
3.14358e-05
3.51475e-05
3.23071e-05
3.45734e-05
3.46373e-05
3.32553e-05
3.63688e-05
3.46569e-05
3.14081e-05
2.94648e-05
3.50042e-05
3.20077e-05
3.11281e-05
3.4348e-05
3.66176e-05
3.48282e-05
3.48928e-05
3.07021e-05
3.47069e-05
2.97037e-05
2.62069e-05
3.26351e-05
3.37369e-05
2.59023e-05
3.41134e-05
3.22741e-05
2.30675e-05
2.62308e-05
3.47493e-05
2.60482e-05
3.17456e-05
3.49849e-05
3.38404e-05
2.61129e-05
3.36458e-05
3.72646e-05
2.71646e-05
2.63168e-05
2.6982e-05
3.59522e-05
3.28532e-05
3.21162e-05
3.56445e-05
2.60759e-05
3.46505e-05
3.32405e-05
3.65415e-05
3.65238e-05
2.07765e-05
3.32365e-05
3.42408e-05
3.4706e-05
3.30003e-05
3.25197e-05
2.78868e-05
3.3589e-05
3.67325e-05
2.9852e-05
2.47739e-05
3.10361e-05
3.58082e-05
3.44513e-05
2.55714e-05
3.18804e-05
3.53785e-05
3.61642e-05
3.25372e-05
3.2149e-05
2.42379e-05
2.65612e-05
2.64188e-05
3.30195e-05
3.1839e-05
3.36215e-05
3.69346e-05
3.58276e-05
2.92038e-05
3.57508e-05
3.59597e-05
3.46393e-05
3.06238e-05
3.57749e-05
3.18061e-05
2.75474e-05
3.05395e-05
3.27139e-05
3.38968e-05
3.0099e-05
3.41508e-05
3.07579e-05
3.57347e-05
2.72469e-05
2.46577e-05
3.16534e-05
3.6275e-05
3.47686e-05
3.04722e-05
3.12102e-05
3.50555e-05
3.5947e-05
3.08054e-05
3.15113e-05
3.56871e-05
3.67373e-05
3.47947e-05
3.65722e-05
3.50574e-05
3.51e-05
2.51268e-05
3.16199e-05
2.63537e-05
3.44323e-05
3.58952e-05
3.04298e-05
2.61502e-05
3.64366e-05
2.59681e-05
2.97569e-05
2.74518e-05
3.22871e-05
2.55441e-05
3.41436e-05
3.27252e-05
3.23883e-05
3.26896e-05
2.82741e-05
3.61813e-05
2.69147e-05
3.44183e-05
3.27343e-05
3.20932e-05
2.59654e-05
3.52771e-05
3.41517e-05
2.77492e-05
2.87869e-05
3.17269e-05
3.12256e-05
3.25435e-05
2.58452e-05
3.36895e-05
3.1065e-05
3.3196e-05
2.97719e-05
2.99338e-05
2.97338e-05
2.63645e-05
3.52137e-05
3.27406e-05
1.08234e-05
2.72671e-05
3.34148e-05
3.59689e-05
3.51525e-05
2.79516e-05
2.76281e-05
3.60758e-05
2.65989e-05
3.5395e-05
3.64718e-05
3.32806e-05
2.72778e-05
3.60215e-05
2.58351e-05
2.43786e-05
2.42821e-05
3.43327e-05
3.2321e-05
3.02176e-05
3.66058e-05
3.47131e-05
3.34449e-05
2.75341e-05
2.34617e-05
3.69217e-05
3.31578e-05
3.70151e-05
3.59394e-05
2.61656e-05
3.21556e-05
3.1547e-05
3.16906e-05
3.25978e-05
3.0347e-05
3.15672e-05
3.80318e-05
3.32374e-05
3.10628e-05
2.68449e-05
3.3703e-05
3.22554e-05
3.43763e-05
3.10375e-05
2.59091e-05
2.69723e-05
3.3887e-05
3.44323e-05
3.05006e-05
3.50315e-05
2.96758e-05
3.46545e-05