/*--------------------------------*- C++ -*----------------------------------*\
| =========                 |                                                 |
| \\      /  F ield         | OpenFOAM: The Open Source CFD Toolbox           |
|  \\    /   O peration     | Version:  2212                                  |
|   \\  /    A nd           | Website:  www.openfoam.com                      |
|    \\/     M anipulation  |                                                 |
\*---------------------------------------------------------------------------*/
FoamFile
{
    version     2.0;
    format      ascii;
    arch        "LSB;label=32;scalar=64";
    class       volScalarField;
    location    "0.052";
    object      p;
}
// * * * * * * * * * * * * * * * * * * * * * * * * * * * * * * * * * * * * * //

dimensions      [0 2 -2 0 0 0 0];

internalField   nonuniform List<scalar> 
31639
(
0.0115694
0.00804564
0.0132327
0.00588465
0.00812989
0.0113294
0.012705
0.0120945
0.00859191
0.00733487
0.0125896
0.00819273
0.00851459
0.0110741
0.00963819
0.0135326
0.0156979
0.0160437
0.00262812
0.0123133
0.00896401
0.00692284
0.00941985
0.0058257
0.0101115
0.0119698
0.0116393
0.0367824
0.0121673
0.01214
0.00651301
0.0173296
0.00865192
0.0046804
0.0210591
0.0120775
0.00694586
0.0126269
0.0126082
0.0103121
0.00823574
0.0118059
0.0092256
0.0128045
0.0132012
0.00550289
0.00827163
0.00652527
0.0141787
0.00594258
0.00548019
0.0043905
0.0214732
0.013099
0.00428663
0.0160209
0.00703466
0.0117227
0.00805538
0.00561615
0.00616061
0.0118105
0.00980296
0.012072
0.0212856
0.00347233
0.00212955
0.00674922
0.00836682
0.00522822
0.00742759
0.0158131
0.00725195
0.00313141
0.0215712
0.0171677
0.00744775
0.00689284
0.00798498
0.00758756
0.0115298
0.0110719
0.010906
0.00606437
0.0107808
0.00998872
0.0092356
0.00652694
0.00213486
0.00868748
0.00494017
0.0157444
0.00576429
0.00767799
0.00368136
0.0116451
0.00626515
0.00443206
0.00842011
0.0111713
0.019895
0.0198634
0.0101498
0.00771484
0.00427906
0.00533992
0.0113542
0.00565098
0.00656476
0.010219
0.0126641
0.0110218
0.0117999
0.00694298
0.003086
0.0123194
0.0211575
0.0130692
0.0199997
0.00619606
0.0174931
0.00535573
0.00278565
0.00591347
0.0112751
0.0110892
0.00796454
0.00600603
0.0073287
0.00887132
0.0209296
0.000923897
0.0133955
0.00314527
0.00377575
0.00671805
0.00702734
0.00768369
0.00551879
0.00615562
0.00609633
0.00907432
0.00989701
0.00566519
0.00826021
0.0107755
0.020132
0.00702224
0.0104081
0.0214957
0.00629061
0.0144723
0.00450252
0.00405631
0.00526264
0.00401213
0.00296201
0.00738246
0.0140661
0.00667441
0.00366893
0.015865
0.00712331
0.0117778
0.0168098
0.0168834
0.0131513
0.0147093
0.00462803
0.00322461
0.0151965
0.0110636
0.0149951
0.00860658
0.0106979
0.00718338
0.00969409
0.0174217
0.00674108
0.0101749
0.00842061
0.0138995
0.0118433
0.0123233
0.0123692
0.0121039
0.0144754
0.010184
0.0110816
0.0137469
0.0139971
0.00728878
0.0142273
0.00432028
0.0049349
0.00512314
0.00493834
0.00783978
0.00504149
0.012499
0.0104781
0.0158917
0.0139324
0.0148297
0.00717768
0.00596007
0.00249198
0.00421619
0.0177378
0.00483123
0.00483321
0.0102949
0.0199881
0.0106928
0.0128774
0.0107891
0.0108002
0.010773
0.0151206
0.00807457
0.00835345
0.0103009
0.0108974
0.0151274
0.013152
0.00750072
0.0135586
0.0132859
0.00940283
0.0172102
0.00453485
0.0124965
0.0158731
0.0137501
0.0140974
0.0023828
0.00219422
0.0143612
0.0118416
0.00427505
0.00606083
0.0129404
0.0150278
0.0141666
0.00625429
0.016229
0.00477832
0.0167562
0.0137134
0.00241558
0.000695537
0.00550277
0.0140535
0.0161137
0.00782748
0.00836783
0.0117341
0.00359587
0.0115857
0.0133831
0.00560092
0.00449821
0.00784184
0.0110771
0.007909
0.0107404
0.00176539
0.0203784
0.0127989
0.0114158
0.0261092
0.00534382
0.0116491
0.0144392
0.00693778
0.0135907
0.00495459
0.0151676
0.00673943
0.00551329
0.0169875
0.0174512
0.0173352
0.0230413
0.0124337
0.0124911
0.0151814
0.0144755
0.00274592
0.0140246
0.0156159
0.00125135
0.00449043
0.00449582
0.0131716
0.00388417
0.0157737
0.00209789
0.00617006
0.00715052
0.00664525
0.0151439
0.00479439
0.00429273
0.00960295
0.00385919
0.0109593
0.00253523
0.00925593
0.0152057
0.00641382
0.0254431
0.0203386
0.00902256
0.00828038
0.0116654
0.00223575
0.0175278
0.0136279
0.0134062
0.012858
0.0053702
0.0196485
0.00395714
0.0105849
0.0143347
0.0128818
0.0144917
0.0046692
0.00539811
0.00559698
0.0058766
0.0154546
0.00440287
0.0159091
0.0211455
0.0216687
0.00670841
0.0146826
0.0166225
0.00375116
0.00183732
0.0161633
0.00337753
0.004831
0.0149974
0.00406033
0.013252
0.013099
0.0197207
0.00743104
0.0151401
0.00738159
0.0139877
0.00426539
0.00558365
0.00478153
0.00964604
0.00978236
0.0145864
0.0159335
0.00976547
0.0253522
0.00273069
0.00677259
0.0061014
0.0032678
0.00972772
0.0104174
0.0145051
0.00944166
0.0177262
0.0110793
0.0052152
0.00350922
0.00584918
0.0203957
0.0170604
0.0142188
0.0178811
0.01349
0.00439573
0.00660527
0.00437543
0.00404849
0.00384033
0.0047244
0.00814277
0.000372489
0.0162767
0.00238442
0.0180224
0.00478588
0.0150736
0.00415536
0.0154519
0.0164124
0.0123406
0.00589916
0.0239082
0.0160573
0.0126337
0.0120599
0.00400438
0.0142297
0.00216923
0.00625901
0.00632428
0.00657131
0.0123663
0.00541002
0.00637294
0.0141686
0.0262522
0.0129637
0.0142464
0.0104329
0.0111374
0.00997127
0.00829046
0.00800224
0.0196728
0.00951897
0.000841423
0.0141611
0.0258674
0.00916166
0.0192124
0.011084
0.0132612
0.00578225
0.00479863
0.0151196
0.0054588
0.0120319
0.0120491
0.0146818
0.0035785
0.0044143
0.0157175
0.00665061
0.00233353
0.00281674
0.0108421
0.0037533
0.00674881
0.00711483
0.0165202
0.0161487
0.0174557
0.0164213
0.0143022
0.00695764
0.0146808
0.00660117
0.0156091
0.0175361
0.00542279
0.0143441
0.00601233
0.01179
0.0168438
0.0111554
0.00302094
0.0138223
0.0386156
0.00298153
0.00896837
0.00609744
0.0134405
0.00174914
0.00462505
0.00554035
0.00461255
0.0146415
0.00118181
0.0092575
0.0189096
0.00834707
0.00967633
0.00559547
0.0206515
0.00359664
0.00762937
0.0196894
0.0253164
0.00916754
0.0131428
0.0106866
0.00713665
0.00550937
0.00419118
0.0173507
0.00197461
0.0113708
0.0109464
0.0103713
0.00311649
0.00472228
0.0166127
0.0187547
0.00235341
0.00273213
0.00307625
0.00179784
0.0221125
0.006329
0.00261809
0.0176516
0.019702
0.0175718
0.00368634
0.0158881
0.0147306
0.0167584
0.00189318
0.0196823
0.0197185
-0.00035884
0.0170847
0.016515
0.0171875
0.0109177
0.0183216
0.000775951
0.00297987
0.016749
0.00245789
0.00299875
0.0050942
0.0124063
0.00838513
0.0154178
0.00102718
0.00545196
0.00881048
0.0184767
0.00119096
0.0146842
0.00225385
0.025626
0.0258871
0.00608747
0.037065
0.00627064
0.00623335
0.010155
0.010466
0.00725251
0.00992238
0.0266256
0.00727399
0.0143623
0.000587596
0.00650633
0.0101012
0.00568791
0.0164505
0.00127426
0.00392076
0.00989145
0.00352867
0.00893338
0.00911045
0.00492142
0.0207628
0.00359968
0.00251623
0.000359171
0.0115415
0.0189185
0.00283711
0.000573527
0.00348811
0.00384973
0.00302232
0.0175478
-5.49143e-05
0.00116165
0.00078987
0.0158176
0.00196487
0.0165356
0.0168882
0.0176105
0.00514702
4.09963e-05
0.000200513
0.00267992
0.000760743
0.0108213
0.000932288
0.010816
0.0171411
0.00144343
0.00628025
0.00843103
0.0206668
0.0190682
0.0149531
0.00711654
0.00343152
0.0198325
0.0170569
0.00159466
0.00175399
0.00734312
0.0124623
0.0051123
0.00106608
7.98091e-05
0.000857153
0.0164481
0.0137947
0.00630577
0.0380348
0.0135327
0.0105723
0.00728285
0.0114201
0.0146423
0.014507
0.0101474
0.00647214
0.00810163
0.00838656
0.0137502
0.00317698
0.0098717
0.00116292
0.0107519
0.0251191
0.0174912
0.0161378
0.011999
0.00944425
0.0228009
0.0106257
0.0127441
0.00564957
0.0202653
0.0190953
0.00277202
0.0104916
0.0118938
0.000203965
0.0232352
0.00640095
0.00108187
0.00312066
0.00176894
0.0206404
0.0188399
0.0192506
0.00290516
9.90749e-05
0.0162984
0.0109538
0.0171905
0.0177001
0.0177807
0.00115861
-4.32809e-06
0.0168101
0.0146924
0.0151934
0.0177754
0.000990201
0.00633276
0.0260886
0.00367635
0.00209618
0.0182488
0.0103518
0.00434182
0.0166286
0.0163709
0.0133582
0.00768932
0.00513355
0.0121204
0.00699098
0.000337649
0.000659383
0.00134967
0.0051431
0.00193762
0.0206577
0.00732151
0.000553328
0.000643775
0.015821
0.00557176
0.000673085
0.0383421
0.00518738
0.0061731
0.0083238
0.00939962
0.00795444
0.0101805
0.00960662
0.00645776
0.00742475
0.0107031
0.00683465
0.00637726
0.00723112
0.009544
0.0182058
0.0103122
0.00974725
0.0159784
0.020676
0.0174021
0.00486549
0.00959598
0.00275234
0.0108443
0.021494
0.000818095
0.00198717
0.00181314
0.00552116
0.00640343
0.015869
0.0152147
0.00450483
0.00184429
0.0123869
0.0205727
0.000495963
0.0168919
0.00673145
0.015637
0.0143176
0.0151569
0.0194526
0.0180756
0.0234002
0.016592
0.0138634
0.0172154
0.0155666
0.0160975
0.00579055
0.0202901
0.00568751
0.00148924
0.00378218
0.015777
6.33082e-05
0.0130216
0.00307809
0.00428394
0.0130923
0.00783718
0.0195919
0.00363075
0.0136873
0.00442675
0.0225303
0.00648907
0.000554055
0.000934572
0.0183726
0.0122869
0.000835311
0.00201077
0.00114694
0.0038824
0.000532869
0.0002541
0.0154704
0.0149959
0.000153786
0.0150301
0.0132851
0.0160865
0.00879859
0.00869307
0.00703273
0.0112956
0.0118535
0.00549074
0.00088743
0.0103623
0.0141861
0.010487
0.0193983
0.0174041
0.0103935
0.0169608
0.00641234
0.0261307
0.0030558
0.0170372
0.0101978
6.91916e-05
0.0116108
0.00297223
0.00622298
0.00255939
0.00255964
0.0130274
0.0185117
0.0045247
0.0163437
0.000785982
0.000763389
0.000830101
0.021544
0.0217113
0.0206344
0.0222068
0.0182851
0.0168926
0.00566805
0.0036228
0.00625833
0.00165078
0.0120745
0.00540727
0.014219
0.00785996
0.00629236
0.001949
-0.000120136
0.00459555
0.00245029
0.0192614
0.00835835
0.0045095
0.00433596
0.00802173
0.000770533
0.0135461
0.00437897
0.0169323
0.00324256
0.00219131
0.0111115
0.0110618
0.0172871
0.0205152
0.0179416
0.0136539
0.00766532
0.00832739
0.0162776
0.000108737
0.000909002
0.0160048
0.0163651
-0.000123587
0.000343997
0.00229152
0.0161259
0.00422232
0.00979858
0.0207668
0.020325
0.0103591
0.0243243
0.00781523
0.0067504
0.00696432
0.00449325
0.00278639
0.0170212
0.00287544
0.0103712
0.0125701
0.0191647
0.0060403
0.0069892
0.0066317
0.0154476
0.0156526
0.0156598
0.0222564
0.00206574
0.0180631
0.0177716
0.0181693
0.00984703
0.000351694
0.0213876
0.0220182
0.020271
0.0119579
0.0126646
0.0137935
0.0128729
0.0153877
0.0118117
0.000489037
0.0161542
0.00750714
0.00513213
0.0164299
0.00124012
0.000725797
0.00286437
0.00269466
0.0196643
0.00790234
0.00288099
0.00402161
0.00714643
0.0145605
0.00681915
0.00625698
0.0131335
0.0091744
0.000265588
0.0169266
0.0107162
0.0177997
0.00894595
0.00185992
0.0137684
0.0136937
0.000678517
0.00790224
0.00734744
0.000527189
0.000654696
0.0167734
0.0192619
0.00775551
0.0100525
0.00115247
0.0178288
0.0222169
0.0186308
0.012861
0.00599659
0.0175309
0.0132096
0.00695128
0.00970458
0.00537783
0.00547513
0.00865589
0.0165207
0.00297219
0.0108118
0.00680855
0.00614372
0.000194805
0.0184745
0.00722865
0.0190605
0.00524011
0.0156097
0.0180216
0.00895809
0.00898004
0.0187991
0.015214
0.017116
0.00661832
0.00766996
0.0151105
0.014415
0.0114449
0.0121436
0.0175931
0.0180285
0.023744
0.0139439
0.0157405
0.000988687
0.000637161
0.0161456
0.0147346
0.00757218
0.0175194
0.0025053
0.0123174
0.0137379
0.0172528
0.00212289
0.0176911
0.0160725
0.0191539
0.0182193
0.0190432
0.00896548
0.0163731
0.00726063
0.0126086
0.0122141
0.0116078
0.019821
0.0183501
0.0177732
0.0150208
0.00813317
0.0105996
0.0116987
0.0180319
0.0115716
3.46687e-05
0.018782
0.0206925
0.00975721
0.00821989
0.00345128
0.00243569
0.00685779
0.0182107
0.00569356
0.00609255
0.0224565
0.00912959
0.00338328
0.00466471
0.000388991
0.00871958
0.00986572
0.00897463
0.0168365
0.000589577
0.0194622
0.00173529
0.0188968
0.0182664
0.0223067
0.00858569
0.0088454
0.00752097
0.0141395
0.012578
0.0146919
0.0227183
0.0165267
0.0175002
0.0115917
0.0141008
0.00833506
0.0148177
0.0128536
0.00281752
0.00255893
0.0103425
0.000813027
0.00736512
0.0196202
0.0206764
0.00374548
0.0189825
0.0123188
0.0199364
0.0109595
0.0112266
0.00150155
0.00082705
0.0144894
0.0131008
0.00630726
0.00830489
0.00784969
0.0121644
0.00840607
0.0164485
0.017621
0.0225961
0.0173814
0.0187475
0.0113518
0.00798696
0.00933453
0.000829627
0.00160238
0.00306139
0.0082177
0.00742144
0.0130327
0.00767229
0.0137258
0.0155679
0.0172475
0.00794063
0.00493496
0.0230426
0.012067
0.0206586
0.0204151
0.00906667
0.0208409
0.00210532
0.0176221
0.00525762
0.00988112
0.00392592
0.00767145
0.008602
0.0197439
0.0201037
0.000635933
0.018074
0.0216069
0.0246614
0.00801505
0.0152215
0.0174487
0.0177087
0.00713474
0.0076945
0.0164585
0.0248971
0.0163779
0.00302043
0.0144618
0.0243419
0.014107
0.0138629
0.0134671
0.00670164
0.0204087
0.0176637
0.0205846
0.00178183
0.0147674
0.00118316
0.0121623
0.0172565
0.00369227
0.0174218
0.00537692
0.0165192
0.022479
0.00970977
0.000473913
0.0110104
0.0117554
0.000679484
0.00728013
0.00736419
0.0115971
0.00849212
0.0237117
0.0189421
0.00745066
0.00734873
0.0183254
0.0103078
0.0174359
0.0230043
0.0177349
0.0006034
0.000587584
0.0187747
0.016313
0.0114119
0.0127264
0.0145893
0.0120901
0.0125651
0.0205793
0.0180142
0.0216331
0.0162453
0.0142324
0.00199926
0.020808
0.00274539
0.00786706
0.0194478
0.0208273
0.0168243
0.00879096
0.00786473
0.000422391
0.0182165
0.0112475
0.0193104
0.0106021
0.0204555
0.0216408
0.0136562
0.0145859
0.00870213
0.00424032
0.0236297
0.01125
0.0144511
0.0112373
0.0103647
0.0150602
0.0239059
0.0138467
0.0129492
0.0256631
0.00222825
0.0202049
0.0124667
0.0248701
0.0128867
0.0103575
0.0200456
0.0205537
0.00368125
0.00766186
0.00426188
0.00526567
0.0177644
0.00940482
0.0102223
0.000409654
0.00816718
0.0297023
0.00839321
0.00877699
0.0121192
0.012508
0.0118185
0.0186842
0.019209
0.0138729
0.00743005
0.0189739
0.0106482
0.0196581
0.0175784
0.0177455
0.0195766
0.0200071
0.018347
0.00700136
0.000544001
0.0210564
0.00635231
0.0220881
0.0246345
0.0230709
0.008401
0.0210844
0.0141605
0.00222938
0.00182734
0.00307525
0.0188059
0.0195001
0.0193784
0.0179624
0.0215521
0.00881456
0.00726803
0.0197373
0.0218659
0.0104052
0.0194201
0.0208733
0.0138364
0.00800645
0.0237375
0.0212025
0.0182297
0.0147706
0.0188896
0.0155015
0.0203399
0.00168649
0.0154908
0.0182755
0.0208658
0.0148607
0.019857
0.0099273
0.0249926
0.0155902
0.00205685
0.0189167
0.0045271
0.000121011
0.00427713
0.0148927
0.0126762
0.0147342
0.0189677
0.0205762
0.00775761
0.0162578
0.00926929
0.0126244
0.0119662
0.011781
0.0072523
0.0193514
0.0129652
0.0134816
0.0191743
0.0134493
0.00668256
0.0064185
0.0135054
0.0141934
0.0129088
0.0179986
0.0184313
0.00105803
0.0127376
0.0191921
0.0182815
0.0132094
0.0135144
0.0111199
0.0138208
0.0241468
0.0012001
0.00661592
0.0201369
0.00309917
0.00887198
0.00960297
0.00914954
0.0223985
0.0237267
0.00296625
0.0242941
0.0216162
0.0155163
0.015464
0.0219665
0.0160349
0.0203031
0.0190641
0.00378554
0.00846143
0.0230969
0.00041738
0.000684628
0.0221193
0.0206296
0.00361697
0.021894
0.0160936
0.0140484
0.00914679
0.0207662
0.0202487
0.00734261
0.0192032
0.0178114
0.0156734
0.0140094
0.000842834
0.0014641
0.00106981
0.0161549
0.0185425
0.0119335
0.0210532
0.0234464
0.0115377
0.0102428
0.00716198
0.00428901
0.0255694
0.000104656
0.00293273
0.00918089
0.00110806
0.000238576
0.000445992
0.00981699
0.00718277
0.000871589
0.0317082
0.0201019
0.0151569
0.0235038
0.0131155
0.0252506
0.00411319
0.00811687
0.00848227
0.0242938
0.0244032
0.0131921
0.00689726
0.0138074
0.0124656
0.0163052
0.0151392
0.0157502
0.0184822
0.00136852
0.0197215
0.0199103
0.020061
0.0194936
0.0163529
0.016112
0.0124122
0.0114305
0.0209428
0.0181859
0.00584684
0.0045668
0.0123132
0.0176672
0.0235393
0.0056915
0.00661247
0.00684087
0.0175749
0.0222249
0.0234016
0.0230268
0.0018377
0.00108539
0.0218469
0.000700378
0.0215083
0.0223844
0.00451496
0.00628064
0.00282395
0.0209062
0.00794172
0.0183705
0.0144034
0.0144645
0.0225372
0.0229963
0.0103413
0.025265
0.0250304
0.017038
0.0156379
4.83891e-05
0.00061094
0.0173885
0.01573
0.0189782
0.0247083
0.0377596
0.0251657
0.0198515
0.0251889
0.0199892
0.00245915
0.0183856
0.0212108
0.00285461
0.0199899
0.00485848
0.000520967
0.0195708
0.000675904
0.00908132
0.00986691
0.00976886
0.00899103
0.000421093
0.0019241
0.00617258
0.0239309
0.0223075
0.016164
0.0095911
0.0121514
0.00767048
0.0096247
0.00713142
0.0093328
0.00915916
0.00824305
0.0171134
0.0146703
0.0196534
0.0145275
0.0196993
0.00135087
0.019265
0.000980031
0.0254503
0.0198617
0.0130083
0.016353
0.007916
0.0104034
0.00362639
0.00264805
0.00637433
0.0042813
0.0117414
0.0192932
0.00900345
0.0150924
0.0137758
0.00539201
0.0135369
0.0238657
0.00138634
0.00307155
0.00127886
0.0157285
0.0224343
0.0181467
0.0058706
0.00458781
0.0221846
0.00282734
0.0222037
0.0209535
0.0383406
0.0222708
0.0220134
0.0251215
0.0236226
0.0225998
0.0176815
0.00453184
0.0182794
0.00433137
0.0187256
0.0193612
-1.6551e-05
0.0237072
0.0110663
0.00221127
0.0185631
0.0231235
0.0182698
0.0210002
0.0183128
0.0092678
0.0113307
0.0176452
0.0199105
0.0217969
0.0233923
0.000701712
0.00307652
0.0148935
0.0197616
0.0185586
0.016436
0.0173568
0.0012784
0.016432
0.0088522
0.00925644
0.00904725
0.00789617
0.0104349
0.0126252
0.000527539
0.0201384
0.0210156
0.0177246
0.00117671
0.0208698
0.0126742
0.0133372
0.0150441
0.0157353
0.0183618
0.0143283
0.0322844
0.00366929
0.0130852
0.0203822
0.0156998
0.0156886
0.00303929
0.0142494
0.0223363
0.0249465
0.0184018
0.00843229
0.0216531
0.00771626
0.0144898
0.0231204
0.024347
0.0144624
0.0246289
0.0244221
0.0242508
0.0225905
0.0153091
0.0235048
0.0222292
0.0195358
0.00872213
0.0175579
0.00691462
0.00190243
0.0179755
0.00569491
0.0229395
0.0233816
0.0227433
0.0211606
0.0134079
0.02132
0.0241231
0.007493
0.00528048
0.0104141
0.0258078
0.0175693
0.0169369
0.00433081
0.0037658
0.0203394
0.00129182
0.012324
0.0252807
0.0217403
0.0184721
0.0191157
0.0114583
0.0101337
0.0026506
0.019691
0.000288095
0.00717584
0.02207
0.000939427
0.00273377
0.00427079
0.00558155
0.00328092
0.0155171
0.0175053
0.0203512
0.0133404
0.00820094
0.0294275
0.00816595
0.00941669
0.0100683
0.0212468
0.019143
0.0241007
0.0216824
0.00677153
0.0120835
0.0117243
0.0117127
0.013671
0.0166283
0.0166737
0.0194041
0.0184369
0.0173006
0.0126955
0.00941618
0.00955031
0.00231846
0.0182476
0.021722
0.0077654
0.003207
0.0325495
0.0122774
0.0222417
0.0149928
0.0225711
0.0270417
0.0175223
0.00784774
0.0066614
0.0144035
0.0239696
0.022864
0.00592902
0.0254537
0.000209625
-0.000226484
0.0220027
0.0245139
0.0122328
0.0101298
0.0205428
0.00522902
0.0229491
0.0248209
0.00999017
0.0202822
0.0210504
0.0312711
0.00566712
0.0236768
0.0138999
0.0145136
0.0199701
0.0238382
0.00264438
0.0185667
0.0254678
0.0247855
0.0265336
0.00566495
0.0208019
0.0202912
0.00292364
0.0164568
0.0237881
0.0169966
0.00237101
0.00738209
0.0156303
0.00512546
0.0172359
0.00727375
0.000620757
0.00080504
0.0104699
0.00301064
0.0226137
0.0132182
0.00577548
0.0100863
0.0234038
0.0234855
0.0208063
0.0217974
0.0231305
0.0133307
0.00239438
0.00498255
0.0115369
0.0197369
0.0198063
0.0203408
0.0205676
0.0140162
0.0137616
0.0124556
0.0171148
0.0151717
0.0152912
0.016498
0.0249557
0.0179788
0.0198174
0.0168822
0.0187264
0.0185054
0.00934147
0.0181716
0.0141947
0.0087707
0.0127574
0.0287899
0.0143831
0.0320891
0.0190495
0.00550057
0.00852197
0.0167568
0.0272857
0.0153516
0.0144889
0.00649519
0.0191079
0.000587756
0.0016213
0.000312349
0.0237903
0.0235394
0.0239058
0.0122919
0.0258253
0.00459275
0.0244854
0.0248528
0.0238908
0.0024642
0.0272401
0.0240845
0.00182457
0.0255083
0.0145197
0.015242
0.014283
0.0198991
0.0215929
0.0177478
0.0186464
0.0197553
0.0122085
0.0117629
0.00303718
0.0247959
0.0195309
0.0223089
0.0170921
0.0217223
0.0242689
0.0090092
0.0233326
0.00238939
0.017458
0.00828191
0.000940528
0.000150098
0.0105043
0.0218627
0.00824003
0.0199607
0.0203267
0.0068514
0.0213818
0.00795167
0.025618
0.0203109
0.0252699
0.0190471
0.0103269
0.0200799
0.0210318
0.0233237
0.00536938
0.0207007
0.0207153
0.0216916
0.0232579
0.0166292
0.0220056
0.0177303
0.00238325
0.021112
0.00530012
0.0157275
0.0166097
0.011395
0.0182123
0.027527
0.013885
0.012823
0.0135507
0.00939362
0.0176623
0.00655195
0.011723
0.0216377
0.0102356
0.020436
0.00611825
0.0218109
0.0182167
0.00567642
0.0154422
0.022658
0.00598874
0.0179072
0.0117785
0.00159462
0.00011885
0.00160445
0.022852
0.0150077
0.0171164
0.0130414
0.0127663
0.0229162
0.0248444
0.0240764
0.0182295
0.0237062
0.0193934
0.0250594
0.0131911
0.0255239
0.0253659
0.0253652
0.0245855
0.0238606
0.0028841
0.0200719
0.0239492
0.0182349
0.0165028
0.0266535
0.0240165
0.0120635
0.0248997
0.00250439
0.0226161
0.0236897
0.0165336
0.0157986
0.0213947
0.022414
0.0213444
0.0010568
0.0249306
0.0188438
0.00710924
0.000361753
0.024685
0.0075767
0.00316633
0.00206331
0.000274304
0.0177026
0.00561244
0.029661
0.00901902
0.0212839
0.011372
0.00864399
0.0124302
0.0208174
0.00889687
0.0246989
0.0205562
0.0120622
0.0230769
0.0206489
0.0177084
0.0276497
0.0186994
0.0237677
0.015263
0.0256137
0.0151943
0.0151125
0.00320836
0.0192985
0.0181846
0.0192851
0.0222252
0.01626
0.0256894
0.0192442
0.0187078
0.00260443
0.00572987
0.0257922
0.0135693
0.00502986
0.0136578
0.0340273
0.00825697
0.0266529
0.00618722
0.00121997
0.0102674
0.0106592
0.00944804
0.0176453
0.00541878
0.0164611
0.0206665
0.0146933
0.00488909
0.00528953
0.0241789
0.00149121
0.0180012
0.0167437
0.0110911
0.0225651
0.0269113
0.0116941
0.022539
0.0211052
0.0186425
0.000370068
0.0182076
0.0203533
0.024093
0.0245718
0.027727
0.0257772
0.00319611
0.00211231
0.0260272
0.00308769
0.0233332
0.0249645
0.0231724
0.00502274
0.0284817
0.0109413
0.0206484
0.024813
0.0224011
0.023099
0.0221688
0.0211133
0.0193056
0.0113405
0.021184
0.0160368
0.00186828
0.0105206
0.0232282
0.0211198
0.0273002
0.0287781
0.00146714
0.0150194
0.00244972
0.00469102
0.0242513
0.00462327
0.00395893
0.0254808
0.00587092
0.00996581
0.0146591
0.024651
0.000259266
0.0240665
0.0207251
0.0113886
0.0236508
0.0251782
0.0130478
0.023732
0.0192166
0.0254566
0.0236757
0.023303
0.0172166
0.0264007
0.0183686
0.00532528
0.0056077
0.02563
0.019114
0.0234002
0.0284332
0.0211
0.0224847
0.0280329
0.00559563
0.0254408
0.024858
0.0255686
0.0140055
0.0369553
0.00430871
0.00721052
0.0113235
0.0104688
0.0276594
0.00835318
0.0202879
0.0161072
0.0168198
0.0157281
0.00570534
0.0102918
0.00670107
0.0240792
0.00110639
0.0256287
0.026136
0.0264207
0.0124944
0.0219334
0.0326968
0.0203771
0.00182082
0.0235298
0.00786028
0.00985116
0.0269393
0.012637
0.0266054
0.0270553
0.0181276
0.00285873
0.024033
0.0230596
0.023906
0.0177693
0.0236408
0.0236372
0.0228037
0.0201413
0.0207339
0.0213382
0.0214421
0.0176272
0.0163792
0.00164466
0.0245632
0.0148682
0.0159597
0.0173919
0.0088409
0.00741287
0.0296279
0.0230848
0.0211478
0.0268715
0.027787
0.0103878
0.00424469
0.00718298
0.0291044
0.0149856
0.00763736
0.0248712
0.00646871
0.0217133
0.0124364
0.00544051
0.0052092
0.0203454
0.0118119
0.0223167
0.000925743
0.0196341
0.00204247
0.021271
0.0121629
0.0177675
0.0182342
0.0173081
0.0223958
0.0217084
0.0244703
0.00752904
0.0333695
0.0322052
0.0283555
0.0195539
0.0193022
0.0150179
0.0204439
0.0228133
0.0239817
0.0274033
7.4604e-05
0.0106566
0.0117799
0.0362765
0.0245533
0.00303888
0.0252931
0.00308326
0.0144121
0.0165404
0.0100907
0.00734971
0.0284934
0.0231826
0.00784671
0.0155419
0.02939
0.01001
0.00615537
0.000506928
0.0143528
0.00213246
0.0264465
0.00626708
0.0280705
0.0333029
0.00858059
0.0234172
0.000312712
0.000335326
0.00812835
0.0270838
0.0270793
0.025788
0.022914
0.00170147
0.0177023
0.0380558
0.0169337
0.0228086
0.021739
0.0225824
0.0228826
0.0181366
0.0250754
0.0222589
0.00779023
0.00191027
0.00216566
0.00218531
0.0213382
0.0238525
0.0133463
0.023806
0.00559565
0.00580507
0.00660424
0.0205359
0.0277871
0.0273883
0.028753
0.0162773
0.00806015
0.0252438
0.00763721
0.020444
0.0221802
0.0229416
0.0125074
0.0252185
0.0113991
0.0209015
0.0217108
0.0207524
0.0109613
0.0155494
0.0385607
0.00969763
0.00247078
0.019806
0.0169266
0.0211516
0.0136165
0.0159026
0.0171783
0.0183407
0.015162
0.0221276
0.0319664
0.0164201
0.0248277
0.0114256
0.0203998
0.015496
0.0196789
0.0213877
0.0201478
0.0271455
0.00379846
0.0266535
0.0176696
0.000831145
0.0115638
0.0279531
0.0250582
0.0147856
0.00352453
0.022679
0.00818135
0.0287297
0.00823751
0.0234474
0.0222153
0.0260608
0.0198247
0.0240474
0.0164682
0.00275446
0.0215983
0.00244084
0.0262223
0.000252993
0.000905611
0.00545666
0.00197002
0.0179338
0.000921391
0.0289888
0.0292003
0.0245424
0.0252804
0.027466
0.0275283
0.0266026
0.026948
0.00752247
0.0293513
0.0265491
0.00583112
0.0251507
0.0309252
0.0173035
9.70778e-05
0.0242418
0.0263155
0.0226536
0.0211329
0.0238317
0.0283034
0.00267663
0.0249112
0.00123128
0.000657494
4.89131e-05
0.0217123
0.0153712
0.00670284
0.0125926
0.0246436
0.0364553
0.0173236
0.0225864
0.0231702
0.0281313
0.00230284
0.0383923
0.0259868
0.00754514
0.0184511
0.0089552
0.0194028
0.023809
0.00911215
0.0256226
0.0199351
0.0108121
0.0170106
0.0104149
0.02105
0.0168986
0.026987
0.0277547
0.00789152
0.0144141
0.0175134
0.0170773
0.023152
0.0325501
0.0118152
0.0230374
0.0176701
0.0116231
0.014962
0.0294157
0.0165675
0.0151592
-0.000162289
0.0312653
0.0305838
0.000999482
0.0252344
0.00191431
0.019003
0.0288633
0.00428077
0.0268278
0.0267341
0.0284788
0.0273281
0.0219748
0.0225896
0.0245953
0.00668853
0.0237977
0.00832029
0.00220588
0.0125837
0.00337805
0.022596
0.0244644
0.0104172
0.0103806
0.0127002
0.0285741
0.00320946
0.024446
0.0145467
0.0282444
0.0200357
0.0275999
0.0266357
0.0297733
0.0264419
0.00123995
0.0175965
0.0263199
0.0183974
0.0239842
0.023132
0.00486006
0.0277779
0.0210728
0.0290778
3.28944e-05
0.0264687
0.00670763
0.0142575
0.00190966
0.022588
0.0218593
0.034207
0.0209279
0.00699672
0.025909
0.024711
0.000761479
0.000536269
0.0336765
0.0231256
0.0080338
0.0374777
0.00924299
0.0145721
0.0252677
0.000325204
0.00291547
0.0384241
0.00734871
0.0110578
0.0109077
0.0179947
0.0246912
0.0142307
0.0103469
0.0252868
0.0284032
0.0262338
0.0245007
0.0144041
0.0247034
0.0173757
0.0106621
0.0217894
0.0214281
0.0174115
0.0197025
0.0143001
0.013428
0.0249498
0.0255948
0.0259907
0.0216337
0.0307113
0.0209045
0.0216885
0.0204015
0.0213967
0.0258822
0.0186059
0.00414552
0.0281514
0.027245
0.0254494
0.00431345
0.0242174
0.0211301
0.0236421
0.0215437
0.0288327
0.0252966
0.0033038
0.0101942
0.0285288
0.0287458
0.0310471
0.00280253
0.0139036
0.00976693
0.0266178
0.0257677
0.0275746
0.0308224
0.0311358
0.0267756
0.0305869
0.026364
0.0259108
0.0166727
0.0276203
0.0233642
0.0305229
0.0368828
0.0231578
0.0216321
0.038155
0.0190928
0.0135987
0.0284378
0.0157058
0.0305744
0.000865111
0.0237394
0.0146946
0.0351382
0.0229321
0.0218809
0.0290943
0.0139903
0.000923432
0.0128483
0.035436
0.000216581
-0.000166098
0.023449
0.00912365
0.00986201
0.00970758
0.00696932
0.00591303
0.00661155
0.00531783
0.0104409
0.0271451
0.030379
0.00306604
0.0274096
0.0243007
0.00240503
0.0230646
0.0280965
0.0284704
0.0160743
0.0198097
0.0150997
0.0279315
0.0157434
0.0242215
0.0216091
0.01606
0.0223725
0.0272748
0.01547
0.0151337
0.0221881
0.0218104
0.0185086
0.0297183
0.00346979
0.0312791
0.019069
0.0162949
0.0179118
0.0281477
0.0122905
0.00947773
0.0282544
0.0250682
0.025765
0.0274934
0.0350986
0.0317338
0.0283766
0.025677
0.0279954
0.029463
0.0285548
0.017718
0.0300287
0.02866
0.00835475
0.0256539
0.0190058
0.0299443
0.024882
0.0294853
0.0148161
0.0265527
0.018765
0.0218281
0.0275922
0.0298317
0.00804585
0.0243686
0.0194194
0.0187258
0.0198061
0.0304902
0.0250074
0.0263522
0.000514225
0.0224004
4.43285e-05
0.0262128
0.00216823
0.0360373
0.00908006
0.0186474
0.00730737
0.00704005
0.00635441
0.0242198
0.0263163
0.0180675
0.0185158
0.0241619
0.0164839
0.0275811
0.0283512
0.0206061
0.0310647
0.0269166
0.0312525
0.0270629
0.0253253
0.0291091
0.0164639
0.0213519
0.0220188
0.0175015
0.00390748
0.029348
0.0287872
0.0341481
0.00891865
0.0269687
0.0240542
0.00955551
0.0219203
0.026754
0.023383
0.0304241
0.028868
0.0275831
0.0300576
0.0223861
0.0287385
0.0299842
0.0290159
0.0284682
0.0238054
0.0266442
0.0210715
0.0307597
0.0258127
0.0384231
0.0377689
0.0249006
0.0304538
0.0244493
0.0240501
0.0234097
0.0200447
0.0282295
0.0250401
0.0270062
0.0281662
0.0308454
0.0271669
0.0231385
0.0257724
0.0258422
0.0300913
0.0249817
0.0266258
0.0283241
0.0294318
0.0020878
0.0272658
0.00288332
0.00330603
0.00366616
0.0018614
0.0268264
0.00571761
0.000663484
0.0197672
0.026572
0.0363787
0.0370524
0.0307078
0.0246168
0.0301214
0.0163901
0.0339154
0.0217512
0.0239176
0.026032
0.0281454
0.0184874
0.0278132
0.029085
0.0210843
0.0226275
0.0289291
0.0228038
0.0333349
0.0290721
0.0322797
0.00998188
0.00183377
0.0269432
0.0267174
0.0262743
0.0324468
0.0275471
0.033038
0.0276274
0.0297136
0.0173889
0.030875
0.0223085
0.0297635
0.0236837
0.0301261
0.0310114
0.0189096
0.0274275
0.0203514
0.0284141
0.0203285
0.0287195
0.0249471
0.0240318
0.0286568
0.0277526
0.0249302
0.0278
0.0189783
0.0330804
0.0258846
0.0274351
0.0283285
0.0295347
0.00806122
0.0200335
0.0299381
0.00294912
0.00387321
0.030471
0.0268589
0.000460794
0.0364506
0.0242787
0.0335998
0.0264379
0.0230415
0.0230192
0.0317602
0.0266202
0.0228496
0.0240757
0.0259103
0.0265373
0.0263077
0.0341537
0.0292045
0.0293337
0.0197615
0.0198182
0.0308763
0.0249879
0.0292386
0.0292053
0.0329849
0.0364625
0.0347056
0.0232544
0.030937
0.0244422
0.0286859
0.0280941
0.0240507
0.0109671
0.0304068
0.0367799
0.0298357
0.0229467
0.0264587
0.0229556
0.0378396
0.0211874
0.0272029
0.0230227
0.0240919
0.0288209
0.0304176
0.024286
0.0291117
0.0285335
0.0259185
0.0295728
0.0287186
0.0286464
0.0256824
0.0309343
0.031056
0.0305243
0.0261936
0.030139
0.0301992
0.0298879
0.00958719
0.030603
0.021729
0.0224747
0.0275967
0.032958
0.0219144
0.0266987
0.0309443
0.0261913
0.0268019
0.0231973
0.0346609
0.0258347
0.0303192
0.0219695
0.0220643
0.0265421
0.0306832
0.0218821
0.0261109
0.0259411
0.0301702
0.030652
0.0261713
0.026438
0.0328834
0.0327625
0.027027
0.0323881
0.0317193
0.0285719
0.0326284
0.0133366
0.0324677
0.0306984
0.0302316
0.0305105
0.0291086
0.0304517
0.0336427
0.0275168
0.0302725
0.0242886
0.0277624
0.0250103
0.0286835
0.028671
0.0347573
0.0291367
0.0345418
0.0346342