/*--------------------------------*- C++ -*----------------------------------*\
| =========                 |                                                 |
| \\      /  F ield         | OpenFOAM: The Open Source CFD Toolbox           |
|  \\    /   O peration     | Version:  2212                                  |
|   \\  /    A nd           | Website:  www.openfoam.com                      |
|    \\/     M anipulation  |                                                 |
\*---------------------------------------------------------------------------*/
FoamFile
{
    version     2.0;
    format      ascii;
    arch        "LSB;label=32;scalar=64";
    class       surfaceScalarField;
    location    "0.052";
    object      phi;
}
// * * * * * * * * * * * * * * * * * * * * * * * * * * * * * * * * * * * * * //

dimensions      [0 3 -1 0 0 0 0];

oriented        oriented;

internalField   nonuniform List<scalar> 
68568
(
-1.51783e-07
1.56588e-07
-2.95196e-08
2.47151e-08
1.4591e-07
-7.45987e-08
-7.73655e-08
6.05394e-09
1.76862e-07
-1.35066e-07
-5.99303e-08
1.81337e-08
-4.51889e-09
2.20678e-09
-1.69757e-07
1.72069e-07
-1.28283e-09
1.42277e-07
1.01476e-09
-1.42009e-07
1.39812e-07
-4.62637e-10
-1.28722e-07
-1.06274e-08
8.39226e-08
-8.90303e-08
1.30875e-07
-1.25767e-07
-3.97414e-08
-2.72138e-08
1.50878e-07
1.31857e-07
-1.57491e-08
-1.11191e-07
-4.91692e-09
1.49909e-07
5.38457e-08
-5.78446e-08
1.01306e-07
1.38063e-07
-6.25068e-08
-6.44355e-08
-2.03014e-07
1.92851e-07
-1.40657e-07
6.89699e-08
-5.6781e-09
1.84008e-07
-1.89503e-07
1.3645e-08
-8.15015e-09
-7.05341e-08
-5.17367e-08
1.21108e-07
1.16257e-09
1.28982e-07
8.84588e-08
-1.3146e-07
-8.59808e-08
-5.14811e-08
-7.93183e-08
1.1578e-07
1.50195e-08
1.1308e-07
-1.18286e-07
-4.62745e-08
1.12604e-07
-4.41555e-09
-6.82046e-10
-1.07506e-07
8.61199e-08
-1.55903e-07
7.81468e-08
-8.36327e-09
1.1372e-07
-4.30682e-10
-1.13219e-07
-6.98179e-11
-1.80797e-08
9.09505e-09
1.41947e-07
-1.32962e-07
-4.62352e-08
1.91569e-07
-2.76427e-08
-1.17691e-07
-7.75058e-10
-5.25923e-10
-1.37507e-07
1.38808e-07
-7.54957e-08
-4.92779e-08
1.1777e-07
7.0035e-09
-9.83018e-08
-4.04399e-08
-1.30416e-08
-6.57132e-08
1.43251e-07
8.58175e-09
7.82277e-08
4.59824e-08
-3.11787e-08
-9.30315e-08
-6.91814e-08
-1.00667e-07
1.30107e-07
4.95416e-08
-1.22054e-07
3.33144e-09
1.55417e-07
-8.27418e-08
-1.46379e-07
7.37037e-08
-1.33999e-08
2.4991e-09
1.18624e-07
-1.07723e-07
1.58832e-07
-3.31815e-08
-1.13664e-08
-1.14284e-07
1.21139e-07
-9.28593e-08
-5.97124e-08
3.14329e-08
-6.1633e-10
1.10903e-07
-1.10356e-07
6.90352e-11
1.23633e-07
8.61564e-08
-8.63024e-08
6.21042e-10
-4.75014e-10
4.37872e-08
-1.62142e-07
9.43496e-08
2.40057e-08
-1.64137e-07
1.42651e-07
6.52734e-08
-7.50004e-08
-1.80357e-10
-3.14968e-10
-8.63664e-10
1.15701e-07
-1.11728e-09
1.14559e-07
-1.14106e-07
-6.35222e-10
1.82218e-10
-2.68624e-08
-1.6003e-07
1.21659e-07
1.97185e-07
-1.50033e-07
-1.68812e-07
-6.28725e-08
-1.0543e-07
2.97285e-07
-1.48659e-07
1.66098e-07
-1.39437e-07
1.21998e-07
-1.25675e-07
6.66085e-08
-5.36886e-09
1.17062e-07
-1.14288e-07
-3.64377e-09
8.69966e-10
9.96293e-08
2.55931e-08
1.195e-08
-1.37172e-07
2.23947e-09
-1.54613e-07
1.49936e-07
3.45163e-08
-2.98395e-08
-8.70169e-09
-9.50392e-08
1.03413e-07
3.28332e-10
-1.30021e-07
1.40016e-07
1.78519e-07
-1.86097e-07
-3.8559e-10
-1.85884e-10
2.11391e-09
-1.67381e-09
1.10766e-07
-1.11206e-07
4.00598e-08
-1.17365e-07
-2.01307e-09
9.32915e-08
-9.9683e-08
3.7814e-09
2.61018e-09
-8.70817e-08
1.4438e-07
-6.34591e-08
6.1611e-09
1.49268e-07
-7.73071e-08
-7.54088e-08
3.44749e-09
9.21531e-08
-9.24297e-08
-4.98474e-10
-1.14035e-07
-1.74156e-09
1.17983e-07
7.72794e-08
7.28115e-08
-7.84953e-09
-1.42241e-07
-6.11663e-09
1.37888e-07
-1.32627e-07
8.55079e-10
9.00682e-08
-1.52735e-07
-3.04661e-09
1.10202e-07
-1.80464e-08
3.42217e-08
-1.26377e-07
1.52379e-07
-2.38718e-08
-1.72733e-07
4.42259e-08
4.13647e-08
8.35781e-08
-1.23391e-08
6.5487e-08
-1.29758e-07
7.11045e-08
-6.83353e-09
1.37009e-07
-1.38141e-07
-1.50783e-10
-1.02349e-07
1.46117e-07
-3.23179e-08
-1.14505e-08
-2.08777e-07
-1.53012e-07
2.9249e-07
6.92984e-08
-1.25212e-07
-1.29782e-09
1.30851e-07
-6.4637e-09
1.37065e-07
-1.4545e-07
-5.47918e-08
6.3177e-08
-1.27807e-07
6.6018e-08
6.77584e-08
-5.96964e-09
-1.63427e-08
-5.46797e-08
-4.94489e-08
-1.02554e-07
1.02736e-07
-4.79306e-10
2.97061e-10
4.07584e-08
1.76787e-07
-6.82768e-08
1.06594e-07
-6.43344e-08
5.10316e-08
-7.42166e-08
-8.12605e-08
1.5153e-07
3.94706e-09
-5.78049e-10
-2.22965e-07
-5.18137e-10
2.24061e-07
7.54216e-08
-4.73907e-08
8.65278e-08
-2.64846e-10
6.56811e-08
-6.54839e-08
6.75596e-11
-1.95613e-08
1.42324e-07
6.86467e-08
-1.91409e-07
1.73117e-07
-8.74983e-08
-9.07698e-08
5.15124e-09
1.21216e-07
3.86142e-08
-3.68696e-08
-1.22961e-07
1.66413e-07
-7.83166e-08
7.75621e-08
-1.65658e-07
3.58018e-08
1.35036e-08
1.17108e-07
-8.99134e-08
8.55322e-08
-1.65376e-07
1.2637e-07
1.07226e-09
-1.23649e-07
-3.79317e-09
-4.03225e-08
-2.84269e-07
1.98916e-07
8.50676e-08
8.77351e-08
-6.70483e-09
-3.90547e-10
5.19045e-10
9.53204e-08
-9.54489e-08
-1.25711e-07
1.25573e-07
-3.88464e-10
-6.07129e-08
1.21215e-07
6.1068e-09
7.49035e-09
8.90003e-08
-5.09026e-09
-9.14004e-08
-1.30089e-07
5.74974e-08
9.08837e-08
-1.8292e-08
-4.48348e-08
-8.24094e-08
-1.02627e-08
-8.46085e-08
1.64126e-07
5.55023e-09
7.33997e-08
7.64809e-08
-1.44659e-07
-5.22149e-09
1.15393e-07
1.05567e-09
-1.16322e-07
-1.2624e-10
-6.0108e-09
-2.16353e-07
-1.45282e-08
2.26393e-07
-7.1402e-09
1.25377e-07
-1.26177e-07
5.82937e-08
-7.61174e-09
9.90244e-08
-4.16385e-10
-9.75412e-08
-1.06685e-09
1.24076e-07
-8.23393e-10
1.37904e-07
-4.70961e-08
8.23091e-08
1.56358e-10
-1.05351e-07
-3.42434e-09
1.13167e-07
-4.39146e-09
9.2269e-08
-5.09474e-08
-9.14312e-08
-5.19138e-11
9.1375e-08
1.08162e-10
-3.55109e-08
-1.38293e-07
1.46972e-07
2.6832e-08
-2.23552e-09
1.32584e-07
-1.29926e-07
-4.22221e-10
-8.96666e-08
-3.72797e-08
1.27115e-07
-1.68648e-10
-4.26023e-09
2.08394e-09
-1.11858e-07
-1.66029e-07
8.84578e-08
8.27669e-08
-5.1956e-09
3.44156e-10
-1.02213e-07
1.02156e-07
-2.87218e-10
1.40212e-07
-8.11679e-10
-3.13481e-10
-1.12604e-07
2.9487e-10
1.12623e-07
-1.67604e-08
2.18826e-08
2.20801e-09
1.33517e-07
-7.30272e-08
4.9968e-09
1.43054e-07
-1.42235e-07
-1.42189e-08
-1.25574e-07
1.41918e-07
1.9303e-08
-3.56477e-08
7.31431e-08
-7.44936e-08
1.5373e-07
3.90834e-09
1.15393e-07
1.54961e-07
-1.29594e-09
-1.559e-07
6.98726e-08
-1.45681e-07
-4.57621e-09
8.03849e-08
1.45495e-07
-8.00643e-08
7.96903e-09
1.01411e-07
-9.92447e-08
-1.14176e-07
5.91852e-08
-3.13111e-08
-1.52324e-07
1.45215e-07
-1.95499e-08
2.66594e-08
1.60602e-07
4.76478e-08
-5.44373e-08
-1.52285e-07
-7.497e-08
-3.09459e-08
8.19755e-08
2.39404e-08
-1.32679e-07
6.98475e-08
-5.5517e-08
1.18348e-07
-1.55047e-07
-3.40675e-09
1.61528e-07
-3.07491e-09
-1.11061e-07
2.1065e-08
-6.50503e-08
-1.66285e-07
-6.36969e-09
9.61484e-08
-1.38422e-09
-1.14171e-07
-5.83643e-10
-1.10991e-07
1.4216e-07
-7.51578e-08
6.07701e-09
1.58458e-07
-8.46568e-08
-8.02375e-08
6.43668e-09
-1.36785e-07
1.83572e-07
-4.72555e-08
4.68354e-10
8.3618e-08
-8.43737e-08
-1.36029e-07
9.63033e-08
7.45248e-09
-2.34428e-09
6.88605e-10
1.06212e-07
-1.05704e-07
-1.19655e-09
1.93504e-07
-4.90983e-08
-1.05792e-07
-1.10663e-07
5.77447e-08
1.16765e-07
-1.12121e-07
-2.5595e-09
-1.86223e-09
1.03343e-07
-1.01828e-07
3.47238e-10
-1.00024e-08
-1.37314e-07
1.34488e-07
1.28282e-08
-1.41534e-07
1.5846e-07
-1.00037e-08
-6.92277e-09
1.23013e-07
-8.9028e-08
-2.92473e-08
3.98912e-09
-8.18962e-09
-9.96006e-08
9.90886e-08
3.35514e-08
-6.94053e-09
-1.37672e-07
-2.03824e-08
1.12247e-07
-8.5647e-08
-6.21724e-09
1.63425e-07
-6.96553e-09
-1.40319e-08
-1.42427e-07
1.59778e-07
2.02287e-10
-2.75539e-09
-1.57225e-07
1.38507e-07
-1.37364e-09
-1.24283e-10
1.31206e-07
-1.31509e-07
3.3398e-10
-3.12793e-11
-1.27735e-07
-8.29071e-08
1.28232e-07
2.15459e-08
-1.73224e-07
-1.12363e-07
1.12094e-07
1.34668e-10
1.35169e-10
-1.3616e-07
-7.28162e-09
1.90817e-09
-1.03586e-07
1.4122e-12
1.03547e-07
3.78548e-11
-1.24028e-07
-2.49261e-10
1.24465e-07
-1.87005e-10
-7.48503e-09
1.19013e-07
-1.03765e-07
-7.30952e-09
-1.0455e-07
1.04012e-07
2.24685e-10
1.23041e-08
2.90418e-08
9.07853e-08
-1.30325e-07
7.38266e-08
-7.41678e-08
1.46789e-07
-1.46448e-07
1.04841e-07
-8.24374e-08
-2.45602e-08
2.15631e-09
1.37852e-07
-3.9467e-08
-1.10679e-07
1.43084e-08
5.63798e-09
-1.10392e-07
1.24788e-07
-2.00338e-08
-5.97052e-10
1.03711e-07
-1.02612e-07
-5.01721e-10
-1.43021e-07
-8.50306e-09
1.68008e-07
2.09505e-07
-8.91921e-08
1.89136e-07
1.5543e-07
-7.74416e-08
5.62952e-09
-2.55458e-08
2.61822e-08
-1.0918e-07
1.11634e-07
8.95837e-08
9.47066e-08
-7.50339e-09
9.43368e-08
7.33149e-08
-1.61563e-07
-6.08836e-09
8.29412e-08
8.02848e-08
-7.79591e-09
1.23034e-07
-7.63261e-08
8.44985e-08
7.45286e-08
-1.26429e-07
6.03104e-08
-8.40955e-09
6.57453e-10
-1.00113e-07
-1.21112e-09
2.62436e-10
-3.14997e-07
1.88239e-07
2.11126e-07
-1.29466e-07
4.9141e-08
9.63691e-09
4.41139e-08
4.60104e-08
-9.97612e-08
-1.29826e-07
2.01488e-09
1.28964e-07
-1.15207e-09
-9.93902e-08
9.89046e-08
-9.79117e-12
4.95441e-10
1.30567e-07
-1.69008e-07
1.99789e-07
-1.61348e-07
1.57333e-08
-1.36036e-09
1.27904e-07
-3.19167e-08
7.50198e-09
-7.45338e-08
9.89485e-08
-7.26572e-08
1.41267e-07
5.21682e-09
-1.47596e-07
7.68174e-08
7.60056e-08
-5.2273e-09
-1.12176e-07
-2.51091e-08
1.16903e-07
5.31434e-10
7.79474e-08
-1.32102e-10
-7.83468e-08
1.47834e-07
-6.69925e-08
7.79912e-08
1.3842e-09
-1.20101e-10
9.65758e-11
-9.80542e-08
1.80385e-07
-4.81128e-08
-2.9958e-08
-1.02315e-07
-3.87007e-09
3.0191e-08
-1.04822e-07
8.27089e-08
-3.39961e-08
2.28645e-08
2.16635e-07
-3.72224e-08
1.68096e-07
-1.73902e-07
-6.31814e-08
-6.77376e-08
5.34517e-09
1.32878e-07
6.2833e-09
-7.14222e-08
-7.26352e-08
1.36768e-07
7.28917e-09
1.32165e-08
1.16272e-07
-1.55729e-07
-1.74702e-10
7.06261e-08
-6.89003e-09
-6.65142e-10
-1.36247e-07
1.39522e-10
1.36772e-07
-1.40887e-07
1.72125e-07
-4.45608e-08
1.127e-08
-9.70643e-09
5.17724e-08
1.12895e-07
-1.30453e-07
7.61887e-08
-2.7411e-08
8.16753e-08
-1.42863e-07
9.62867e-08
-1.30106e-07
1.28598e-07
2.12002e-10
9.38344e-08
2.21456e-08
-1.68756e-07
-2.19352e-08
1.68546e-07
-1.85253e-07
1.01571e-07
-1.39284e-07
-1.71689e-09
1.67862e-07
2.43692e-08
6.72488e-08
-9.63287e-08
4.71064e-09
5.10128e-08
-1.76615e-08
8.29376e-10
-1.01127e-07
6.282e-10
-2.37896e-07
2.37944e-07
-5.6629e-10
-9.65722e-08
-1.01366e-07
-9.43673e-08
1.02773e-07
-1.12956e-07
8.50805e-08
-1.079e-07
1.7343e-08
5.47655e-09
1.27452e-07
-9.18893e-08
-9.38016e-09
-1.57258e-07
-1.10191e-08
2.12189e-08
1.47058e-07
-3.14465e-07
-2.69772e-10
-1.32995e-07
1.3216e-07
4.44277e-10
-9.46607e-08
-3.4341e-11
3.2768e-10
-1.43833e-08
-9.57496e-08
1.53391e-07
-4.3258e-08
1.10049e-07
5.43442e-09
4.42946e-08
-1.36685e-07
1.35873e-07
-3.60398e-09
-5.40102e-08
1.4081e-07
-9.99308e-08
2.61447e-10
-1.29875e-07
-2.12832e-10
9.29904e-08
-9.4902e-08
2.37767e-10
-6.71843e-08
-6.67587e-08
1.26116e-07
7.82728e-09
1.15001e-07
1.78192e-08
-9.85301e-08
-3.42897e-08
7.35892e-08
1.5458e-07
-2.09815e-07
-1.99853e-08
-1.11585e-07
-1.97216e-08
1.29203e-07
5.50933e-11
-1.29612e-07
3.54005e-10
2.44492e-08
7.87774e-09
5.51913e-08
-8.75182e-08
-1.43444e-07
7.7252e-08
-5.23037e-09
-1.19534e-07
1.17198e-07
-6.77964e-09
-4.08664e-10
1.23113e-07
3.29078e-10
-8.11889e-08
-7.29781e-08
1.47059e-07
7.10776e-09
1.31085e-07
-7.05593e-08
-6.7495e-08
6.96881e-09
1.31592e-07
-2.38944e-09
-6.91867e-14
-1.02697e-07
-9.3167e-08
1.01203e-07
-1.33992e-07
-4.78078e-08
1.2e-08
1.71313e-07
-1.07732e-07
3.01125e-08
-1.31158e-07
2.68736e-10
-1.07312e-07
6.92034e-10
-6.90985e-10
1.36528e-07
2.60874e-08
-2.78936e-08
-1.34721e-07
4.67882e-08
-1.32153e-07
-1.05022e-11
1.24603e-10
3.96379e-08
-1.97725e-07
-7.95928e-08
1.34753e-07
9.09574e-08
2.10976e-08
-1.48364e-07
-1.87393e-08
1.46006e-07
-8.26989e-08
6.16824e-09
1.35258e-07
-1.3387e-07
9.30994e-08
4.22522e-08
-1.48206e-09
-6.67226e-10
2.05933e-10
-9.88947e-08
6.79011e-08
-4.51728e-09
-1.64381e-09
-3.10753e-09
-2.37706e-09
9.73702e-08
-9.18856e-08
8.38957e-08
1.06533e-07
-1.05383e-07
-8.50452e-08
1.51831e-07
-1.69511e-07
3.3589e-10
1.66976e-10
1.60108e-07
-1.03373e-08
-1.40676e-07
-4.33867e-08
1.55332e-07
1.10682e-08
1.20719e-07
-1.13846e-07
-5.93991e-09
-9.33214e-10
-1.12777e-09
1.16311e-07
1.67006e-07
-5.8045e-08
-2.36635e-09
9.57745e-08
-8.49126e-08
-5.26526e-10
1.98876e-10
1.43382e-07
-1.63044e-07
8.06754e-09
1.50708e-07
1.7781e-09
-1.20584e-08
1.76711e-07
-2.21692e-07
4.80758e-08
1.00432e-09
9.22721e-08
-8.8752e-10
-9.23889e-08
-1.19246e-07
1.19514e-07
-1.71451e-10
1.18295e-09
-1.83267e-10
-1.13651e-07
1.12565e-07
-4.18346e-11
-1.11555e-07
-2.4472e-10
2.14788e-10
7.263e-08
-1.04656e-07
-7.77359e-08
1.09762e-07
2.16633e-11
-1.17155e-07
1.17253e-07
-1.19271e-10
-3.55121e-08
5.72989e-08
8.88625e-09
-1.99666e-08
-1.43479e-07
7.46262e-08
-6.11694e-09
2.86541e-08
-1.62239e-08
1.08289e-07
-1.37652e-07
6.64565e-08
6.39306e-08
7.26543e-09
-1.6163e-07
-1.13117e-07
1.13351e-07
-1.28379e-07
-4.39703e-08
5.89987e-08
1.32064e-07
-1.32885e-07
2.50491e-10
5.69868e-10
-1.79894e-09
-1.87564e-07
1.54873e-10
1.89208e-07
-1.07545e-07
4.25423e-11
1.07557e-07
-1.30003e-07
-1.61517e-10
5.52292e-10
7.36279e-08
-1.29852e-07
-6.95747e-09
3.09114e-10
-1.31709e-07
-1.08793e-10
7.73678e-08
7.81641e-08
-5.59571e-09
-7.47846e-08
-7.50234e-08
1.43539e-07
6.26879e-09
-1.18627e-07
8.64957e-10
1.17548e-07
2.14434e-10
1.26346e-07
3.12817e-08
1.12494e-07
-1.59725e-08
1.098e-07
-5.64084e-09
-1.00411e-07
4.73642e-08
4.57784e-08
7.2688e-09
1.11399e-08
1.30762e-07
-1.08099e-08
-1.2653e-07
7.48586e-08
-7.27731e-08
-1.33858e-07
-1.08045e-07
1.18771e-07
1.23133e-07
1.10357e-07
-1.20678e-10
1.17416e-07
-1.18897e-07
1.44513e-09
3.59702e-11
-1.33572e-07
-1.3083e-07
8.45415e-10
5.87664e-11
1.72952e-08
3.37577e-08
-1.55833e-07
1.5264e-08
-4.41983e-08
2.00601e-07
1.36954e-07
-1.31189e-07
-5.29504e-09
3.23903e-10
1.96745e-08
-2.17495e-08
1.35692e-07
-3.36402e-08
-8.03026e-08
1.07836e-07
-7.12542e-10
-1.06907e-07
-2.16737e-10
-4.29305e-08
-1.47108e-07
2.92423e-07
-1.02384e-07
1.05908e-07
-8.08052e-08
-7.33995e-10
-3.40886e-11
1.04168e-07
-4.23218e-10
7.49519e-08
-7.55238e-08
1.38693e-07
-1.82969e-07
-1.32652e-07
8.07562e-08
1.28713e-07
-2.36084e-09
-3.07047e-08
-8.38326e-08
7.23536e-08
8.64546e-08
8.19744e-09
1.91097e-07
-1.27562e-07
5.30168e-09
1.50328e-07
-8.13257e-08
7.00342e-09
1.25306e-07
-1.66929e-07
1.26389e-07
-7.36211e-08
-3.6351e-08
-1.40639e-08
1.81533e-09
1.06322e-07
-1.1814e-07
6.9298e-08
-1.31204e-07
-5.27862e-09
1.51313e-07
2.74853e-09
-4.70906e-08
1.42902e-07
-9.69232e-08
-2.0123e-09
-2.58854e-08
1.41758e-07
-1.59195e-07
4.33225e-08
1.18713e-07
2.13831e-08
-5.65183e-08
-2.51197e-09
-1.48137e-07
1.48408e-07
-9.35413e-10
-3.05626e-08
2.30872e-08
-9.90451e-08
1.06521e-07
7.64923e-08
-1.44007e-07
-5.1202e-09
-1.38223e-07
1.3866e-07
-1.28783e-10
-7.74789e-08
1.59994e-07
-1.25446e-07
-7.33667e-08
-8.0569e-08
1.56423e-08
-1.01801e-07
-1.17553e-10
2.07384e-07
5.40475e-08
-1.55812e-07
-1.08307e-07
-7.49706e-08
1.33731e-07
2.3373e-07
-4.52011e-11
-9.11864e-08
-1.318e-10
9.13634e-08
3.29708e-08
1.08998e-07
-6.96668e-10
1.51807e-07
6.31715e-09
9.83392e-08
5.74253e-08
2.69583e-09
7.46799e-08
-1.43862e-07
-5.60268e-09
-7.39707e-08
-8.33131e-08
1.4866e-07
8.62335e-09
-9.18067e-08
-4.47319e-09
-4.13148e-09
-9.23772e-08
-1.18118e-07
1.16439e-07
-5.23754e-11
-1.26393e-07
-3.399e-09
1.23675e-07
-9.16316e-08
-1.38988e-07
9.96384e-08
1.30981e-07
-1.13891e-07
3.95495e-08
7.75911e-08
-3.24974e-09
7.16598e-08
7.13193e-08
-1.36038e-07
-6.94094e-09
-7.25096e-08
-6.99219e-08
1.36035e-07
6.39637e-09
5.26773e-08
4.87746e-08
-1.11466e-07
1.00137e-08
-6.86291e-08
1.1458e-07
-3.72696e-08
-8.68131e-09
1.07229e-07
-1.07714e-07
-1.79688e-10
-9.61296e-08
7.13959e-10
8.37756e-08
1.08284e-07
-2.8942e-08
-1.63118e-07
-3.18112e-08
9.08624e-08
3.91199e-08
-9.81711e-08
-9.95435e-08
-4.83181e-11
1.01337e-07
-1.74493e-09
-7.5356e-08
-4.3422e-08
9.70286e-08
1.26258e-07
-3.31854e-09
7.16386e-08
-1.33568e-07
6.69915e-08
-5.06247e-09
-6.16672e-08
4.54465e-08
-1.27085e-07
1.16017e-08
1.29693e-07
-1.06707e-07
-3.29255e-08
5.52617e-08
8.4791e-08
-7.60956e-08
8.80204e-10
-1.24745e-07
-1.63998e-10
7.20607e-10
7.07875e-09
1.05514e-07
-1.19436e-07
5.77344e-08
5.45668e-08
7.13524e-09
7.52351e-08
-4.92897e-09
4.02806e-08
6.4587e-08
7.3791e-09
9.01201e-09
1.30525e-07
-1.08242e-08
-6.68922e-09
-8.39994e-08
8.21797e-08
1.37512e-07
-7.60098e-08
-1.60633e-07
1.61234e-07
1.69036e-07
5.92501e-08
-5.68516e-08
-1.71435e-07
1.46311e-08
-1.32273e-07
1.42091e-07
-8.02358e-08
-7.27608e-08
1.46193e-07
6.80388e-09
-4.92529e-08
-1.18278e-07
2.01958e-09
6.93941e-08
-6.82713e-09
1.32797e-07
-6.67644e-10
-6.51654e-11
2.28698e-08
-8.81172e-08
9.39016e-08
2.43313e-10
2.47773e-10
-1.38714e-07
-3.57054e-09
8.12351e-08
-7.831e-08
1.16512e-08
-8.59402e-08
1.46939e-07
-7.26495e-08
-2.86184e-08
-1.38437e-07
1.17535e-09
1.6588e-07
9.56768e-08
-1.83892e-07
7.18881e-08
1.63269e-08
-1.25265e-07
9.23771e-08
-1.00107e-07
1.02674e-07
-6.7679e-10
-1.01738e-07
-2.59958e-10
-4.64912e-08
-1.31046e-07
4.70874e-08
1.3045e-07
-7.40747e-08
-1.25722e-07
1.51792e-07
4.80046e-08
-2.92019e-09
-1.45353e-07
1.45963e-07
2.31085e-09
-1.2795e-07
1.27791e-07
-1.63983e-09
-1.47389e-07
1.30247e-07
-6.54726e-08
1.40924e-07
7.21555e-08
-6.16206e-09
7.83444e-08
-1.39535e-07
-6.52386e-08
-1.28689e-07
8.99295e-08
-1.04685e-07
-1.37545e-08
1.45697e-07
-8.97459e-08
-3.54309e-08
1.2291e-07
-1.20985e-07
-3.34689e-09
1.42185e-09
-9.99393e-08
-2.39488e-09
4.27998e-09
1.10398e-10
-1.52987e-07
1.49957e-07
-9.22922e-08
-2.66123e-10
7.51577e-10
-9.50575e-08
7.99065e-08
1.57942e-08
-6.43165e-10
-5.6927e-08
-1.36169e-07
1.83339e-07
9.75771e-09
1.18147e-07
-4.62132e-10
5.74885e-08
4.91344e-08
-1.15355e-07
8.73172e-09
-1.1098e-07
-5.37951e-10
1.11243e-07
2.74988e-10
-1.08497e-07
1.56234e-08
-2.60243e-08
6.46074e-08
-1.23268e-07
5.21164e-08
6.54448e-09
-4.80477e-09
-9.6075e-08
4.30753e-09
1.58956e-09
-1.36951e-07
1.50336e-09
5.47279e-08
7.64119e-08
-8.13794e-08
1.88395e-08
5.04499e-08
2.11644e-08
1.29664e-07
-1.302e-07
6.30867e-10
-9.48833e-11
-2.10468e-07
1.98396e-07
8.72017e-08
-7.51303e-08
5.83287e-08
-1.50266e-07
1.15537e-07
-2.35988e-08
7.60171e-08
-6.75582e-09
-6.94651e-10
-1.1452e-10
5.89166e-08
-6.2634e-08
-1.18164e-07
1.68701e-07
-1.40204e-07
1.1602e-07
-1.52366e-08
6.89625e-10
-1.55677e-07
1.54953e-07
1.33374e-07
-1.62464e-07
-1.47274e-09
-8.90208e-08
-8.46528e-08
1.66757e-07
6.91619e-09
9.61084e-08
2.28259e-10
-9.63787e-08
4.19836e-11
-1.50626e-07
8.05853e-08
7.47408e-08
-4.7e-09
-2.04471e-07
1.26983e-07
-1.4194e-07
2.19429e-07
-1.97202e-07
2.57642e-08
-4.65804e-08
-1.1543e-07
-1.67601e-07
1.03166e-07
3.85494e-08
-1.49922e-08
-1.31052e-07
1.42779e-07
3.26529e-09
-3.40337e-09
-1.14474e-07
-9.85739e-09
1.12495e-07
-1.15157e-07
1.21937e-07
-3.92438e-08
1.68712e-07
1.56037e-07
1.07958e-07
-1.31068e-07
-1.26033e-07
4.09156e-10
1.21692e-07
-1.22145e-07
4.38491e-11
1.05399e-07
-1.14182e-07
3.9787e-09
-8.16688e-08
-6.17285e-10
7.18981e-08
1.07326e-07
-4.64269e-08
6.4857e-08
-1.25575e-07
-4.75426e-09
-3.99881e-10
1.18516e-07
-1.18214e-07
9.81622e-11
-1.2226e-07
-4.10725e-10
1.23324e-07
-6.53472e-10
-1.24899e-07
4.59284e-08
-3.48754e-08
-1.21994e-08
1.03176e-07
8.2458e-08
-1.26154e-09
-1.84372e-07
3.19635e-09
-6.5617e-11
-1.75685e-08
8.51984e-08
-1.53058e-07
8.54281e-08
-1.32248e-07
1.34215e-07
6.83874e-08
-6.35339e-09
2.87132e-08
-1.37041e-07
-3.87479e-08
1.47076e-07
4.25145e-08
1.18574e-08
3.49084e-08
-8.92803e-08
7.19187e-08
7.88049e-08
-1.44287e-07
-6.43687e-09
-1.07605e-07
1.05867e-07
1.74919e-09
-1.03596e-11
-7.10795e-08
7.2478e-09
5.81624e-08
-5.59582e-08
1.31464e-07
-1.33668e-07
-1.09609e-07
2.32575e-07
-4.86818e-08
-7.42837e-08
9.00394e-08
-7.51206e-08
-7.89031e-08
6.39843e-08
7.15082e-08
-5.8816e-08
-1.42331e-07
5.63826e-08
8.46977e-09
6.08659e-08
8.44865e-08
7.86023e-08
8.11355e-08
-1.53579e-07
-6.15853e-09
1.41045e-07
8.37901e-09
-6.50311e-09
-1.42921e-07
1.07474e-07
7.2686e-10
-3.65045e-10
1.01262e-07
-1.03262e-07
2.40344e-09
-4.03132e-10
-6.88762e-08
-8.10436e-08
1.43048e-07
6.87178e-09
-1.26818e-07
1.49915e-09
4.19813e-10
-1.11297e-07
-4.15765e-11
3.58613e-10
1.18929e-08
1.30154e-07
1.17152e-07
2.01046e-09
-1.01511e-09
1.38827e-10
-1.08522e-07
1.07846e-07
1.02138e-07
1.79726e-08
2.79941e-09
-1.26847e-08
3.81952e-08
-1.26653e-07
1.01142e-07
1.31383e-07
-1.31122e-07
-1.19825e-10
-1.41229e-10
-3.12441e-08
-1.25017e-07
1.82026e-07
-1.24947e-07
-2.0182e-08
1.50566e-07
-5.43719e-09
1.62398e-07
-1.3771e-07
-2.37479e-08
-2.17636e-08
1.35551e-07
1.32988e-07
-1.34154e-07
4.57918e-10
7.08136e-10
1.58006e-07
-4.88125e-08
-1.55624e-07
4.64304e-08
1.31531e-07
-1.31644e-07
1.5561e-07
-1.55497e-07
9.52133e-09
-1.32595e-08
-1.03875e-07
1.07613e-07
2.81902e-08
-1.0847e-07
-4.60072e-08
1.26287e-07
9.15297e-08
8.29021e-08
-1.67167e-07
-7.26475e-09
2.15481e-07
-2.28009e-07
-1.3833e-07
-1.0037e-07
1.08061e-07
-1.38377e-08
1.32507e-08
-1.97022e-07
1.70986e-07
-9.08262e-08
1.42109e-07
-2.41371e-07
1.90089e-07
8.36443e-08
-1.684e-07
-6.07039e-09
2.15655e-08
9.47328e-08
-1.63213e-08
-9.99769e-08
-1.61347e-09
1.20669e-07
-1.52094e-08
-9.98509e-08
-6.24446e-08
1.62574e-07
-1.13285e-07
1.31556e-08
-2.88955e-08
8.33303e-08
-4.69683e-08
-7.46644e-09
3.15342e-10
-1.04882e-07
1.05036e-07
-4.68788e-10
2.8922e-09
1.31535e-07
-1.3326e-07
-1.16725e-09
-2.13887e-08
-1.33944e-07
1.44395e-07
1.73378e-08
-6.87834e-08
1.74543e-07
1.04115e-08
-5.07034e-08
-4.69099e-08
1.33422e-07
-2.33828e-07
-4.10479e-08
-1.60107e-07
1.26444e-07
-7.59464e-08
1.30314e-07
-1.26908e-07
-5.13715e-10
-1.04106e-07
1.52725e-09
-2.23549e-09
1.04814e-07
6.54475e-08
-2.01577e-07
-1.53779e-07
-2.54229e-11
1.33011e-07
-1.32731e-07
-2.54471e-10
-1.31735e-07
-4.63621e-08
1.68716e-07
6.09823e-09
-9.64418e-09
1.17149e-07
-1.05006e-07
-1.2134e-08
1.53186e-07
-1.22679e-07
5.50648e-10
-1.31407e-10
6.80396e-08
-1.60814e-07
8.74841e-08
5.28995e-09
-1.49037e-09
-1.29222e-07
-1.57752e-09
1.34193e-07
6.11289e-09
-1.10549e-07
5.63464e-08
5.23282e-08
1.87468e-09
-1.12625e-07
3.06852e-08
1.53448e-07
-7.49836e-11
1.43412e-07
-8.04175e-10
-1.42533e-07
7.83251e-09
1.26578e-07
-2.69705e-08
-1.0744e-07
1.5224e-07
-1.73499e-07
8.97561e-08
-6.84973e-08
4.79762e-08
1.21025e-07
-5.94686e-08
-6.82822e-09
8.85265e-08
1.06274e-07
-1.84619e-07
-1.36121e-08
-6.94344e-09
1.15584e-07
-1.39586e-07
1.2229e-07
3.68811e-10
-1.22693e-07
3.4817e-11
7.79424e-09
1.06241e-07
-3.98602e-09
8.41468e-08
-2.09032e-07
3.32534e-08
-1.39425e-07
2.02728e-09
-7.85129e-08
-6.69752e-08
1.38551e-07
6.9369e-09
-1.11493e-07
-5.0969e-08
3.42892e-08
1.28173e-07
-1.25542e-07
-6.13361e-10
-6.62149e-10
-7.36018e-08
1.55496e-07
-8.79396e-08
6.04512e-09
7.86234e-08
-1.56191e-07
8.14408e-08
-3.87314e-09
-1.18245e-07
-2.42804e-10
1.07814e-07
-1.10845e-07
4.92024e-09
-1.88873e-09
1.59349e-07
-8.93108e-08
8.5856e-09
-1.20849e-07
2.04882e-08
-2.06241e-08
6.25897e-08
-1.03513e-07
-2.34114e-08
1.32062e-07
-1.31168e-07
-2.04533e-10
7.17019e-08
6.43372e-08
-6.41439e-08
-7.18952e-08
8.43037e-08
1.57117e-07
-1.69761e-07
8.31642e-08
7.07189e-08
-1.48507e-07
-5.37634e-09
-1.21673e-07
6.42713e-08
5.00247e-08
7.3774e-09
2.00259e-10
1.32356e-07
4.3156e-10
8.37142e-08
7.80073e-08
-1.56291e-07
-5.43018e-09
1.11955e-07
1.22641e-07
-1.00825e-08
-1.08919e-07
-3.64029e-09
1.00402e-07
7.87856e-11
1.55413e-07
-1.56897e-07
-8.61492e-08
8.76338e-08
5.25363e-08
6.27805e-08
7.32449e-09
-6.25376e-09
-2.59863e-07
1.97882e-08
1.69923e-07
-3.61473e-09
6.30449e-09
1.61028e-07
1.38222e-07
-2.34642e-07
-1.29574e-07
1.05596e-09
-1.65637e-09
1.30174e-07
7.19381e-10
1.04317e-07
-1.04972e-07
-6.38264e-11
-8.36607e-08
1.90733e-07
-1.87308e-07
5.46242e-08
1.29805e-07
-6.82074e-08
-1.16222e-07
4.83673e-08
6.12957e-08
-1.17237e-07
7.57425e-09
1.56949e-07
-1.20814e-08
2.18902e-08
-1.40183e-07
-5.55616e-09
5.386e-08
-1.5667e-07
-1.93198e-08
-1.00317e-07
-1.17121e-07
1.10442e-07
2.11051e-08
-5.17664e-09
-2.16741e-08
1.01369e-07
3.07472e-08
2.38425e-08
-8.35951e-08
-2.47571e-09
1.31615e-07
3.97008e-09
1.31412e-10
4.06217e-10
-2.15674e-07
-1.55959e-08
-5.32215e-10
9.34827e-08
1.50863e-08
-1.00454e-07
-1.55584e-08
2.88157e-07
-1.26748e-07
-1.45851e-07
-1.77968e-07
1.45427e-07
1.2097e-07
-1.53247e-07
-7.20471e-08
7.77504e-08
-7.96983e-08
7.39949e-08
1.25e-07
-1.29611e-07
-3.93148e-09
8.54244e-09
-4.21486e-09
-6.70689e-08
8.3963e-08
-1.94862e-07
-8.48087e-08
6.84598e-08
-6.06322e-08
-1.25254e-07
2.83259e-07
-4.35476e-08
-1.03399e-07
-1.38668e-08
-8.06998e-08
1.62727e-07
2.27632e-09
-3.5052e-08
-7.5171e-08
9.41256e-08
1.60974e-08
4.20861e-08
-1.88633e-07
8.54486e-08
6.10987e-08
-1.11776e-07
1.11571e-07
-1.9855e-10
4.02679e-10
9.62293e-08
-1.66088e-10
1.4698e-08
1.31775e-07
1.18356e-07
-7.78469e-09
-8.74844e-08
-1.5299e-07
1.86719e-08
7.74276e-10
1.35754e-07
-1.0943e-07
1.61328e-07
-4.97426e-08
-6.01287e-09
3.0941e-09
1.31628e-07
-3.10635e-09
1.10407e-07
4.11849e-08
-1.60587e-07
-3.12241e-08
-1.31742e-07
-1.14244e-07
-8.91531e-08
4.61392e-08
-1.15736e-08
1.13554e-07
-8.88099e-09
-9.91672e-08
-1.14122e-07
-3.4016e-09
9.96274e-08
-1.28245e-07
1.03378e-07
-6.39623e-10
-1.02076e-07
-6.63122e-10
-2.70221e-08
-1.54732e-07
-1.8565e-07
1.85296e-07
1.1708e-07
-4.93249e-08
1.12791e-08
-7.90341e-08
1.18333e-07
-5.94016e-10
-1.17584e-07
-1.552e-10
9.06801e-10
1.06764e-07
-1.07998e-07
3.27163e-10
3.02922e-08
1.25198e-07
-3.8338e-08
-8.11659e-08
-8.5754e-08
1.07288e-08
8.11273e-09
1.14271e-07
-1.18423e-07
-3.96067e-09
-1.30505e-07
1.40876e-07
-2.2587e-09
-1.39021e-07
-3.82583e-09
-1.55689e-07
1.57762e-07
-5.80902e-08
-8.91644e-08
1.5333e-07
-6.07566e-09
1.12239e-07
-1.49167e-08
7.27086e-10
-1.2465e-10
4.89916e-08
1.23352e-08
-9.67773e-10
-2.99869e-10
7.82985e-08
8.57498e-08
-6.04198e-09
-3.51619e-08
1.04219e-07
8.20655e-08
-2.96784e-07
-1.81421e-07
3.11704e-07
1.64738e-07
1.45597e-07
-6.08847e-08
-9.35917e-08
6.128e-09
-7.25878e-10
-1.29097e-07
-3.76666e-10
5.64893e-08
6.50994e-08
-1.20539e-07
-1.04938e-09
-1.19026e-07
1.1887e-07
1.66681e-10
-1.13682e-11
1.09266e-07
3.36447e-08
-1.43132e-08
1.44861e-09
2.01559e-07
-4.61124e-09
-5.5053e-08
-8.36392e-08
-3.63904e-09
-8.01308e-08
-2.41936e-08
6.67442e-10
1.11939e-07
-1.1188e-07
8.09579e-08
-1.99175e-07
1.10925e-07
-1.04267e-09
-6.15609e-10
7.22836e-08
6.73682e-08
-1.35814e-07
-3.83739e-09
-1.67149e-07
8.34747e-08
-2.36738e-08
-2.7942e-08
-3.85445e-08
1.32299e-07
-6.58127e-08
-3.05712e-08
7.33966e-08
3.19154e-08
-1.45395e-07
-9.21979e-08
9.74737e-08
1.40119e-07
7.906e-08
-5.77203e-09
6.71513e-08
1.33296e-07
-5.47171e-08
-1.4573e-07
-3.79576e-09
1.21129e-07
1.53042e-08
-1.32637e-07
1.15466e-07
-9.80184e-08
-2.15247e-08
4.07746e-09
1.46526e-07
-1.9792e-07
1.82929e-07
1.46008e-07
-7.08498e-08
-6.82998e-08
-6.85859e-09
4.39056e-08
-1.75071e-07
-1.25343e-07
-1.24841e-07
-1.46675e-11
-1.93935e-07
1.63357e-07
-1.69436e-07
2.00014e-07
8.34288e-08
-1.68967e-07
-2.6586e-08
1.23076e-07
-1.22003e-07
-4.57028e-10
-6.15966e-10
6.20456e-08
-1.23855e-07
-5.25924e-09
-7.04479e-09
7.75095e-08
-1.75508e-07
8.18967e-08
-1.40321e-07
2.54158e-11
1.99538e-10
1.40096e-07
-1.08607e-07
1.42744e-07
-1.714e-07
-9.16338e-08
-2.74183e-08
-7.27011e-09
6.11913e-08
7.12561e-08
-6.00335e-09
-5.41597e-08
-6.16453e-08
-5.86841e-09
-3.83221e-09
-1.0732e-07
-1.03756e-07
-1.07819e-09
-5.71472e-09
7.13793e-08
-7.10691e-08
7.40584e-10
-1.0508e-09
1.10051e-07
-1.07887e-07
-1.35494e-09
-8.09149e-10
-1.26113e-09
1.30994e-07
-1.2981e-07
7.71711e-11
-1.35788e-07
1.46423e-08
1.15505e-07
5.64066e-09
1.30929e-07
-1.24306e-07
-4.60584e-09
-2.01698e-09
-1.10602e-07
-1.2059e-09
1.12473e-07
-6.64939e-10
-1.06942e-07
-6.53191e-08
9.98619e-08
3.50383e-08
-9.8361e-09
-1.25064e-07
7.76906e-08
-8.25846e-08
4.02998e-09
8.64044e-10
4.6557e-08
3.84155e-08
-1.31464e-07
1.12338e-07
-1.09323e-07
-7.43089e-09
4.4164e-09
-5.23098e-08
5.277e-08
1.56881e-07
5.68451e-09
1.3257e-07
-9.90268e-08
1.23849e-08
-2.8326e-08
-1.20852e-08
-1.04984e-07
-3.04468e-08
2.01306e-07
6.05719e-09
-1.76205e-07
1.34101e-07
-3.45101e-08
-2.00142e-08
2.16276e-08
-8.25972e-08
6.20988e-09
-1.28941e-07
1.28769e-07
5.98501e-08
-7.22579e-08
-3.10142e-08
7.92063e-08
2.14829e-09
6.20405e-08
5.68248e-08
-7.63509e-08
-8.54425e-08
1.17844e-07
-1.30986e-08
-7.23667e-08
5.97599e-09
9.70604e-08
1.16564e-08
2.314e-08
2.55691e-08
-1.08795e-08
5.28562e-08
6.12382e-08
6.93032e-09
-5.07334e-08
1.66054e-07
-1.72247e-07
-1.80153e-07
8.93359e-08
2.27589e-07
-1.53335e-07
1.09189e-07
-3.34319e-08
6.2745e-08
-1.38502e-07
-1.26544e-07
-4.37207e-08
-1.48634e-07
-5.66782e-09
-1.04588e-07
8.21789e-08
-9.06095e-08
1.13019e-07
8.87747e-09
-1.23382e-07
-1.45159e-07
-7.72402e-09
-4.01428e-09
-1.31025e-07
1.18681e-07
1.2781e-07
2.01466e-08
1.05402e-07
2.1239e-09
-1.36453e-07
1.26127e-07
-8.81258e-08
9.8452e-08
-1.03994e-07
1.37306e-08
-2.10335e-08
-3.56279e-08
3.24715e-08
6.04616e-08
-4.63464e-08
-1.14759e-07
-4.49043e-08
1.25549e-08
-7.27614e-08
-8.7335e-08
7.77214e-09
-7.2023e-08
8.26769e-08
8.25687e-08
2.4195e-08
4.36047e-08
-1.50368e-07
3.43061e-08
5.12436e-08
-8.07512e-08
1.72702e-09
-8.20737e-08
-9.24748e-08
7.39924e-09
6.40343e-08
-7.46408e-08
-4.92231e-08
5.98295e-08
-5.00932e-08
-9.14077e-09
1.51274e-07
-1.90853e-07
4.01771e-08
-5.98545e-10
-8.56188e-09
2.81196e-08
8.15467e-08
-1.01105e-07
5.53423e-10
-9.6653e-08
-9.80207e-10
9.70797e-08
-1.03366e-07
1.02735e-07
3.28413e-10
3.02008e-10
1.33879e-07
-7.33025e-08
-1.356e-07
-6.24384e-08
-3.91697e-08
1.03275e-07
-1.66675e-09
1.57897e-07
1.19355e-08
-1.19837e-07
6.11619e-09
-1.43721e-07
1.68963e-08
-5.1444e-10
-1.16843e-07
-1.16653e-07
1.16999e-07
-3.20423e-10
1.33839e-07
2.57364e-08
-1.47026e-07
-1.10181e-08
-1.47496e-08
2.24826e-07
-7.93269e-10
-5.52045e-08
-7.10568e-10
9.98825e-08
-9.90531e-08
1.74931e-10
-4.18109e-10
9.946e-09
2.70538e-08
1.2564e-07
-2.90294e-08
1.20826e-07
-9.07537e-09
-3.34483e-09
1.30962e-07
-1.26211e-07
-1.40548e-09
-1.06015e-07
1.1041e-07
-5.48999e-09
1.25029e-07
5.62577e-09
-3.2575e-08
-9.808e-08
1.21867e-07
1.79595e-09
-1.21635e-07
-2.02784e-09
-7.26339e-08
-5.52266e-08
7.28075e-08
9.1429e-08
1.5158e-09
1.60576e-07
1.98889e-08
-3.69257e-08
-1.49674e-08
3.67241e-09
-7.98914e-08