/*--------------------------------*- C++ -*----------------------------------*\
| =========                 |                                                 |
| \\      /  F ield         | OpenFOAM: The Open Source CFD Toolbox           |
|  \\    /   O peration     | Version:  2212                                  |
|   \\  /    A nd           | Website:  www.openfoam.com                      |
|    \\/     M anipulation  |                                                 |
\*---------------------------------------------------------------------------*/
FoamFile
{
    version     2.0;
    format      ascii;
    arch        "LSB;label=32;scalar=64";
    class       volVectorField;
    location    "0.052";
    object      U;
}
// * * * * * * * * * * * * * * * * * * * * * * * * * * * * * * * * * * * * * //

dimensions      [0 1 -1 0 0 0 0];

internalField   nonuniform List<vector> 
31639
(
(0.124041 0.000593722 -0.000615633)
(0.120618 -0.000465497 1.3591e-06)
(0.122689 -0.000280755 0.000882174)
(0.126366 3.63928e-05 -0.000266567)
(0.122709 -0.000782073 -0.000313107)
(0.121357 -0.000133 -4.24908e-05)
(0.120857 -3.21327e-05 -0.000233953)
(0.123639 -0.000103304 1.31966e-05)
(0.123425 0.000244181 -0.000253284)
(0.124335 -0.0004843 -0.000478169)
(0.125143 0.000460985 -4.31756e-05)
(0.124145 -0.000578749 -0.000805851)
(0.121389 -0.000491321 3.39196e-05)
(0.124248 -2.06513e-05 0.000195538)
(0.119816 -0.000361659 0.000114244)
(0.12128 -0.000437813 0.000817407)
(0.123012 0.000436362 0.000145973)
(0.120201 5.88404e-05 0.000406891)
(0.121464 -4.03887e-05 -0.000385944)
(0.122253 -9.56601e-05 -0.000196037)
(0.115501 -0.000259187 -0.000417271)
(0.125287 -0.000338768 -0.000610092)
(0.124764 0.000712062 -0.000202045)
(0.121154 0.000190575 -0.000322903)
(0.119655 -0.000199745 -0.000150466)
(0.123009 -0.000280749 9.84012e-05)
(0.121984 -1.04655e-05 -0.000194411)
(0.123761 0.00142412 -0.000123817)
(0.120635 0.000401941 0.000698449)
(0.124768 -0.000168936 0.000633314)
(0.125068 -0.000169989 -7.49473e-05)
(0.120209 -2.92488e-05 -0.000219482)
(0.12497 0.000365815 -0.000486213)
(0.121053 -0.000179633 -5.89346e-05)
(0.117285 0.000152326 0.000287616)
(0.12518 0.000422587 0.000179427)
(0.11431 -0.00040798 -0.000110088)
(0.126014 -0.000576933 0.000297386)
(0.124668 -0.000395569 0.00026274)
(0.114231 3.75775e-05 -0.000147173)
(0.118245 -7.35219e-05 -0.000332286)
(0.116839 -0.000518407 3.49876e-05)
(0.123873 6.47559e-05 -1.67303e-05)
(0.125701 -0.000795391 -0.000892613)
(0.124364 -0.000717972 0.000754569)
(0.125544 -0.000875716 -0.00039795)
(0.118601 0.000337934 -0.000286854)
(0.122379 0.000519464 -0.000336787)
(0.122431 -6.32038e-05 0.000228396)
(0.125914 -0.0004512 -0.000220812)
(0.125167 -0.000263332 -0.000556055)
(0.116024 9.9997e-05 -0.000266173)
(0.12457 0.000673342 0.000237478)
(0.115226 -0.000322291 0.000476175)
(0.122776 -0.00044718 -0.000187671)
(0.122508 0.000188989 3.6472e-05)
(0.116518 -9.52714e-05 -0.000644365)
(0.122115 6.34569e-05 0.000333886)
(0.121502 0.000146164 0.000401799)
(0.117164 0.000294806 -0.000211848)
(0.123946 -0.000230381 -0.000510237)
(0.12455 0.000353956 -0.000214531)
(0.120181 -0.000288747 -0.000315123)
(0.121552 -7.09951e-05 -0.00023758)
(0.123345 0.000428655 0.000340395)
(0.125902 -0.000318443 -0.00052187)
(0.1234 2.26665e-05 -0.00102774)
(0.121846 -0.000312069 0.000135274)
(0.118424 3.56868e-05 -0.000429942)
(0.125889 0.000324622 -0.000196555)
(0.123722 0.000138746 0.000103236)
(0.118501 0.000399463 -0.00125546)
(0.124047 -0.000414839 -0.000843651)
(0.122332 -0.000250553 -0.000199709)
(0.123579 0.000668818 6.55292e-05)
(0.115493 0.000385353 -0.000594877)
(0.125131 -0.000647618 0.000301094)
(0.121697 0.000200505 -0.000657916)
(0.12073 -0.000264342 0.000412427)
(0.123956 0.000237701 2.1961e-05)
(0.120232 -3.91422e-05 7.32012e-05)
(0.112729 -0.000343696 2.13526e-05)
(0.125321 -0.000435802 0.00015541)
(0.122417 -0.000224526 -0.000301086)
(0.122729 -0.000115534 -0.000113662)
(0.125131 -0.000506239 -0.000322135)
(0.126004 -0.000103356 0.000133847)
(0.125297 -0.000204201 -0.000498917)
(0.1165 0.000883544 -0.00149278)
(0.124419 -0.000204197 -0.000504655)
(0.122688 -0.000398107 0.000243231)
(0.121452 -0.000519904 -0.000162028)
(0.117438 -0.00051667 -0.000488362)
(0.119642 0.000669299 -0.000831162)
(0.120311 -0.000858247 -0.000437251)
(0.120893 0.000889118 0.000473126)
(0.122779 0.000183721 -0.000525617)
(0.122142 -0.000231739 0.000132388)
(0.121517 0.000170422 0.00036029)
(0.116448 -0.00120429 -0.000161996)
(0.123543 0.000323499 1.5659e-05)
(0.123118 0.000287414 0.000983021)
(0.120144 -0.000346749 -0.0001397)
(0.115774 8.17683e-05 -0.000177854)
(0.116993 -5.98437e-05 -0.000384777)
(0.12558 -0.000655317 -0.000319541)
(0.115221 0.000349057 -0.00048313)
(0.116309 -0.000977391 -0.000903848)
(0.118973 0.000383859 -5.78724e-05)
(0.114543 -0.000471937 0.000684108)
(0.123408 -0.00143147 0.00039494)
(0.11754 -0.000104483 -0.00026661)
(0.121469 0.000143911 -0.000154477)
(0.121362 -0.000738792 -0.000664223)
(0.121734 0.000115941 -0.000944149)
(0.115347 -0.000535358 0.000276989)
(0.121385 0.000692188 9.93206e-05)
(0.120832 -0.000818677 -0.000198475)
(0.12332 0.00012569 0.000181895)
(0.121329 -0.000383043 4.30445e-05)
(0.123371 -0.000339135 -0.000208299)
(0.123879 -0.000468507 0.000304781)
(0.124779 -2.97997e-05 -0.000612852)
(0.12393 0.000368546 -0.000727386)
(0.123763 -0.00028563 -0.000866351)
(0.124598 -0.000440579 0.000151936)
(0.121279 -3.19761e-05 0.000436551)
(0.120211 0.000168517 -0.000277868)
(0.119952 -0.000655061 -0.000382646)
(0.12437 -0.000256073 0.000224285)
(0.123872 0.000232021 -0.000175328)
(0.124602 9.04245e-05 -0.000546003)
(0.123624 -0.000663091 -1.24487e-05)
(0.122552 -0.000180225 0.000108616)
(0.124983 -0.000134871 -0.000117981)
(0.122148 -0.000109029 6.00294e-05)
(0.117346 -0.000159257 -0.000291654)
(0.116322 -0.000750425 -0.000489492)
(0.124882 0.00038459 0.000613492)
(0.121602 -0.000486441 -0.000512226)
(0.121269 -0.000259257 -0.000417166)
(0.125576 0.000277128 0.00115658)
(0.124498 0.000424311 0.000311526)
(0.115745 -0.000365282 -0.000493783)
(0.116138 -0.000120129 -0.000700381)
(0.124274 -0.000267696 2.99247e-05)
(0.123935 -5.00272e-05 -0.000168611)
(0.116868 -0.00027539 -0.000441324)
(0.117446 -0.000101623 0.00019803)
(0.124786 -0.000496969 0.000162386)
(0.119597 -0.000128526 -0.0012425)
(0.121275 -0.000101099 0.000163421)
(0.122109 -0.000526417 -0.000897257)
(0.124568 -0.000112336 8.82337e-05)
(0.117869 0.000621269 -0.00129921)
(0.126378 -1.65731e-07 -7.21006e-06)
(0.123756 -0.000389226 -0.000262047)
(0.118219 -0.00126532 -0.000207436)
(0.116643 -0.000754268 0.00103581)
(0.121008 -0.000396021 -0.000126903)
(0.125576 -0.000186843 -0.000470074)
(0.115443 0.000268382 7.40439e-05)
(0.117341 0.000253633 -0.00108834)
(0.11657 -0.000453908 0.000169903)
(0.115596 -0.00113457 4.59576e-05)
(0.120185 0.000440542 -0.00035104)
(0.116702 0.000341773 0.000190052)
(0.125216 -0.000678382 0.000203743)
(0.125058 -0.000492203 0.000245734)
(0.116759 0.000250828 -0.000847067)
(0.117634 -0.00088987 0.000350452)
(0.120874 0.000726122 -0.000557533)
(0.117106 -4.31419e-05 -3.03215e-05)
(0.122273 -0.000100005 0.000522507)
(0.125772 -0.000297933 -0.000218882)
(0.123722 -0.000693307 -0.00049008)
(0.121879 0.000627087 0.000254854)
(0.124371 0.000315903 0.000368705)
(0.122472 -0.000522378 -6.89545e-05)
(0.120602 -0.000489421 -7.92812e-05)
(0.120834 0.000147798 -5.31566e-05)
(0.121219 -0.000588078 0.000757698)
(0.119988 -2.07072e-05 0.000221994)
(0.114583 0.001037 -0.000638479)
(0.123101 -0.00021061 9.66453e-05)
(0.125467 6.20613e-05 -0.000229479)
(0.120915 0.000224052 0.000750439)
(0.124867 0.000197304 -0.000148329)
(0.117499 -0.000263345 9.89041e-05)
(0.115069 -0.000154449 0.000433036)
(0.125924 -0.000239667 -5.49679e-05)
(0.124578 -0.000227365 -0.000316188)
(0.122251 -0.00033042 0.000493107)
(0.121144 -0.000119875 0.000283515)
(0.121678 -0.000224357 -0.00044483)
(0.122419 -0.000241237 -0.000752428)
(0.122104 0.000677408 0.000423609)
(0.124165 0.000475688 -0.000486306)
(0.117211 -0.000189876 -0.000339358)
(0.12089 0.000109457 -0.000229124)
(0.125533 -5.74694e-05 0.000284472)
(0.124166 -0.000254749 0.000200398)
(0.123494 -0.000193699 0.000258731)
(0.12157 -0.00161302 -0.000823415)
(0.122476 -0.000610243 -0.000460723)
(0.120109 8.3026e-05 -0.000380616)
(0.121566 -0.000297941 -0.000476204)
(0.119943 0.00060232 -0.000669024)
(0.124619 7.7715e-05 -0.000648508)
(0.115456 -0.000139017 -1.6788e-06)
(0.121683 -9.03812e-05 -0.000173457)
(0.121396 0.000408761 1.58112e-05)
(0.122814 0.000112051 -0.000388736)
(0.125038 -0.000149345 -0.000529138)
(0.124401 -0.00059121 -0.000410182)
(0.125286 -0.000194673 -0.000302768)
(0.117212 -0.00110772 -0.000368275)
(0.119995 -0.000744655 0.000486342)
(0.124307 -0.000397182 -0.000260584)
(0.12509 -0.000212284 0.000324263)
(0.12388 3.51865e-05 0.000350354)
(0.122258 -0.000462254 -0.000550892)
(0.113712 -0.000360167 0.000615318)
(0.121394 -0.000473172 0.000488462)
(0.116811 -0.000752706 -0.000304543)
(0.119869 0.000388786 0.000113727)
(0.124429 -0.00048661 0.000517742)
(0.12022 6.54428e-05 0.00052458)
(0.115902 0.000442711 -0.00027415)
(0.122435 0.000173951 0.000199731)
(0.123941 0.000569855 -0.000269496)
(0.125578 -0.000561963 -2.09215e-05)
(0.116388 -0.000361535 -2.19581e-06)
(0.115557 -0.000808938 0.000334069)
(0.123045 -0.000292348 0.000411374)
(0.124845 -5.87635e-05 -0.000624385)
(0.116723 -3.05285e-05 0.000491454)
(0.124825 -0.0006602 0.000300253)
(0.119718 -3.09567e-05 -0.000498859)
(0.117408 -0.000505228 0.000189548)
(0.120907 0.00027207 -0.000420812)
(0.123406 -0.000361909 9.0737e-05)
(0.120097 -0.00103473 -0.000161617)
(0.119249 0.000215549 0.000985982)
(0.120544 0.000406834 0.000442097)
(0.122365 -0.000135025 -0.000180634)
(0.120359 0.000445154 -0.000560722)
(0.119443 0.000751572 -0.00110454)
(0.115535 -0.000461397 0.000573297)
(0.120443 0.000246611 -0.000720995)
(0.120911 9.50572e-05 -0.000718819)
(0.118591 -6.9469e-05 -1.04789e-05)
(0.120433 -0.00115423 0.000451498)
(0.124886 0.000226848 -0.000169431)
(0.125086 0.000581655 0.000205429)
(0.122435 0.000414176 -6.33424e-05)
(0.117383 0.000190938 2.33415e-05)
(0.124485 0.000308042 -0.000183606)
(0.124173 0.000330967 -0.000525472)
(0.122312 -0.000437168 -0.000289014)
(0.125965 0.000118608 0.000856602)
(0.125455 0.000118549 -0.000424075)
(0.123494 0.000197057 -0.000436526)
(0.125253 -0.000115201 5.9826e-05)
(0.120097 0.000449566 0.000260136)
(0.122148 -0.000316799 -0.000673806)
(0.115789 0.000274092 -0.00166991)
(0.120278 7.33783e-06 -7.25425e-05)
(0.124442 -0.00110768 0.00038253)
(0.120007 1.55924e-05 0.000400446)
(0.124678 0.00039918 -0.000176926)
(0.121475 0.000480139 -0.000701859)
(0.122849 -0.000234213 0.000147509)
(0.123675 0.000316086 0.000414092)
(0.125587 -7.79668e-05 -0.000722677)
(0.122316 0.000670162 0.000126268)
(0.116647 0.000306644 9.59306e-06)
(0.121327 0.000249572 0.000231004)
(0.118136 0.00169652 -0.000344629)
(0.124954 -0.000380921 -0.000994264)
(0.121486 -0.000618513 -0.000482067)
(0.124715 0.000174119 -0.000489233)
(0.122758 0.000267194 -4.36087e-05)
(0.120598 -0.000191281 -0.000461957)
(0.115539 -9.1712e-05 -1.29367e-05)
(0.118104 3.77642e-05 -0.000577319)
(0.117101 0.000366123 0.000317733)
(0.115405 -0.000361613 0.000114609)
(0.125287 -0.000344641 -0.000463391)
(0.115935 -0.000501516 -0.00063989)
(0.12285 -0.000427972 0.000325127)
(0.122136 0.000528361 -0.000296538)
(0.121474 6.46943e-05 -0.000226056)
(0.117524 -0.000244105 -0.000316554)
(0.125119 -0.000829627 -1.63571e-05)
(0.121666 0.000115523 -0.000792462)
(0.11944 0.000152417 0.00070659)
(0.124869 0.000115247 -0.000445025)
(0.123309 -0.000141919 -7.45645e-05)
(0.118092 0.000529322 0.000522714)
(0.1201 0.000173676 -4.9563e-05)
(0.117169 0.000194892 -4.75632e-05)
(0.121961 0.000283248 -0.000388175)
(0.120488 0.000368497 -0.000191772)
(0.117268 0.000426462 0.000940865)
(0.122058 -5.52309e-05 -0.000233712)
(0.120329 0.00112906 0.000668408)
(0.114672 7.16974e-05 -0.00129118)
(0.114614 0.000325758 0.000236532)
(0.123643 -0.000465748 0.000191573)
(0.12492 0.00013314 -8.36191e-05)
(0.125672 0.00032014 -0.000146358)
(0.116116 0.000368882 0.000299301)
(0.117751 -9.73294e-05 0.000589596)
(0.124088 0.000193299 0.000395791)
(0.119056 -0.000245058 -0.000273629)
(0.119224 0.000619619 -0.000878664)
(0.124026 0.000359273 0.000205606)
(0.124786 -0.000637851 -9.35408e-05)
(0.121432 -0.000851294 0.000212774)
(0.124732 -0.00109092 -0.000245765)
(0.125767 0.000128682 -0.000240797)
(0.116942 -0.000191678 -0.000256091)
(0.125483 -0.00127825 -0.000194975)
(0.114509 0.000207607 -0.000242606)
(0.115806 -4.23952e-05 -3.27236e-05)
(0.125182 -0.000453031 -0.000287978)
(0.124413 -0.000480387 -0.000172511)
(0.125317 4.73869e-05 -0.0007928)
(0.125694 0.000399987 -0.0011043)
(0.124543 -0.000229916 -0.000860951)
(0.118111 0.00132126 -0.000606811)
(0.119876 -0.0011225 0.000775528)
(0.120689 -0.000151192 -0.000316748)
(0.123452 -0.00100102 0.000171805)
(0.125324 0.000998929 0.000978286)
(0.125865 -0.000875111 0.00035083)
(0.121339 0.000194927 -0.000274539)
(0.119097 -0.00111246 0.000465136)
(0.121254 1.04197e-05 -0.000122612)
(0.124526 -0.000134646 -0.000155323)
(0.124251 -0.000149203 -0.00102753)
(0.120369 9.55566e-05 -0.000231215)
(0.123072 -0.000218347 -2.82642e-05)
(0.120781 0.000638414 -0.000675757)
(0.121128 -0.000440674 -0.000410985)
(0.123449 -0.000440735 0.000430375)
(0.119408 -0.00118052 0.0010611)
(0.116978 -0.000149775 -4.18694e-05)
(0.122279 0.00088519 -0.000459384)
(0.123369 0.000109299 0.000603039)
(0.12074 0.000327383 -0.000183786)
(0.123633 0.000393402 0.000423296)
(0.124625 -0.000455523 0.000320608)
(0.121799 0.000132096 -0.000451269)
(0.117735 0.000112749 -0.000552438)
(0.121048 0.000484799 -0.000426921)
(0.120191 0.000488017 0.000531999)
(0.115864 0.000226273 -0.000485512)
(0.124363 -0.000826015 0.00028103)
(0.115612 0.000606375 0.000470472)
(0.123689 -0.000133397 -0.000480112)
(0.12541 -0.000783587 -0.000332093)
(0.116603 -0.000374627 0.000205256)
(0.121832 0.000369588 5.376e-05)
(0.120371 0.000446019 0.000412403)
(0.116379 -0.000318926 1.56219e-05)
(0.123257 -0.000185555 -0.000258924)
(0.117824 5.55178e-05 -7.87964e-05)
(0.121654 1.35037e-05 0.000743163)
(0.125005 0.000328439 8.00963e-05)
(0.123463 0.000158954 0.000157094)
(0.115581 0.000345093 5.42566e-05)
(0.123776 0.00034862 4.42929e-05)
(0.117685 0.000137503 -0.000402896)
(0.123737 -5.06023e-05 2.87166e-07)
(0.123735 0.000248165 0.000196217)
(0.12424 -0.000142034 -0.000606116)
(0.124951 -0.000161285 -0.000556134)
(0.116562 5.40188e-06 -0.000732341)
(0.123574 -0.000797977 7.9635e-05)
(0.11586 7.42582e-05 -0.000568082)
(0.120532 5.27289e-05 -0.000481136)
(0.116787 5.97073e-05 -0.000459533)
(0.126048 -2.76756e-05 -0.000591023)
(0.124709 5.83029e-05 -0.000567687)
(0.125668 5.77756e-06 1.09213e-06)
(0.125128 -0.000381467 -0.000570806)
(0.122793 -5.48537e-05 -0.000721139)
(0.124063 -5.67306e-05 0.000189913)
(0.120723 0.000279094 -0.000102658)
(0.122643 0.000288427 -0.000321106)
(0.121527 0.000109947 -0.000395861)
(0.117782 0.000152184 9.82566e-05)
(0.124137 2.23072e-05 -0.00047179)
(0.12221 -0.000382068 -7.93132e-05)
(0.122353 -0.00016261 -0.000310682)
(0.12448 0.00016406 0.000163332)
(0.124192 -7.41679e-05 -0.000488247)
(0.1247 2.51799e-05 0.000250319)
(0.121448 -0.000721526 0.000172841)
(0.116023 -0.000168092 0.00073483)
(0.121118 0.000209158 0.000140225)
(0.12366 0.000138576 0.000457192)
(0.122797 -0.000224571 9.66048e-05)
(0.116702 -0.000639335 -0.0004607)
(0.12478 0.000117745 -0.00035833)
(0.124546 -0.000194006 -0.000874331)
(0.119445 0.000345417 -0.000393679)
(0.123313 -0.000283545 -0.000516654)
(0.123879 -0.00038381 -0.0011791)
(0.123808 -0.000397751 -0.000654178)
(0.123798 -0.000396625 -0.000119849)
(0.116255 -0.000102715 -7.75764e-05)
(0.123127 -0.000466973 9.53931e-05)
(0.123556 -0.000557014 0.00025735)
(0.114483 0.000132402 6.13646e-05)
(0.122873 -0.00095526 -1.53892e-05)
(0.123057 -0.000326347 -0.000161763)
(0.119309 0.000105205 0.000344016)
(0.115428 -3.88804e-05 0.000188212)
(0.115183 -0.000397554 0.000661269)
(0.120898 -0.000977151 0.000238638)
(0.114875 0.000627895 -0.000567086)
(0.121161 5.00022e-05 0.000190075)
(0.122223 -3.7073e-05 -6.05321e-05)
(0.119867 0.000573589 0.000278032)
(0.123752 0.000451918 0.00018899)
(0.116176 -0.000283264 0.000155547)
(0.123121 0.000368458 6.68928e-05)
(0.12591 0.000256963 2.91025e-05)
(0.120972 -0.000137903 9.08022e-05)
(0.123599 -0.00013756 0.000648109)
(0.121196 0.000120045 4.20965e-05)
(0.125012 0.000995588 -1.88908e-05)
(0.122507 0.000423297 6.00571e-05)
(0.12299 -0.000257883 -0.00066199)
(0.126004 8.97187e-05 -0.000447437)
(0.121702 7.57499e-05 -0.000438457)
(0.116547 0.000188828 0.000178732)
(0.121172 1.26021e-05 -0.000167205)
(0.125512 0.00022924 -0.00119486)
(0.124512 0.000272669 -0.000776213)
(0.123838 -0.000208561 0.000687919)
(0.124904 5.11828e-05 5.06141e-05)
(0.121348 -0.000717492 0.000617958)
(0.124222 -0.000224461 0.000228442)
(0.122896 0.000167238 0.000220195)
(0.124086 0.000255318 -0.000170674)
(0.124557 -0.000395528 -0.000485628)
(0.115265 -0.000490737 -0.000324008)
(0.12088 -0.00032368 0.000236684)
(0.114004 -0.00020375 0.000231256)
(0.121241 0.000557327 0.000752881)
(0.119929 -0.000130558 -0.000698387)
(0.116447 -0.000331847 0.000721706)
(0.115559 -0.000515477 -0.000322888)
(0.122141 0.000369252 -0.000258815)
(0.123109 -0.00042474 -0.000238309)
(0.124777 -1.10954e-05 -0.000619302)
(0.116986 -0.000209249 0.000675177)
(0.123718 -7.06107e-05 2.05007e-05)
(0.121702 -4.94233e-05 0.000283882)
(0.121373 -0.000199638 -0.000462623)
(0.123095 1.03858e-05 -0.000639674)
(0.114995 -0.000475683 0.00188175)
(0.121363 -9.54012e-05 -0.000501714)
(0.116053 0.000122574 0.000347418)
(0.119651 -0.000484957 -0.000437909)
(0.123915 -0.000167984 9.12222e-06)
(0.126297 0.00134225 0.00035926)
(0.124207 0.000222361 -0.00106956)
(0.12271 0.000542316 -0.000706945)
(0.114838 0.000228967 0.00137226)
(0.123615 -0.000152711 0.000138449)
(0.122739 -0.000150756 -0.000507827)
(0.124125 -0.000211442 -0.000376335)
(0.115561 -3.77505e-05 3.31661e-06)
(0.118002 -0.000168837 0.000603644)
(0.120317 0.000476261 0.000612405)
(0.117959 0.000413571 -0.000248747)
(0.114616 -0.000672289 -0.000181299)
(0.124131 -7.79328e-05 -0.000386428)
(0.117571 -0.000114068 9.79108e-05)
(0.120272 0.000851852 0.000152306)
(0.116316 -0.000380699 -0.000995232)
(0.123645 0.000357293 7.12743e-05)
(0.116951 0.000124926 -0.000319331)
(0.125043 -0.000189956 0.000614114)
(0.123616 0.00012621 -0.000457982)
(0.125152 -7.34345e-05 0.000534535)
(0.125266 -0.000128854 -0.000478613)
(0.117331 4.7896e-05 0.000234344)
(0.12432 6.84792e-05 0.00023097)
(0.125521 -0.000254595 -6.99742e-05)
(0.122698 -0.000460371 0.000434309)
(0.123599 0.000569355 -0.000213516)
(0.122714 -0.000465503 -0.000254297)
(0.124906 0.000425912 -0.000131664)
(0.123961 3.67617e-05 0.000320355)
(0.119852 5.30463e-05 -0.000418248)
(0.126348 -0.000217377 -5.86674e-05)
(0.125734 -0.000347604 -0.000319797)
(0.12194 -0.0002715 -0.000290196)
(0.121295 -0.000282117 -0.000795077)
(0.124931 -0.000395033 -0.00023874)
(0.122279 0.000377012 4.9117e-05)
(0.114701 0.000692275 -0.00021496)
(0.114951 0.000443776 -6.13921e-05)
(0.121461 2.45423e-05 6.70694e-05)
(0.124282 -2.84333e-05 0.000223593)
(0.125675 -0.000203082 -0.000231259)
(0.119652 -0.000208079 -0.000115819)
(0.124624 0.00056128 0.000245996)
(0.12344 -1.14119e-05 0.000140796)
(0.12483 0.00095532 0.000800058)
(0.121954 6.94668e-06 -0.000150556)
(0.122163 0.000531289 -0.000480804)
(0.123099 -0.00161236 0.000536102)
(0.116179 -1.96676e-06 -0.000274181)
(0.121126 0.000181749 2.48043e-05)
(0.123213 1.56815e-05 -0.00033847)
(0.125097 5.66276e-06 2.53504e-05)
(0.117669 -0.000155824 8.3579e-05)
(0.11854 0.00066884 -0.000794887)
(0.119499 -9.60661e-05 -0.000332095)
(0.119226 -0.000334052 -7.68707e-05)
(0.121234 -0.000191109 -0.000547542)
(0.115897 -0.000116015 -0.000370322)
(0.124364 0.000155721 -0.000904996)
(0.120487 1.97209e-06 -0.000264796)
(0.12366 0.000123006 0.00108631)
(0.121266 -0.000278282 -8.73214e-05)
(0.125594 -0.000252528 -0.000248156)
(0.122257 -0.000289241 -0.000925903)
(0.116228 0.000191359 0.000582009)
(0.122921 0.000807337 4.05454e-05)
(0.125845 -0.000307686 -0.0010146)
(0.116993 0.000402677 0.00117546)
(0.124719 -0.000176411 -0.000749939)
(0.12665 -0.000915333 -0.000667311)
(0.122117 -0.000209897 -7.17668e-05)
(0.120513 0.000233532 0.000166798)
(0.124061 0.000304101 -0.00115452)
(0.119642 -3.4897e-05 1.13755e-05)
(0.121646 -0.000460294 7.81613e-05)
(0.121393 0.000151728 0.000293854)
(0.116925 -0.000106605 9.94206e-07)
(0.117349 -0.000169916 -0.00117926)
(0.120631 0.000198134 0.000491974)
(0.119772 0.000636492 0.000155617)
(0.124266 -0.000149773 -0.000303081)
(0.119489 -0.000425435 0.000292904)
(0.1211 0.000470964 0.000423158)
(0.125267 0.000225744 0.000388296)
(0.120505 0.000207857 -6.63674e-06)
(0.115317 0.00020334 0.00037609)
(0.119803 0.000339617 0.000226451)
(0.121688 0.000454209 -0.000322183)
(0.125658 -0.00018665 0.000278233)
(0.116032 0.000735572 0.000386507)
(0.115764 -0.000128544 0.000302674)
(0.125425 0.000326174 0.000930359)
(0.116165 0.000272298 -1.8831e-05)
(0.122701 -3.63524e-05 -0.000103622)
(0.124304 0.000194282 -0.000265131)
(0.117643 -0.000152656 -0.000866314)
(0.121726 6.4275e-05 -0.000406916)
(0.125063 0.000533051 -0.000779252)
(0.12171 -6.06672e-05 0.000622496)
(0.114442 6.89682e-05 0.000226014)
(0.124585 0.000262583 -0.000174186)
(0.121818 -6.89392e-05 -0.000261131)
(0.11495 0.000546121 5.98569e-05)
(0.125004 0.00027055 -0.000236949)
(0.119963 -0.000160257 -0.000312697)
(0.12075 0.000585697 -0.000390852)
(0.123454 -3.93787e-05 -0.000138837)
(0.115218 0.000833435 -0.000457756)
(0.12065 -0.000103615 -0.00105385)
(0.120034 -0.000723735 -2.65217e-05)
(0.121926 -4.10018e-05 -0.000499487)
(0.117682 -0.000123883 0.000445079)
(0.119419 -7.19292e-05 -9.18591e-05)
(0.123676 0.000525573 0.00053361)
(0.125928 -0.000916877 -0.000651411)
(0.127104 -0.00033859 -7.06091e-05)
(0.125649 0.00053844 -0.000417546)
(0.124915 -0.000609202 -0.000211122)
(0.123987 7.80855e-05 -0.00129902)
(0.119092 -0.000255649 0.000465511)
(0.126275 0.000155002 -0.00111109)
(0.124094 -6.20054e-05 8.09604e-06)
(0.123058 0.000524367 0.000112206)
(0.117806 0.00081835 -0.000391561)
(0.122212 -0.00015052 -0.0002164)
(0.123399 0.000494554 0.000608572)
(0.126885 0.000922175 2.62728e-05)
(0.115981 -9.71746e-05 0.00032957)
(0.114707 -0.000423498 0.00041779)
(0.124958 0.00021457 -0.000638333)
(0.119766 3.09259e-07 -0.000341813)
(0.125065 9.29145e-05 -4.64772e-05)
(0.120438 0.000161047 -0.000508514)
(0.117633 -0.000345237 -0.000839522)
(0.123123 -0.000114642 -0.000900331)
(0.124749 0.00038182 -3.43426e-05)
(0.122694 0.000277566 0.000146183)
(0.124285 0.000997493 -0.000335956)
(0.116689 -1.99951e-06 -0.00177334)
(0.124372 0.000988154 0.000283789)
(0.124102 -0.000334653 -0.000503198)
(0.11532 0.000380969 -7.5151e-05)
(0.123744 -0.000224624 -0.000550104)
(0.123549 -0.000224608 2.152e-05)
(0.121495 -0.000216327 0.00147767)
(0.116984 -0.000595999 -0.000941854)
(0.115548 0.000299851 -0.00083359)
(0.121308 0.000303038 -0.000284114)
(0.121172 -7.84048e-06 0.000970095)
(0.121889 -0.000172165 0.000191166)
(0.121104 0.000571446 0.000142966)
(0.120526 0.000507013 0.00075984)
(0.124528 0.000103056 9.61504e-05)
(0.122085 -5.99988e-05 0.000264417)
(0.122325 0.000450446 0.000295535)
(0.117846 -0.000275426 0.000709056)
(0.125562 -6.80271e-05 -0.00101818)
(0.116267 -0.00022302 4.10131e-05)
(0.121599 0.000681909 -1.99061e-05)
(0.121126 0.000301994 -0.000115913)
(0.121531 -0.00077751 -0.00075076)
(0.123168 0.000499686 1.36458e-05)
(0.119735 -6.66493e-05 -0.00046468)
(0.11665 -0.000887576 -0.000539661)
(0.115447 -0.000214309 -0.000579994)
(0.116972 -0.000323001 -0.000300962)
(0.121274 -0.000527335 -0.000370541)
(0.123637 0.000696001 0.000223462)
(0.116168 0.000487539 0.00190475)
(0.124287 -0.00015568 -4.18828e-05)
(0.121809 -2.50873e-05 -0.000815079)
(0.125138 -0.000413232 -0.000395171)
(0.115945 5.53339e-05 -0.000762319)
(0.119543 0.000377729 0.000558603)
(0.123842 0.000266374 -0.00091984)
(0.125429 -0.000946371 -5.47352e-05)
(0.123738 0.000395685 -0.000405126)
(0.12484 -0.000230043 -0.000286328)
(0.12216 0.000157603 0.000169638)
(0.121418 0.000463899 0.000181785)
(0.12572 6.82009e-06 0.000236405)
(0.125415 0.000438498 -2.46893e-05)
(0.125159 0.000275305 7.93907e-05)
(0.118183 0.000999318 -0.000489363)
(0.125292 -0.00088913 -0.000747642)
(0.115455 -0.000293864 0.000458331)
(0.125404 0.000716487 8.80307e-05)
(0.122569 7.31313e-05 -0.000179837)
(0.121313 0.000209318 -0.000600351)
(0.116908 0.000938353 -1.64467e-05)
(0.1214 0.00115624 -0.000814654)
(0.114142 -0.000731027 -0.000840092)
(0.124403 0.000349199 -0.000642906)
(0.121886 0.00017966 -0.000274955)
(0.124546 -0.000182894 -0.000268592)
(0.120778 0.000404382 -0.000246568)
(0.120229 0.00121597 -0.000362013)
(0.116164 -0.000319873 0.000767308)
(0.126037 0.000284282 -0.000101433)
(0.117588 -0.000578036 0.0003173)
(0.114548 -0.000295742 -0.000326887)
(0.11739 -0.000195627 4.64015e-06)
(0.117714 0.000442373 0.000205533)
(0.116772 0.000736284 -0.000112632)
(0.121534 -0.000339012 9.9613e-05)
(0.116446 0.000122528 -0.000108973)
(0.123364 -0.00120451 0.000556941)
(0.123978 2.61002e-05 -0.000446803)
(0.114473 -9.78343e-05 -6.47503e-05)
(0.123452 0.000266848 -0.000183042)
(0.116592 0.000304631 -0.000765502)
(0.121063 0.000633021 -0.000212156)
(0.121824 0.000313513 -0.000200718)
(0.121568 -0.000322579 -0.000983835)
(0.124124 0.000140116 -7.29665e-05)
(0.126068 0.000301435 -0.000892873)
(0.124228 -6.75205e-05 0.000311964)
(0.123307 4.50117e-05 -6.5881e-05)
(0.123014 -0.000230205 -0.00117681)
(0.123695 0.000333381 0.000158848)
(0.120745 0.000386007 -2.42595e-05)
(0.121282 0.000445723 0.000205791)
(0.115144 0.000548299 -0.000892437)
(0.111 0.000473617 0.00356962)
(0.124724 7.40247e-05 3.60838e-05)
(0.121486 8.1701e-05 -0.000229233)
(0.124081 -0.000304073 -0.00012285)
(0.123825 -8.09086e-05 0.000260442)
(0.115665 -0.000576645 -5.51831e-05)
(0.124727 -0.000134339 -0.000278184)
(0.125045 0.000603376 0.000109751)
(0.124738 4.95754e-05 0.000152526)
(0.124667 0.00035253 0.000530159)
(0.123 0.000363327 0.000446545)
(0.122492 -0.00055525 -0.000182592)
(0.124604 -8.13293e-05 0.000142999)
(0.12559 -0.000161748 0.000598255)
(0.122681 0.000314641 0.000328254)
(0.125159 0.000318744 -0.000254194)
(0.124612 -0.000385849 -0.000439918)
(0.11822 -0.000337717 -0.000484972)
(0.124684 -0.000129173 0.00027414)
(0.118843 -0.000211784 0.000537545)
(0.121908 8.96229e-05 -0.000211027)
(0.121804 -0.000914479 0.000107651)
(0.121228 -0.000505129 0.000267539)
(0.120896 0.000710554 0.000119153)
(0.123787 0.000422069 -3.83529e-05)
(0.121221 9.53709e-05 0.000110971)
(0.122381 0.000524794 -0.000615166)
(0.121032 0.00124177 -0.000660637)
(0.115551 0.00136478 -0.000962422)
(0.125964 0.000507122 -0.000337064)
(0.123818 0.000666183 -0.000156165)
(0.120738 3.24547e-05 0.000776382)
(0.116227 -0.000412633 1.34185e-05)
(0.123994 -0.000365931 -6.45485e-05)
(0.115789 -0.00059078 -0.000553147)
(0.124923 -0.000329852 0.000124772)
(0.124506 -8.22397e-05 0.00029674)
(0.120106 0.00124617 -0.000585475)
(0.123788 -0.000325007 0.000185107)
(0.125419 0.000115327 -0.000439356)
(0.122615 -0.000490843 -0.000208665)
(0.115263 -6.55864e-05 0.000262371)
(0.121169 0.000125772 0.000301804)
(0.118618 0.000688729 -0.000391932)
(0.12154 0.00023183 -0.000273301)
(0.115706 -0.000506863 -0.00094214)
(0.123631 -0.000105402 -0.00039131)
(0.124087 -0.000472679 0.00065923)
(0.119383 0.000813485 -0.000776213)
(0.121335 0.000139908 4.79783e-05)
(0.11854 0.000177788 -0.000507179)
(0.124357 3.35299e-05 -0.000438698)
(0.12089 -0.000734054 8.6542e-05)
(0.121793 0.000511858 0.00053507)
(0.116217 -0.000184702 7.7036e-05)
(0.124496 5.99825e-06 3.24143e-05)
(0.122801 -0.00034177 -0.000121006)
(0.124706 -2.44617e-05 -0.000173156)
(0.118908 0.000490422 -0.000343775)
(0.121316 -5.2897e-05 -0.00032083)
(0.122403 0.000112985 -0.000302935)
(0.120178 -0.000208733 0.000247159)
(0.122595 -6.71201e-05 0.000373245)
(0.122098 -0.000291673 0.000611289)
(0.12415 -0.000410169 0.00012098)
(0.121515 -0.000154065 -0.000121103)
(0.116794 -1.37117e-05 -0.000197203)
(0.114741 -0.000166703 -0.000711686)
(0.123009 -0.000737356 0.000175533)
(0.115646 0.000525008 -0.00128705)
(0.119749 -0.000714357 -0.00147107)
(0.121538 0.000260045 -0.000285841)
(0.121672 0.000313543 0.00015337)
(0.125438 0.000422792 -0.00037394)
(0.115503 5.458e-05 6.29518e-06)
(0.120819 -0.00012082 -0.000716393)
(0.125897 0.000117912 -0.000459666)
(0.117142 0.000807192 -0.00285321)
(0.117318 0.00135185 7.52765e-05)
(0.120798 0.000196276 -0.000848132)
(0.11713 0.000132209 2.52172e-05)
(0.123384 0.000879059 -0.000973069)
(0.117426 -0.000336952 7.13011e-05)
(0.125354 -0.000834607 -0.000382303)
(0.119222 0.000292445 0.000473543)
(0.12049 0.000587485 0.000501674)
(0.126387 0.000479674 0.000905985)
(0.114738 -0.000118143 0.000560443)
(0.119414 8.60385e-05 0.000380521)
(0.119472 3.015e-05 0.000577137)
(0.124606 -4.07771e-05 -0.000776258)
(0.12474 3.407e-05 0.000360934)
(0.124855 4.912e-05 -0.000118354)
(0.11644 0.000769117 0.0003275)
(0.123537 0.000163003 -0.000256171)
(0.12444 7.21967e-05 0.00103099)
(0.119519 -0.000137855 -0.000272008)
(0.124585 0.000392816 -0.000117774)
(0.124024 0.000434356 0.000217454)
(0.123894 0.000389145 5.43094e-06)
(0.125123 7.0282e-05 -0.000651891)
(0.121472 7.72611e-05 -0.00014075)
(0.126077 -2.45134e-05 0.00045503)
(0.125549 0.000725541 0.000869836)
(0.124814 9.85566e-05 -0.000718459)
(0.122517 0.000483636 0.000284489)
(0.120734 -0.000260405 -0.000287839)
(0.121623 0.000439595 0.000114119)
(0.121305 0.00018407 -0.000308872)
(0.115036 -0.000933651 -0.000294749)
(0.120383 -0.000261622 0.000134461)
(0.12269 -0.000320501 0.000443165)
(0.12458 -0.000332674 -0.000289176)
(0.12537 -0.000266784 -0.000793336)
(0.120656 -0.000469044 -2.79165e-05)
(0.125982 0.00120044 -0.000250897)
(0.123653 -6.83353e-05 -6.79203e-05)
(0.119613 -0.000688581 0.000496518)
(0.124377 -0.000160582 -0.000422332)
(0.124838 5.80439e-06 -0.00021545)
(0.123524 0.000105341 -0.000622253)