/*--------------------------------*- C++ -*----------------------------------*\
| =========                 |                                                 |
| \\      /  F ield         | OpenFOAM: The Open Source CFD Toolbox           |
|  \\    /   O peration     | Version:  2212                                  |
|   \\  /    A nd           | Website:  www.openfoam.com                      |
|    \\/     M anipulation  |                                                 |
\*---------------------------------------------------------------------------*/
FoamFile
{
    version     2.0;
    format      ascii;
    arch        "LSB;label=32;scalar=64";
    class       surfaceVectorField;
    location    "0.052";
    object      Uf;
}
// * * * * * * * * * * * * * * * * * * * * * * * * * * * * * * * * * * * * * //

dimensions      [0 1 -1 0 0 0 0];

internalField   nonuniform List<vector> 
68568
(
(0.123213 0.00019144 -0.000141256)
(0.122433 0.000550183 -0.000218723)
(0.122111 0.000349142 -3.66925e-05)
(0.124789 0.000783903 -0.000389741)
(0.122336 -0.000461565 -0.000231132)
(0.122322 -0.000507867 -0.000488138)
(0.12102 -0.000473235 3.5577e-05)
(0.114561 -0.000248102 -0.000246979)
(0.123806 0.000207839 0.000334829)
(0.12353 -0.000502741 0.000758642)
(0.121967 -0.000259626 0.000122313)
(0.117928 -0.000675212 0.000781849)
(0.126129 -0.000195487 -0.00020953)
(0.124941 -7.16617e-05 -0.000464861)
(0.12591 -0.000137856 -0.000348789)
(0.126295 -0.000233051 -0.000367256)
(0.12057 -0.000209009 -0.000270474)
(0.123635 -0.000504721 -0.00031517)
(0.119911 -0.000229784 -0.000318523)
(0.123243 -0.000502612 -0.000364388)
(0.123016 -0.000204373 -2.35553e-05)
(0.121448 -0.000118304 0.000143957)
(0.123242 -0.000127173 0.000164916)
(0.115995 -0.000131527 -0.000290433)
(0.122173 -6.23583e-05 -0.000144993)
(0.117336 -0.000221961 0.000203185)
(0.119304 7.16508e-05 -0.000446103)
(0.122268 -0.000101616 -0.000220047)
(0.122051 0.000244202 0.000501955)
(0.124402 0.000115992 9.67873e-05)
(0.12308 -6.2884e-05 3.30281e-05)
(0.123536 -0.000163663 -0.000374642)
(0.122231 0.000125027 -0.000268375)
(0.122308 0.000329767 -0.000636092)
(0.124328 -0.000254449 -8.38837e-05)
(0.122903 -0.000587883 -0.000347105)
(0.124818 -0.000153616 -0.000566438)
(0.125 -0.000557764 -0.000410807)
(0.125143 0.000460159 9.3318e-05)
(0.12376 0.000293129 -3.31426e-05)
(0.124996 0.000264724 -6.46185e-05)
(0.121058 -0.000124056 -0.000531558)
(0.125367 -0.000448486 -0.000763274)
(0.124908 -0.000591719 -0.000682166)
(0.122417 -0.000291903 7.27232e-05)
(0.121283 -0.000511886 -1.3408e-05)
(0.115049 -1.91233e-05 -0.000341752)
(0.124826 -0.000186806 -0.000116994)
(0.12467 -0.000165204 0.000294247)
(0.123732 -0.000202468 0.000212838)
(0.12178 -8.83402e-05 0.000201867)
(0.119997 -0.000338121 2.04185e-05)
(0.121812 -0.000285757 -0.000105532)
(0.121025 -0.000255195 -5.98998e-06)
(0.114625 -0.000303501 -3.04314e-05)
(0.122396 -0.00046033 0.000843566)
(0.117495 -0.000408958 0.000574222)
(0.119346 -0.000417095 0.00078825)
(0.122741 -0.000340863 0.000290676)
(0.121678 0.000202807 0.000231676)
(0.12269 0.000379407 0.000246923)
(0.122175 0.000320602 0.00019157)
(0.123862 0.000135889 0.00014591)
(0.117627 0.000448685 0.000450481)
(0.11778 -0.000323771 0.000694178)
(0.121864 -5.41689e-05 0.000251012)
(0.122139 -4.59901e-05 -0.000605151)
(0.11939 -0.000469094 -3.28652e-05)
(0.118107 4.04507e-05 -0.000713406)
(0.122614 -0.000269948 -0.000348503)
(0.122145 9.29402e-06 -0.000180643)
(0.123768 -0.000313514 -6.91552e-05)
(0.123293 -0.000500449 1.01773e-05)
(0.117338 -0.000126949 -0.000104283)
(0.116928 -0.000207707 -0.000375534)
(0.11874 6.52983e-05 -0.000322387)
(0.117309 0.000262052 -0.000333215)
(0.106175 -0.00016374 -0.000467959)
(0.123909 -0.000470472 -0.000560757)
(0.125433 -0.000231157 -0.000650891)
(0.124477 -0.000346488 -0.000649623)
(0.124947 -0.000378602 -0.000754921)
(0.124294 0.000368923 -0.000227392)
(0.124398 0.000470311 -0.000116452)
(0.121983 0.000485115 1.16135e-05)
(0.125183 0.000546373 -0.000252325)
(0.118809 0.000318446 -0.000299876)
(0.119235 -0.00011228 -0.000297521)
(0.122061 0.000181492 -0.000447277)
(0.122521 6.52822e-05 -9.22427e-05)
(0.11659 -5.81368e-05 5.97395e-05)
(0.12112 -0.000169802 -0.000109242)
(0.118581 0.000209166 -0.000516481)
(0.121156 -0.00016939 0.000248536)
(0.121766 -5.79454e-05 -8.059e-05)
(0.121781 -0.000491186 0.000177345)
(0.123963 -0.000343671 0.000786002)
(0.121818 -0.00011674 -0.000326084)
(0.123325 -0.000197464 -0.000197201)
(0.116912 -0.000148799 0.000257786)
(0.124286 0.0011589 0.00038764)
(0.121883 0.00135884 -0.000357169)
(0.123919 0.001373 0.000204827)
(0.122088 0.00101174 -0.000737404)
(0.123085 0.000135454 0.000488801)
(0.116665 0.000407632 -0.00025231)
(0.118634 0.000485428 0.000183113)
(0.124886 1.89825e-05 0.000384413)
(0.123979 -0.000184982 0.000331432)
(0.124969 -9.88098e-05 0.000371399)
(0.125481 -0.000303 -0.000184376)
(0.12353 -6.20507e-05 2.57581e-05)
(0.125643 -0.00024252 -0.000143388)
(0.12297 -0.00014525 -0.000168972)
(0.121682 -0.000170804 -0.000221281)
(0.121758 -8.80635e-05 -0.000364397)
(0.117894 0.000378275 -5.37181e-05)
(0.117386 -0.000277952 0.000336233)
(0.124413 0.000315871 -0.000473277)
(0.123655 3.75303e-05 -0.000276389)
(0.12467 2.23719e-05 -0.000434167)
(0.125033 4.57484e-06 -0.000264836)
(0.118955 -0.000125063 -0.000231065)
(0.117719 -0.000247591 0.000129602)
(0.122477 -0.000196476 5.18948e-05)
(0.122676 3.26469e-06 0.000148219)
(0.119149 0.000406639 0.000307118)
(0.116723 0.00027144 0.000298071)
(0.116682 0.000158745 -5.91376e-05)
(0.107082 0.000131015 0.000277659)
(0.124862 0.000458622 -4.59965e-05)
(0.11646 -5.43881e-05 -0.000104836)
(0.116728 -0.000527677 -0.000254359)
(0.114153 -0.000285145 6.61878e-05)
(0.10638 -0.000332454 -6.25536e-05)
(0.125419 -0.000503559 0.000277151)
(0.12544 -0.000653752 0.000152804)
(0.125623 -0.000239027 0.000425384)
(0.124896 -0.000634804 0.000270656)
(0.123106 -0.000312638 0.000328917)
(0.123193 -0.000367085 0.000560615)
(0.124838 -0.000417701 0.000605222)
(0.115269 0.000567627 -0.000516437)
(0.116614 -0.000335576 -8.48668e-05)
(0.107432 4.94901e-05 -0.000140602)
(0.120318 -9.61629e-05 -8.73654e-05)
(0.117549 -0.00010454 -0.000382288)
(0.107506 0.000140949 -0.000498112)
(0.118581 -0.000267795 6.92898e-05)
(0.118602 -0.000556662 -0.000164225)
(0.119668 -0.000488187 -0.000151854)
(0.106777 -0.000367662 7.88101e-05)
(0.12458 -0.000245194 0.000182145)
(0.122328 -0.00022904 7.39264e-05)
(0.12402 -0.000350009 -0.000518956)
(0.1251 -0.000885332 -0.000442181)
(0.123693 -0.000795102 -0.000783534)
(0.1253 -0.000579626 -0.000914691)
(0.124411 -0.000600856 0.000625395)
(0.124875 -0.000772753 0.000232301)
(0.124214 -0.000363158 0.000330171)
(0.125604 -0.000674646 -0.000231853)
(0.124075 -0.000751168 -3.06927e-05)
(0.123414 -0.000444163 -0.000345646)
(0.125498 -0.000306621 -0.000515102)
(0.121148 4.22299e-05 -0.000351633)
(0.119182 0.00059983 -0.000513998)
(0.113463 -2.2409e-05 -0.000367023)
(0.122918 0.000385472 -0.000457401)
(0.123264 2.31194e-05 -0.000333966)
(0.120463 0.000246123 -0.000745364)
(0.118996 0.000133647 -0.000233724)
(0.121348 -0.00022256 0.000245462)
(0.121083 -3.44128e-06 5.21185e-05)
(0.123399 7.86512e-06 -0.000269834)
(0.122214 -0.000215031 0.000133111)
(0.124804 -0.000135936 -0.000341996)
(0.123346 -0.000324911 -0.000576478)
(0.123599 1.49874e-05 -0.000481587)
(0.125454 9.2789e-05 -0.000889456)
(0.125918 -0.00014705 -0.000437409)
(0.119207 -0.000327108 -0.00060507)
(0.116701 2.11218e-06 -0.000292375)
(0.117532 -1.69739e-05 -0.000193368)
(0.105786 -1.48806e-05 -0.000373249)
(0.123875 0.000748953 0.000209167)
(0.123114 0.000625157 0.00029844)
(0.124705 0.000705107 0.000246349)
(0.124276 0.000535945 0.00014204)
(0.115966 -0.0005045 0.00015295)
(0.107018 -0.000183683 0.000445163)
(0.120088 -0.000215385 -0.000277617)
(0.119952 -0.000485884 -1.07055e-05)
(0.12342 -0.000276317 -0.000309618)
(0.123468 -0.000388439 -7.93775e-05)
(0.120757 0.000275351 0.000172925)
(0.121436 0.000130831 0.000135909)
(0.123489 -9.05907e-05 -9.63476e-05)
(0.11867 -0.000100136 -0.000725867)
(0.117218 -9.27237e-05 -0.000325235)
(0.118899 0.000105136 -0.000123308)
(0.106843 0.000355508 -0.000240523)
(0.123753 0.000124093 0.000471331)
(0.123248 -0.000237686 0.000119389)
(0.122039 -1.69935e-05 0.000433653)
(0.117304 6.98199e-06 0.000360925)
(0.123358 -0.00026247 0.000186489)
(0.121926 8.41612e-05 0.000488016)
(0.123342 -6.41249e-05 -4.4694e-06)
(0.116181 8.98358e-05 0.000275251)
(0.11642 4.22425e-05 -0.000163175)
(0.116611 0.000525331 -0.000170921)
(0.107774 0.000207126 -0.000139154)
(0.122315 -0.00052565 -0.000556151)
(0.121981 -4.65363e-05 -0.000389042)
(0.122232 -0.000172415 -0.000224334)
(0.124307 0.000365812 8.16191e-05)
(0.122849 0.00044099 0.000148446)
(0.125084 0.000137076 -0.000168223)
(0.123546 0.000230165 -0.000231949)
(0.12204 -0.000197846 -0.000392989)
(0.119084 -0.000285873 -0.000521113)
(0.119132 -0.000271443 -0.000278762)
(0.107762 -0.000344177 -0.000184821)
(0.123233 -0.000152247 -0.000162349)
(0.123328 -1.6607e-05 5.88304e-05)
(0.115453 -3.30352e-05 -0.000277258)
(0.121734 0.000159056 9.76204e-05)
(0.122066 0.000429019 0.000245756)
(0.123663 0.000488379 0.000304646)
(0.122209 0.000454976 0.000394608)
(0.125405 -0.000175222 -0.000601757)
(0.125728 -0.000235704 -0.000495395)
(0.125609 -0.000372078 -0.000430179)
(0.125064 -0.000271491 -0.000356804)
(0.121383 0.000232799 -0.00108496)
(0.12378 0.000106864 -0.000924521)
(0.124461 -0.000351668 -0.000743809)
(0.121656 -0.000478763 3.63692e-05)
(0.123141 -0.000286788 3.85529e-05)
(0.121603 -0.000134791 0.000248371)
(0.116477 -4.67023e-05 -0.00023687)
(0.118987 -0.000964382 -0.00053731)
(0.119645 0.000304833 -0.000445901)
(0.106901 -6.57561e-05 -0.000479525)
(0.125283 0.000287709 6.74805e-05)
(0.125689 0.000228051 -0.000313978)
(0.125317 2.22969e-05 -9.18601e-05)
(0.125907 6.40312e-05 -0.000470087)
(0.124319 0.000299738 0.000144882)
(0.122071 0.000301503 0.00023946)
(0.123396 0.000114055 0.00028197)
(0.12343 0.000188064 -6.49705e-05)
(0.119181 0.000166332 -0.0011983)
(0.11856 0.000281783 -0.000560097)
(0.120323 0.000145662 -0.000865518)
(0.110199 -0.000610622 -0.000857675)
(0.122386 -0.000281122 -0.000669066)
(0.122479 -0.000310682 -0.000882779)
(0.124676 -0.000314408 -0.000480175)
(0.124297 -0.000272656 -0.000624604)
(0.123813 -0.000285132 -0.000201446)
(0.122023 -0.000413856 -0.000368003)
(0.122038 -1.60186e-05 -8.44991e-05)
(0.116817 3.99268e-05 -0.000612486)
(0.124017 0.00070316 0.000308536)
(0.123502 0.000746995 7.09399e-05)
(0.122405 0.000508098 -0.000100773)
(0.116852 3.26119e-05 -0.00063511)
(0.116326 0.000205994 -0.000389997)
(0.118305 0.000380715 -0.000636281)
(0.106178 0.000431178 -0.000118448)
(0.124411 -0.000588045 -0.000112654)
(0.12403 -0.000599127 0.000159376)
(0.125653 -0.000491895 7.16266e-05)
(0.119633 0.00106809 -0.000613182)
(0.123223 -3.96833e-06 -0.000437657)
(0.122625 0.00013122 -0.000449301)
(0.121581 -0.000318632 0.000526062)
(0.122074 -3.82811e-05 0.000271372)
(0.122536 -1.57071e-06 0.000373877)
(0.115464 -0.000155654 0.00036317)
(0.118993 -0.000235763 -0.00013832)
(0.124306 -4.83291e-05 9.64449e-05)
(0.122 0.000214325 0.000101792)
(0.124253 0.000426859 -8.18827e-05)
(0.117175 0.000307843 -0.00035823)
(0.121366 -0.000175111 -0.00014504)
(0.121638 -8.21278e-05 -2.19424e-05)
(0.113898 -0.000168627 -0.000341345)
(0.115064 -0.000122399 0.00025245)
(0.114699 -0.000405736 9.99977e-05)
(0.106929 -0.000265698 0.000122929)
(0.125598 -8.56621e-05 0.000206309)
(0.123525 -0.000157125 -0.000119598)
(0.125505 -0.000365693 0.00017899)
(0.1246 -0.00057769 0.000222945)
(0.124316 -0.000492265 -0.000325231)
(0.123839 -3.01434e-05 -0.000184469)
(0.123637 -8.0812e-05 -0.000315466)
(0.115978 -0.000153618 9.29012e-06)
(0.121284 -0.000325626 -8.88906e-05)
(0.12348 -0.000346709 -0.000110443)
(0.123994 -0.000164953 -0.0001732)
(0.12126 -2.41405e-06 0.000139009)
(0.125408 -0.000245256 -0.00015838)
(0.123265 -0.00018602 -0.000311386)
(0.123473 1.14928e-05 1.5089e-05)
(0.125379 -0.000317286 -6.4966e-05)
(0.125428 -2.75018e-05 0.000198812)
(0.12496 -0.000245835 2.53802e-05)
(0.125759 -0.000213326 -0.000161683)
(0.123566 -0.00016951 -0.000279532)
(0.123274 -0.000287465 -0.000502015)
(0.125294 -0.000119537 -0.000633944)
(0.11668 0.00139872 -0.000973537)
(0.120124 0.000118331 -0.00139258)
(0.118948 0.000555823 -0.000895641)
(0.104535 4.18765e-05 -0.000347068)
(0.124002 -0.00012914 -0.000267683)
(0.12399 -0.00023464 -0.000335719)
(0.125413 -0.000163655 -0.000569396)
(0.12242 -0.000307319 0.000194996)
(0.124212 -0.000239494 3.97437e-05)
(0.115919 -0.000112438 -0.000112275)
(0.119365 -0.00030123 2.32723e-06)
(0.118846 -2.11649e-05 3.00242e-05)
(0.122483 -0.000333728 0.000266607)
(0.122286 -0.000388013 -0.000126335)
(0.118249 -0.000397351 -0.00105748)
(0.118861 -0.000572949 -0.000194721)
(0.10597 -0.000386145 -0.000206713)
(0.119585 0.000568543 -0.000854024)
(0.121564 0.000338191 -0.000994053)
(0.114499 -0.000262442 -0.000498756)
(0.118231 -0.000623079 -9.2191e-05)
(0.121748 -0.000711931 -0.000182219)
(0.117792 -0.000474172 -0.000468618)
(0.121526 -0.000478663 -0.000254165)
(0.122852 0.000399777 0.000190809)
(0.122625 0.000763532 3.4209e-05)
(0.120618 0.00106327 0.000621847)
(0.11684 0.000531274 0.000442872)
(0.120908 0.000262936 -0.000290568)
(0.121861 -7.85374e-05 -0.000289071)
(0.124046 0.000217463 -0.000148732)
(0.124322 -0.000296584 -8.59247e-05)
(0.123863 -0.00025406 -2.3508e-05)
(0.115734 -0.000232036 -2.46429e-06)
(0.121394 7.72204e-05 0.000392609)
(0.120867 0.000380443 0.000331652)
(0.122492 6.41878e-05 0.000317919)
(0.115279 4.98963e-05 -0.000124487)
(0.117869 -0.00102881 0.000129642)
(0.118341 -0.000462195 -5.17338e-05)
(0.117203 -0.00120087 -0.000415508)
(0.106351 -0.00083606 0.000164049)
(0.123256 0.000414923 0.000301561)
(0.123523 4.14852e-05 0.000265285)
(0.12154 0.000382646 -0.000174827)
(0.123725 3.89059e-05 -0.000148281)
(0.123306 0.000140047 0.000254196)
(0.121555 -9.74697e-05 0.000501429)
(0.121353 0.000530389 0.000438654)
(0.119766 -0.000446477 -0.000422334)
(0.114879 -3.06795e-05 -0.000152158)
(0.116596 -3.7705e-05 -0.00022137)
(0.118571 -0.000378242 -0.00033244)
(0.117601 0.000152073 -0.00036975)
(0.106784 -4.41954e-05 8.8955e-05)
(0.119101 -5.00588e-05 -0.000299323)
(0.10623 -2.07678e-05 -0.000327033)
(0.123676 -0.000445604 -3.39542e-05)
(0.12571 -0.00022754 0.000269351)
(0.125804 -0.000313246 -0.000119051)
(0.108069 -4.92162e-06 0.000244572)
(0.117458 -0.000720074 -0.000737646)
(0.118724 -0.000554212 -0.000300936)
(0.118203 -0.000977724 -0.000713509)
(0.105633 -0.000419056 -0.00102013)
(0.117276 0.000638113 -0.000228101)
(0.121028 0.000389823 -0.000108537)
(0.116563 -0.000515912 0.00073136)
(0.115285 -0.000140035 0.000344845)
(0.117323 9.70483e-05 0.00072301)
(0.106466 -0.000439553 0.0003231)
(0.12404 -0.00123308 0.000389666)
(0.121463 -0.0012689 0.000674642)
(0.121899 -0.00116095 0.000511425)
(0.123996 -0.0011856 0.000232343)
(0.120476 -0.000392028 -0.000673549)
(0.119244 -0.000332503 -0.000253635)
(0.118314 -0.000167078 -0.000265313)
(0.106056 0.000140726 -0.000303067)
(0.123058 0.000432841 -4.2809e-05)
(0.121949 0.000291306 -0.000104339)
(0.122597 -0.000373481 -5.66424e-05)
(0.117236 0.00020274 -0.000310554)
(0.11923 -0.000507575 -0.000468544)
(0.119162 -0.00051624 -0.000628566)
(0.122235 -0.000574782 -0.000599721)
(0.123172 5.14658e-05 -0.000732791)
(0.122959 0.000134085 -0.000750335)
(0.121767 5.33887e-05 -0.000740884)
(0.115101 0.000400094 -0.000845359)
(0.118231 -9.03949e-05 5.82091e-05)
(0.116356 -0.000445197 7.8501e-05)
(0.117388 -0.000613253 0.00045206)
(0.106254 -0.000454896 -6.055e-05)
(0.123126 0.000614398 0.000404185)
(0.118927 0.000492895 -0.000275361)
(0.118731 -0.000287475 -4.38334e-05)
(0.122762 -0.000823812 -0.000115806)
(0.118861 -0.000554437 -2.78394e-05)
(0.122531 -0.000740061 0.000229009)
(0.123464 0.000144962 0.000261325)
(0.123101 0.000111891 0.00012185)
(0.123404 0.000107626 8.55121e-05)
(0.122957 6.08858e-05 0.000191813)
(0.123138 -0.000312034 -7.78672e-05)
(0.116311 -0.000319511 5.62052e-05)
(0.122229 -0.000354632 -0.000342514)
(0.122728 -3.77839e-06 -0.000560299)
(0.124151 8.11555e-05 -0.000322416)
(0.121899 -0.000215799 -0.000150568)
(0.122461 -0.000311145 0.000281244)
(0.124337 -0.000144914 0.000119376)
(0.125107 -0.000324711 7.86618e-05)
(0.123084 -6.27312e-05 -0.000598971)
(0.122981 -9.34645e-05 -0.000492079)
(0.125428 -2.90249e-05 -0.000621103)
(0.121966 0.00025912 -0.000503949)
(0.123894 0.000199782 -0.000363)
(0.124279 -0.000238814 -0.000718045)
(0.120279 -0.000822374 -0.000237145)
(0.125114 4.4853e-05 -0.000650742)
(0.122725 -0.000524267 0.000283325)
(0.12448 7.32361e-05 0.000453988)
(0.124349 -0.000112355 0.000192467)
(0.124503 -0.000368639 0.000208094)
(0.122408 8.54051e-05 0.000204774)
(0.123245 -0.000175845 0.000333481)
(0.115134 -3.94169e-05 0.000130609)
(0.117337 -0.000109156 -0.000601401)
(0.117399 -0.000353116 -0.000265527)
(0.118075 -0.000748884 -0.000377704)
(0.121526 -0.000674536 -0.000435508)
(0.122113 -0.000528364 -0.000445842)
(0.122647 -0.000394008 0.000248183)
(0.122379 -0.000322165 2.36198e-05)
(0.124918 -0.000246733 -0.000258992)
(0.124878 -0.000226073 8.46674e-05)
(0.123959 6.82329e-05 -0.000173375)
(0.122397 -0.000177293 -0.00038758)
(0.121958 0.000250583 -7.9286e-05)
(0.123948 0.000409011 5.60267e-05)
(0.123605 0.000270238 -0.000441491)
(0.125172 -9.00695e-05 -0.000757327)
(0.124186 3.43944e-05 -0.000285427)
(0.125053 -0.000228888 -0.000660312)
(0.12371 -0.000531079 -6.55472e-05)
(0.122576 -0.000364822 -4.66174e-05)
(0.121258 -0.00104235 0.000192522)
(0.124168 -0.000769646 8.21966e-05)
(0.123676 -0.000157964 8.13338e-05)
(0.119903 -0.000173918 -0.000339156)
(0.124506 -0.000197871 2.52077e-05)
(0.11976 8.11e-05 -0.000704858)
(0.124688 -3.41003e-05 1.90872e-06)
(0.125477 -0.000205392 -0.000411988)
(0.124285 -3.43124e-05 -0.000234975)
(0.12369 -4.51347e-05 0.000344746)
(0.11545 -1.1425e-05 -8.21059e-05)
(0.116745 -0.000242355 -0.000424465)
(0.107678 -0.000104686 -0.000257175)
(0.117358 -0.000648527 -0.000950197)
(0.106148 -0.000292157 -0.00025251)
(0.125392 0.000205455 0.000748025)
(0.123178 0.000220216 0.000226289)
(0.121761 -0.000573431 -0.000479713)
(0.1154 -0.000359886 -0.000366216)
(0.123279 -0.000234857 -0.000808723)
(0.12296 -0.00023572 -0.000617832)
(0.121598 -0.000378178 -0.00031105)
(0.114874 -0.000363715 -0.000422998)
(0.125012 0.000306124 0.00073535)
(0.125057 0.000116415 0.000779367)
(0.125196 0.000193021 0.000656778)
(0.124176 0.000360929 0.000727185)
(0.123098 0.000611512 0.000352028)
(0.123265 0.000310554 0.000245525)
(0.124667 0.000383059 0.000299518)
(0.116429 -0.000246589 -0.000416954)
(0.11836 -9.58132e-05 -0.000224594)
(0.105755 -0.000356814 -0.000422445)
(0.119327 0.000243193 -0.000339035)
(0.117954 -0.000120135 -0.000254469)
(0.117283 0.000312539 -0.000326343)
(0.106741 -5.93839e-05 -0.000709808)
(0.124741 -0.000142412 0.000109289)
(0.123145 -0.000288169 -0.000400647)
(0.124752 -0.000455329 -9.61092e-05)
(0.121796 2.95197e-05 -0.000159948)
(0.123561 -8.72218e-05 -0.000251746)
(0.117778 -0.000363662 -0.000503294)
(0.118519 -0.000213937 -0.000621966)
(0.106567 -0.000397774 -0.000382333)
(0.119347 -0.000360927 -0.000116459)
(0.116957 -9.55547e-05 2.73001e-05)
(0.1165 1.75042e-05 0.000283326)
(0.107694 -0.000107498 0.00016283)
(0.1254 -0.000710694 0.000254937)
(0.123404 -0.000438238 0.000534186)
(0.123237 -0.000485778 0.000150121)
(0.125235 -0.000460638 -9.74278e-06)
(0.118906 -0.000118979 -0.00133958)
(0.118637 -1.65986e-05 -0.000898698)
(0.121812 -0.000279393 -0.000875992)
(0.106841 -0.000322777 -0.00119304)
(0.121617 0.000157222 0.000153654)
(0.122038 -0.000422625 0.000198562)
(0.122355 -0.000173359 0.000165454)
(0.11579 -0.000407618 0.00021837)
(0.119345 -0.000760904 -0.000470587)
(0.122895 -0.000430417 -0.000667993)
(0.1227 -0.000171621 -0.000866168)
(0.123317 -8.922e-05 -7.93417e-05)
(0.125108 -0.000145819 0.000128111)
(0.124121 0.000110703 0.000404972)
(0.120147 0.000156363 -0.00121546)
(0.117533 0.000400658 -0.000892203)
(0.119543 0.000821814 -0.000908922)
(0.105172 -0.000418832 -0.000915155)
(0.126437 -8.04511e-05 5.98446e-05)
(0.126099 -0.000272202 -3.42766e-05)
(0.124522 3.0808e-05 -7.81331e-05)
(0.12618 2.38388e-05 -2.54823e-05)
(0.124353 -0.000203746 -0.000458815)
(0.121444 -0.000204244 -0.000306735)
(0.120856 -9.62876e-05 -0.000727018)
(0.124024 -0.000315664 -0.000199666)
(0.120134 -0.00102869 -0.00038116)
(0.1205 -0.000951766 -7.21429e-05)
(0.106624 -0.000292471 -0.000555683)
(0.118909 -0.000669818 0.000949084)
(0.117685 -0.00028859 0.000972164)
(0.119585 -0.000538007 0.000713566)
(0.105206 0.000113784 0.000188686)
(0.122437 -0.000333181 4.02229e-05)
(0.117121 -0.000289337 7.18892e-05)
(0.119592 -0.000293949 -0.000709556)
(0.126113 -0.000211757 -0.000209138)
(0.124385 -0.000190316 -0.000342408)
(0.117425 0.000283278 0.000220682)
(0.116472 0.000155015 0.000258719)
(0.118513 -0.000138915 -0.000202143)
(0.105488 -0.00016076 0.000161235)
(0.11993 -0.000162423 -0.000799668)
(0.119731 0.000422233 -0.00053194)
(0.106748 -0.000401989 -0.00090888)
(0.116932 -0.000205171 0.000319087)
(0.119576 -0.00012066 0.000298131)
(0.117273 -0.000569031 0.000122256)
(0.107307 -0.000332558 0.000104707)
(0.116935 -0.00101657 -0.0004436)
(0.120126 -0.000654806 0.000209336)
(0.118072 -0.000993193 -0.000257584)
(0.104954 -0.000513979 -0.000403677)
(0.119835 0.000611226 -0.000612063)
(0.121374 0.000338835 -9.75112e-05)
(0.121785 0.000158468 -0.000434131)
(0.114652 0.000423256 -0.000356753)
(0.118097 0.000293871 0.000213592)
(0.117229 0.000240711 0.000361598)
(0.107291 -2.26982e-05 0.000275278)
(0.124891 -0.000525872 -4.53252e-06)
(0.124436 -0.000348253 0.000154488)
(0.125327 -0.000494076 -1.14115e-05)
(0.124926 -0.000444726 0.000184921)
(0.123143 -0.000349355 0.000237374)
(0.123359 -0.000264023 1.41535e-05)
(0.125431 -0.000336957 0.00031087)
(0.125702 -0.000347472 0.000258124)
(0.115813 0.000165814 -0.00115087)
(0.115914 0.000118514 -0.000485199)
(0.118084 0.000228189 -0.00084042)
(0.108184 -0.000252473 -0.000587483)
(0.118733 -0.000454099 0.000562163)
(0.118819 -0.00143933 -0.000189107)
(0.119226 -0.000761365 0.000204484)
(0.110793 -0.000606822 -5.18491e-05)
(0.120592 0.000987684 -8.24353e-05)
(0.12263 0.000632488 -0.00034351)
(0.122655 0.000590524 -0.000597102)
(0.11645 0.00024456 -0.000617008)
(0.119145 8.80689e-05 0.000151423)
(0.116467 -3.58233e-05 -2.66149e-05)
(0.115799 -0.000193127 -0.000204704)
(0.107176 0.000211771 -6.98708e-05)
(0.123489 -5.76556e-05 0.000484103)
(0.116602 4.72002e-05 -3.02974e-05)
(0.123787 -0.000524863 -0.00036868)
(0.125011 -0.000145727 -0.000359564)
(0.123977 -0.000153186 -0.000241094)
(0.12396 -0.000164355 -0.000314518)
(0.121885 0.000422445 0.000107822)
(0.120638 0.00031862 0.000229679)
(0.116247 0.000432357 0.000324415)
(0.124483 0.000212327 -9.40696e-05)
(0.123435 0.000271905 0.000356795)
(0.124144 0.000188191 0.000199688)
(0.124145 0.000366392 0.000313199)
(0.123879 -0.00015631 -7.50906e-05)
(0.123844 -0.000481734 -0.000162006)
(0.115807 -0.000278996 -0.000145298)
(0.121999 -0.000296081 -0.000155498)
(0.120643 -0.000420867 9.44112e-05)
(0.121953 -0.000446445 0.000197641)
(0.113804 -0.000191959 -0.000233724)
(0.122026 -2.58078e-05 8.93782e-06)
(0.122391 0.000239283 0.000119244)
(0.11536 0.00017854 0.000271609)
(0.118314 -0.000476437 0.000662156)
(0.122236 -0.000509926 0.0003907)
(0.122499 -0.000744268 0.000643769)
(0.119961 -3.55027e-05 0.000257155)
(0.121554 -0.000341368 -0.000104785)
(0.121787 -0.000339249 0.000107261)
(0.115256 -0.000185466 0.000209992)
(0.118561 0.000342927 -0.00017549)
(0.115808 0.000195142 -0.000530739)
(0.106034 0.000857053 -0.000526747)
(0.123796 -0.000282187 -3.98675e-05)
(0.125245 -0.000307878 -9.75213e-05)
(0.125874 0.000280803 -0.000182438)
(0.122099 6.27533e-05 0.000433238)
(0.122806 3.83542e-06 0.000608297)
(0.115195 -0.000315635 0.000797988)
(0.124108 0.000256343 5.34539e-05)
(0.124786 -0.000108581 7.1874e-05)
(0.124631 0.000210264 -0.000107875)
(0.124874 0.000220608 -8.84587e-05)
(0.118825 -8.36258e-05 -7.38902e-05)
(0.119607 -0.00014791 0.000206966)
(0.118954 -0.000371346 3.27269e-05)
(0.105918 0.000109893 0.000134535)
(0.11657 4.25592e-05 0.000424691)
(0.116385 -0.000192597 0.000436553)
(0.117851 -8.0809e-05 0.000653879)
(0.106207 -0.00024609 0.000385286)
(0.123678 -0.000303872 -0.000229041)
(0.1245 -0.000140047 0.000258333)
(0.125372 -0.000430573 2.3385e-05)
(0.125042 -8.45128e-05 0.000226762)
(0.123549 -0.000375138 -0.000362727)
(0.124765 7.12841e-05 -0.000489321)
(0.123103 0.000193354 -0.000363524)
(0.120739 -0.000253943 0.000711719)
(0.122948 -0.000309 0.000137588)
(0.122565 -0.000176457 0.000243053)
(0.121288 -0.000236534 0.000785258)
(0.121073 -9.85748e-05 0.000183679)
(0.122928 -0.00040617 9.41608e-05)
(0.115771 -0.000123933 0.000318176)
(0.123352 -0.000388691 -0.000710327)
(0.123517 -0.000102215 -0.000626139)
(0.12121 -0.000181625 -0.00034879)
(0.115321 0.000123287 -0.000627616)
(0.123189 -0.000207578 -0.000835738)
(0.119397 -0.000281492 -0.000781786)
(0.12306 2.40449e-05 -0.000701927)
(0.119152 0.000380992 0.00029732)
(0.122913 0.000530915 0.000445517)
(0.120176 0.00025577 0.000650443)
(0.123343 0.000371825 0.000250867)
(0.124689 0.000293314 -0.000558883)
(0.121723 0.000430514 -0.000550491)
(0.122383 -9.55301e-06 -0.00079764)
(0.119324 -5.1327e-05 -5.52592e-05)
(0.106786 -0.000197338 -0.000355218)
(0.118518 -2.7713e-05 -8.36582e-05)
(0.121907 -0.000272733 -9.82415e-05)
(0.125312 0.000184191 0.000180305)
(0.12508 -0.000161363 0.000119892)
(0.124719 3.52532e-05 0.000388816)
(0.125148 -0.000106251 0.000473982)
(0.123894 -0.000506902 0.000198463)
(0.124023 -0.000604555 8.77154e-05)
(0.123718 -0.000436112 0.000130482)
(0.123955 -0.000497598 -4.13635e-05)
(0.124228 -0.000327849 0.000249232)
(0.123835 -0.0005548 0.000214796)
(0.122102 -0.00037693 0.000534567)
(0.120219 -0.00133863 -0.000139923)
(0.122874 -0.00140784 -0.000446197)
(0.121852 -0.00104091 -0.000669936)
(0.120201 -8.16027e-05 -0.000284566)
(0.119857 0.000337187 -0.000481863)
(0.115378 0.00010798 0.000304406)
(0.123647 4.56367e-05 -0.000439072)
(0.116489 -0.000229071 -0.000334466)
(0.120187 0.000563917 -0.000542901)
(0.1204 0.00064214 -0.000768154)
(0.121691 0.000190181 -0.000587482)
(0.114764 -0.000109288 -0.000527793)
(0.124956 0.000219044 -0.000421109)
(0.123334 0.000339508 -0.000460795)
(0.123935 0.000140574 -0.000658452)
(0.106841 8.39958e-05 -0.000185432)
(0.121662 0.000122876 -0.000285525)
(0.116115 -0.000128555 -0.000169606)
(0.119435 0.000162501 -4.45085e-05)
(0.12241 0.000120083 0.000289718)
(0.119043 0.000172903 -0.000153953)
(0.122695 0.000478034 5.0391e-05)
(0.123085 9.08105e-05 -0.000206619)
(0.122519 9.24843e-05 -0.000403117)
(0.1216 0.000101344 -3.85242e-05)
(0.117263 0.000348054 -0.000242946)
(0.125169 -0.000131158 -0.000419003)
(0.12347 -0.000217655 -0.000586915)
(0.124704 -0.00031199 -0.000558312)
(0.12329 -0.000493544 -0.000382201)
(0.122945 -0.000667303 -0.000451066)
(0.125046 -0.000528951 -0.000254856)
(0.12411 -0.000544539 -0.000115223)
(0.124643 0.000122337 -0.000413176)
(0.124912 -0.000131439 -0.000284446)
(0.117881 -0.000699264 -0.000427262)
(0.118986 -0.000904492 -0.00045203)
(0.105812 -5.67129e-06 -0.000402446)
(0.121468 -0.000856809 0.000302812)
(0.122063 -0.000289988 9.90306e-05)
(0.125068 -0.000386511 -0.000157649)
(0.122479 -0.000190124 -0.000271859)
(0.125271 -0.000408424 -0.000236702)
(0.124517 -8.71191e-05 0.000270749)
(0.124322 4.49617e-05 -6.78079e-05)
(0.123632 0.00028053 0.000283359)
(0.119997 -0.000313573 -0.000500426)
(0.124038 -0.000365607 -0.000615623)
(0.114163 8.58873e-05 9.83998e-05)
(0.116399 -0.000359131 0.000666543)
(0.115975 -0.000561662 0.000231029)
(0.104107 -0.00060167 0.000314351)
(0.123312 -0.000309859 -8.20949e-05)
(0.122186 -0.000425264 0.000361387)
(0.116694 -0.00028815 0.00101726)
(0.116642 -0.00115989 -0.000334612)
(0.107579 -0.00068034 -0.000184475)
(0.12165 0.000339084 -0.000121756)
(0.121949 0.000458254 0.000292244)
(0.103314 0.000145364 -0.000227235)
(0.12267 -0.000203437 0.000333961)
(0.125247 -0.000371129 0.000265302)
(0.117469 -0.000462473 0.00038931)
(0.12031 0.000321591 0.000372557)
(0.121146 -0.000453739 0.000128813)
(0.118153 0.000521562 -0.000229635)
(0.118312 0.000225811 -0.000250163)
(0.118791 0.000462818 -0.000602521)
(0.105761 2.06437e-05 -9.46062e-05)
(0.122621 -3.34723e-05 9.94401e-05)
(0.121941 9.1679e-06 6.53491e-05)
(0.121443 1.73565e-06 0.000171013)
(0.12378 0.000814376 -0.00033014)
(0.124684 0.000880282 -0.000292369)
(0.121708 0.000170994 -0.000230244)
(0.122591 0.000129238 -0.000400259)
(0.124768 -0.000771839 -0.000147215)
(0.124243 -4.569e-05 0.000302544)
(0.119133 -0.000566941 -5.66166e-06)
(0.118908 -0.000318824 -9.36855e-05)
(0.105042 -0.000360501 0.000161115)
(0.117634 -0.000976635 0.000318072)
(0.11618 -0.000656126 0.000725505)
(0.107076 -0.000628831 0.000250583)
(0.123995 -0.0005876 0.000399227)
(0.122222 -7.41951e-05 0.000619343)
(0.12332 -0.000432202 0.000690345)
(0.121905 -0.000235519 0.000128595)
(0.124584 6.90455e-05 -0.000634986)
(0.125341 -5.5463e-05 -0.000595922)
(0.123114 9.5323e-05 -0.00040338)
(0.118279 0.000500846 0.00013609)
(0.119205 7.90049e-05 7.89469e-05)
(0.104809 0.00028191 -0.000523337)
(0.124647 -0.000582508 0.000129213)
(0.124563 -0.000593825 0.000401249)
(0.124474 -0.000361415 0.000286394)
(0.121191 -0.00013206 -0.000185406)
(0.118829 2.75203e-05 -0.000493277)
(0.107356 -0.000108117 -0.000359415)
(0.116661 -0.000280308 0.000255962)
(0.116661 -0.000560977 8.36491e-05)
(0.107679 -0.000343634 -4.17286e-05)
(0.12119 0.000256255 -0.000488996)
(0.120776 0.000232742 -0.000356168)
(0.122437 0.000329876 -0.000197393)
(0.115736 -0.000234567 -0.000391152)
(0.122033 -0.000396526 -0.000303438)
(0.123888 -0.000578426 0.000104394)
(0.121757 -0.000302497 0.000511221)
(0.123385 -0.000426051 0.000105009)
(0.119876 -0.00122847 0.000183812)
(0.121586 -0.000912856 -3.71618e-05)
(0.121843 -0.000748471 -0.000134222)
(0.114126 -0.000893971 -0.000258787)
(0.116838 -0.000365636 0.000613698)
(0.120977 1.0275e-05 0.000584721)
(0.119629 0.000139031 0.000200692)