/*--------------------------------*- C++ -*----------------------------------*\
| =========                 |                                                 |
| \\      /  F ield         | OpenFOAM: The Open Source CFD Toolbox           |
|  \\    /   O peration     | Version:  2212                                  |
|   \\  /    A nd           | Website:  www.openfoam.com                      |
|    \\/     M anipulation  |                                                 |
\*---------------------------------------------------------------------------*/
FoamFile
{
    version     2.0;
    format      ascii;
    arch        "LSB;label=32;scalar=64";
    class       volScalarField;
    location    "0.056";
    object      epsilon;
}
// * * * * * * * * * * * * * * * * * * * * * * * * * * * * * * * * * * * * * //

dimensions      [0 2 -3 0 0 0 0];

internalField   nonuniform List<scalar> 
31639
(
0.23689
0.237765
0.23893
0.232105
0.243151
0.242453
0.248705
0.238817
0.23912
0.233546
0.236017
0.234006
0.235856
0.232254
0.23773
0.251053
0.23831
0.245845
0.246656
0.240296
0.264628
0.235496
0.233373
0.246273
0.251342
0.239983
0.239249
0.194932
0.246948
0.234607
0.232854
0.248155
0.23175
0.250783
0.260472
0.234497
0.266691
0.233842
0.234022
0.27657
0.257439
0.263044
0.232417
0.236935
0.237494
0.233481
0.239621
0.243156
0.236908
0.232512
0.233762
0.270035
0.234276
0.270142
0.244383
0.240607
0.266019
0.238984
0.237336
0.263452
0.239071
0.238686
0.253831
0.240256
0.237089
0.232006
0.238103
0.237198
0.258631
0.232278
0.233747
0.240777
0.233553
0.237832
0.234178
0.26214
0.23272
0.244801
0.237394
0.236592
0.251346
0.277007
0.233193
0.236516
0.233807
0.233736
0.232422
0.232609
0.256025
0.232319
0.237289
0.241135
0.261388
0.238268
0.250357
0.240004
0.240642
0.237928
0.237213
0.263787
0.233689
0.234846
0.236978
0.264231
0.262288
0.233236
0.26602
0.270813
0.250835
0.269221
0.232895
0.263496
0.240597
0.245851
0.236627
0.268885
0.245353
0.246207
0.238829
0.238165
0.2371
0.234306
0.233757
0.238362
0.241589
0.234539
0.2389
0.250616
0.25166
0.233011
0.231636
0.232542
0.233223
0.247145
0.235873
0.236873
0.261933
0.266599
0.233751
0.237797
0.238131
0.233562
0.23378
0.266356
0.272737
0.233151
0.235534
0.261628
0.260699
0.233492
0.257218
0.241942
0.246876
0.236936
0.261786
0.232568
0.240773
0.260167
0.259879
0.248093
0.23327
0.263092
0.256366
0.26675
0.266668
0.238319
0.263231
0.233848
0.234177
0.262752
0.239811
0.240818
0.261886
0.236144
0.232364
0.235237
0.237097
0.234284
0.236254
0.235625
0.238383
0.243897
0.238144
0.273256
0.241501
0.233179
0.237575
0.233456
0.265784
0.265979
0.237297
0.236758
0.2376
0.238616
0.237801
0.245804
0.247184
0.233047
0.263382
0.244563
0.234801
0.233842
0.233078
0.233213
0.243865
0.2385
0.239297
0.237249
0.235466
0.274287
0.238866
0.245543
0.237407
0.235682
0.241047
0.232477
0.260785
0.249271
0.237622
0.234745
0.233661
0.243424
0.263683
0.244447
0.264614
0.245862
0.235906
0.252524
0.261966
0.238307
0.236684
0.233703
0.258828
0.268629
0.237894
0.23628
0.262946
0.232793
0.256407
0.265693
0.238283
0.237555
0.23922
0.252799
0.254735
0.239203
0.237444
0.239185
0.261564
0.238044
0.238293
0.263856
0.252852
0.234325
0.235806
0.247519
0.26084
0.234083
0.235072
0.247877
0.231997
0.233056
0.24087
0.233552
0.2389
0.245053
0.26305
0.248712
0.231597
0.238357
0.225575
0.248354
0.242813
0.239822
0.232388
0.242196
0.264066
0.245048
0.253946
0.233724
0.244479
0.234772
0.233203
0.246904
0.260373
0.258584
0.260253
0.270451
0.233203
0.256738
0.238729
0.238211
0.24791
0.258347
0.2347
0.247738
0.25725
0.235533
0.242023
0.257076
0.238917
0.256884
0.2382
0.238414
0.262752
0.245104
0.239358
0.272677
0.269052
0.233599
0.232438
0.225578
0.265046
0.261903
0.234139
0.25609
0.251139
0.234457
0.236809
0.239569
0.234731
0.232416
0.260754
0.232218
0.269492
0.270422
0.237034
0.234066
0.233402
0.23262
0.236598
0.257691
0.237012
0.237979
0.234679
0.235396
0.232177
0.23881
0.23972
0.238712
0.233614
0.236004
0.239065
0.24138
0.237615
0.242579
0.236498
0.23806
0.26156
0.241345
0.232635
0.244898
0.236572
0.232305
0.238681
0.263186
0.238796
0.238624
0.265277
0.235758
0.259568
0.240833
0.228253
0.271154
0.238416
0.239216
0.262549
0.23953
0.259764
0.242235
0.234904
0.240297
0.26988
0.237762
0.259161
0.237804
0.233669
0.235361
0.237098
0.259778
0.233748
0.264167
0.238538
0.269655
0.232672
0.233217
0.232891
0.232709
0.248697
0.23709
0.238005
0.237922
0.238805
0.265133
0.241032
0.235896
0.234756
0.235011
0.240427
0.235126
0.243816
0.262844
0.245202
0.236764
0.234931
0.270688
0.233487
0.233613
0.239159
0.234077
0.233574
0.24285
0.232896
0.252835
0.237618
0.234592
0.268021
0.240199
0.237561
0.259863
0.263795
0.263431
0.249636
0.266944
0.240158
0.229875
0.248883
0.236801
0.262867
0.234077
0.232657
0.238485
0.23571
0.244412
0.23494
0.24039
0.244962
0.232445
0.237161
0.263178
0.238343
0.234512
0.233204
0.237495
0.233009
0.239526
0.237006
0.236758
0.234385
0.237005
0.261188
0.24062
0.27167
0.251053
0.238559
0.265011
0.271789
0.246898
0.235917
0.235014
0.262911
0.237226
0.250879
0.23798
0.237454
0.216949
0.238588
0.270987
0.238737
0.233179
0.233467
0.234866
0.244583
0.26328
0.238539
0.236816
0.233548
0.267904
0.264217
0.23861
0.264406
0.258455
0.23867
0.267986
0.244782
0.255203
0.238971
0.262733
0.232541
0.234226
0.233658
0.233758
0.255924
0.233103
0.233777
0.239055
0.236443
0.237123
0.232788
0.238242
0.250149
0.235011
0.232995
0.237884
0.248055
0.232658
0.237991
0.270569
0.271842
0.238655
0.236411
0.232559
0.240947
0.237891
0.239319
0.233767
0.238622
0.245835
0.242136
0.259854
0.238794
0.240743
0.233618
0.259089
0.255354
0.256717
0.240369
0.238131
0.269774
0.23826
0.250931
0.236854
0.242521
0.233457
0.243951
0.261663
0.236147
0.23168
0.256227
0.234591
0.227573
0.229789
0.23954
0.195506
0.256951
0.238053
0.238369
0.260118
0.261336
0.23806
0.237459
0.236989
0.25688
0.243625
0.233669
0.238664
0.261947
0.254204
0.23788
0.23302
0.264756
0.271769
0.235646
0.265702
0.236744
0.233954
0.264495
0.237474
0.238148
0.244995
0.268908
0.23305
0.244977
0.258876
0.232748
0.23654
0.239563
0.234404
0.270245
0.248697
0.240773
0.246823
0.257817
0.247932
0.240311
0.232799
0.234922
0.235024
0.232829
0.23485
0.251877
0.233899
0.235312
0.235788
0.255203
0.237936
0.24073
0.23366
0.260459
0.27058
0.232223
0.253756
0.232329
0.24044
0.26014
0.240397
0.23361
0.243389
0.238203
0.26292
0.233997
0.237822
0.270711
0.23373
0.234829
0.202769
0.262218
0.262854
0.248218
0.237047
0.239024
0.240474
0.237358
0.234177
0.238999
0.240383
0.263079
0.231984
0.26867
0.237303
0.245611
0.240304
0.232914
0.237125
0.254512
0.265767
0.265122
0.244649
0.233243
0.253133
0.232634
0.246521
0.233272
0.262465
0.24007
0.236033
0.231543
0.233715
0.232738
0.236671
0.242022
0.233034
0.233891
0.234876
0.255497
0.23396
0.260787
0.234679
0.243137
0.23983
0.259011
0.23976
0.269825
0.232901
0.243376
0.234888
0.239045
0.239945
0.25904
0.223264
0.264131
0.276076
0.262224
0.259992
0.261912
0.241378
0.269256
0.232327
0.239684
0.272543
0.234783
0.261808
0.247109
0.238534
0.245617
0.237666
0.232213
0.230937
0.235325
0.242414
0.23602
0.247412
0.24516
0.265518
0.233697
0.233199
0.238994
0.236151
0.234169
0.263518
0.234232
0.23463
0.234336
0.23374
0.234079
0.236964
0.233293
0.232955
0.240082
0.235017
0.234888
0.259732
0.234371
0.247034
0.239548
0.238524
0.237086
0.249606
0.23491
0.239844
0.239196
0.245563
0.261754
0.23286
0.239883
0.248916
0.265069
0.233931
0.264977
0.231623
0.237646
0.239277
0.239157
0.232851
0.237089
0.265774
0.237008
0.247659
0.242586
0.257762
0.233485
0.234308
0.240915
0.239682
0.239091
0.238788
0.247273
0.241884
0.268358
0.233347
0.238275
0.231992
0.25742
0.237262
0.236597
0.239996
0.250425
0.236256
0.233722
0.240725
0.266055
0.267406
0.239063
0.266298
0.254096
0.239638
0.237804
0.232206
0.267217
0.237743
0.233078
0.257886
0.262518
0.235522
0.25837
0.241535
0.258867
0.23638
0.253067
0.248547
0.233723
0.266647
0.239586
0.239491
0.234427
0.235174
0.231813
0.262391
0.23354
0.236278
0.248002
0.232665
0.235342
0.239145
0.22737
0.237194
0.235147
0.233466
0.234821
0.235246
0.245053
0.237906
0.237345
0.260175
0.238822
0.239207
0.23375
0.237628
0.241381
0.232707
0.234574
0.236381
0.236272
0.233773
0.235448
0.238438
0.263029
0.243859
0.233682
0.273321
0.241289
0.240278
0.245763
0.240612
0.232819
0.235175
0.232814
0.241098
0.236346
0.238225
0.236652
0.238002
0.247501
0.262602
0.23451
0.266213
0.242304
0.244591
0.240952
0.238356
0.232069
0.263831
0.235091
0.259444
0.236398
0.24936
0.239408
0.239944
0.232442
0.262462
0.234039
0.233802
0.239243
0.240558
0.24115
0.26959
0.233822
0.235997
0.237258
0.232582
0.233001
0.236404
0.243306
0.234691
0.257223
0.244516
0.233081
0.262422
0.254835
0.235122
0.232831
0.248211
0.245483
0.242708
0.250156
0.23884
0.253842
0.234606
0.236323
0.27368
0.240075
0.231663
0.237668
0.239601
0.236914
0.233591
0.258683
0.258863
0.231777
0.233929
0.236868
0.256718
0.234476
0.234423
0.256702
0.236018
0.233571
0.233808
0.238669
0.23374
0.240739
0.235378
0.236831
0.246557
0.261882
0.237846
0.23687
0.256422
0.232623
0.266998
0.240691
0.243046
0.262372
0.241589
0.246492
0.235801
0.241529
0.236557
0.265469
0.266407
0.243631
0.262037
0.240018
0.232931
0.23949
0.233759
0.247422
0.238011
0.236435
0.247046
0.243463
0.237166
0.238914
0.240228
0.260169
0.239367
0.23703
0.231579
0.233044
0.267737
0.263308
0.239473
0.232469
0.253175
0.241062
0.241139
0.2378
0.234242
0.243552
0.239412
0.240785
0.261846
0.233796
0.239185
0.260356
0.25127
0.237183
0.247387
0.234227
0.235167
0.242077
0.260741
0.233372
0.26229
0.242589
0.239047
0.252819
0.237042
0.266384
0.238764
0.237153
0.240807
0.270912
0.262966
0.232013
0.235134
0.24746
0.23229
0.239147
0.238079
0.265376
0.259343
0.240676
0.240824
0.239968
0.234189
0.231645
0.236173
0.232064
0.239698
0.241044
0.234208
0.266559
0.237465
0.235518
0.237127
0.239912
0.236286
0.246476
0.232732
0.240793
0.269116
0.233599
0.253987
0.233856
0.246428
0.232205
0.262505
0.234994
0.233406
0.241049
0.23768
0.266974
0.232897
0.234472
0.233357
0.263131
0.231894
0.241451
0.233107
0.236894
0.235555
0.235003
0.23797
0.247482
0.236732
0.261734
0.262572
0.263093
0.253046
0.238049
0.265383
0.233343
0.234616
0.239036
0.241704
0.239134
0.239064
0.235117
0.238872
0.246922
0.234174
0.240965
0.249481
0.232702
0.237083
0.24019
0.235267
0.249431
0.235596
0.234727
0.232391
0.23574
0.235432
0.248879
0.234095
0.241791
0.239786
0.238442
0.238174
0.232275
0.237973
0.234844
0.245458
0.240219
0.237264
0.260662
0.268808
0.235312
0.249888
0.237339
0.248111
0.265241
0.240393
0.234853
0.255071
0.247489
0.237631
0.233034
0.234078
0.239974
0.258679
0.239164
0.240258
0.246412
0.239213
0.239382
0.270598
0.250692
0.250161
0.239451
0.237199
0.239735
0.23683
0.238861
0.238779
0.240186
0.255622
0.250371
0.273096
0.239748
0.238743
0.236081
0.234229
0.232799
0.26323
0.238354
0.246132
0.239956
0.238017
0.234179
0.265314
0.231522
0.26198
0.237271
0.239965
0.241748
0.236707
0.245217
0.239432
0.255798
0.240543
0.245038
0.238579
0.246721
0.262005
0.232989
0.236207
0.239373
0.234687
0.23512
0.26094
0.247461
0.241569
0.257864
0.233777
0.236775
0.232855
0.232202
0.232765
0.262478
0.265817
0.260135
0.233563
0.267071
0.233613
0.238025
0.259086
0.246913
0.235874
0.234486
0.250815
0.247283
0.239357
0.237889
0.235678
0.240261
0.256591
0.239363
0.237691
0.236059
0.237962
0.233454
0.233631
0.233369
0.238761
0.262508
0.267118
0.239197
0.2496
0.237775
0.269031
0.236287
0.241205
0.232386
0.261131
0.240237
0.235817
0.239934
0.248114
0.262355
0.23524
0.254617
0.238732
0.241347
0.231989
0.23178
0.238406
0.268483
0.264395
0.240174
0.242927
0.246604
0.236504
0.266714
0.226172
0.234812
0.248897
0.235486
0.230394
0.236279
0.232682
0.234829
0.238473
0.237985
0.267425
0.246739
0.233646
0.262492
0.236949
0.241347
0.255629
0.237812
0.213405
0.238995
0.234162
0.234472
0.266286
0.240402
0.239267
0.26289
0.246542
0.239052
0.2459
0.236412
0.259743
0.26062
0.23983
0.245605
0.231906
0.233638
0.232701
0.237994
0.23851
0.237184
0.237262
0.233824
0.256519
0.238101
0.242904
0.234214
0.238456
0.247752
0.243412
0.23676
0.264137
0.240512
0.235155
0.241477
0.277005
0.240803
0.266323
0.237885
0.27103
0.235888
0.234454
0.238388
0.237426
0.256744
0.260593
0.235085
0.236507
0.23776
0.238499
0.247231
0.23309
0.235844
0.234283
0.263643
0.250588
0.235096
0.235116
0.241547
0.240472
0.262967
0.235737
0.233922
0.236741
0.237525
0.23745
0.238362
0.23338
0.235726
0.259563
0.238529
0.236995
0.2388
0.239983
0.237789
0.271659
0.253636
0.234062
0.237149
0.236615
0.236144
0.236153
0.233093
0.238445
0.240635
0.234946
0.234105
0.248875
0.244375
0.239014
0.238191
0.234681
0.268787
0.239401
0.26278
0.234173
0.263713
0.260518
0.237261
0.267268
0.248356
0.237408
0.233444
0.233548
0.248372
0.242649
0.232146
0.255769
0.259324
0.247716
0.251524
0.233855
0.237442
0.239379
0.265277
0.237186
0.23384
0.233148
0.261169
0.258494
0.240975
0.237757
0.237015
0.253203
0.261289
0.242813
0.247305
0.233018
0.235779
0.266829
0.23787
0.236104
0.259326
0.270115
0.233963
0.253375
0.254583
0.23203
0.236998
0.232785
0.233115
0.235957
0.246576
0.234466
0.249167
0.232694
0.248936
0.23284
0.235509
0.238289
0.260507
0.232337
0.231042
0.243045
0.239392
0.239717
0.255289
0.206722
0.237754
0.244763
0.232279
0.245649
0.228953
0.262706
0.235163
0.234567
0.266261
0.235143
0.240141
0.272494
0.261612
0.238413
0.237364
0.23559
0.247975
0.25972
0.233593
0.234849
0.235066
0.238115
0.231828
0.263513
0.23513
0.239277
0.262109
0.261368
0.277353
0.256639
0.233457
0.247543
0.239257
0.235181
0.249424
0.247695
0.2686
0.268858
0.233908
0.233895
0.259945
0.235693
0.238831
0.262222
0.241312
0.243174
0.257807
0.243633
0.230892
0.25846
0.26977
0.232209
0.234988
0.253542
0.236817
0.250456
0.254512
0.261549
0.236697
0.258037
0.264414
0.239531
0.232527
0.240529
0.239641
0.235352
0.239998
0.231644
0.207094
0.237377
0.260481
0.232405
0.235888
0.238038
0.247846
0.237027
0.257386
0.235722
0.238949
0.245685
0.264306
0.265961
0.272981
0.247245
0.262738
0.242693
0.257362
0.245176
0.233302
0.236275
0.245091
0.23775
0.238382
0.241112
0.233479
0.267601
0.238877
0.232612
0.232513
0.238759
0.232539
0.255042
0.23986
0.24
0.263766
0.239075
0.232056
0.234129
0.228677
0.235598
0.239757
0.270151
0.263526
0.2393
0.233172
0.240282
0.233085
0.248191
0.244849
0.25736
0.266195
0.265605
0.2696
0.235806
0.238085
0.229717
0.238964
0.245634
0.234896
0.271076
0.234595
0.237341
0.234785
0.23995
0.239817
0.233963
0.233453
0.23554
0.213884
0.242681
0.235602
0.233171
0.235203
0.234641
0.237362
0.233311
0.235833
0.250366
0.235662
0.236784
0.234088
0.235169
0.265674
0.232748
0.235362
0.236977
0.23279
0.261492
0.271725
0.238901
0.236096
0.249088
0.234337
0.23255
0.231734
0.231482
0.247358
0.237438
0.240576
0.235779
0.268411
0.268183
0.241829
0.238901
0.258182
0.233949
0.261477
0.243793
0.239442
0.238875
0.245382
0.23142
0.239653
0.237584
0.237555
0.237504
0.237613
0.247687
0.270153
0.234012
0.276368
0.274688
0.211255
0.261582
0.267142
0.242549
0.23973
0.260675
0.247507
0.275028
0.259567
0.235904
0.236862
0.265825
0.265935
0.233467
0.265679
0.238017
0.233615
0.243276
0.23411
0.258025
0.26189
0.242942
0.235684
0.256086
0.26077
0.243014
0.250195
0.238356
0.238161
0.264552
0.235098
0.266005
0.266735
0.245111
0.236113
0.249631
0.246362
0.245487
0.233565
0.269167
0.257464
0.240422
0.227151
0.236155
0.268787
0.272157
0.244757
0.231069
0.237853
0.24069
0.241515
0.236607
0.236913
0.259404
0.232883
0.249
0.260969
0.271578
0.232909
0.237948
0.233463
0.236844
0.234384
0.262524
0.244577
0.26895
0.27935
0.240483
0.261903
0.249426
0.238216
0.215137
0.262371
0.233449
0.234782
0.232775
0.237319
0.280818
0.237188
0.263507
0.234643
0.265323
0.233374
0.272714
0.239235
0.242545
0.250331
0.246523
0.271023
0.250924
0.237407
0.234159
0.236348
0.235533
0.234905
0.263653
0.23377
0.203024
0.237712
0.236913
0.235107
0.237579
0.226376
0.235775
0.244558
0.248405
0.248325
0.234714
0.234607
0.24841
0.252864
0.237792
0.242808
0.235136
0.228931
0.237465
0.241803
0.240978
0.232637
0.234543
0.234072
0.241622
0.235464
0.238411
0.221974
0.237183
0.247265
0.236274
0.240574
0.231927
0.258117
0.257864
0.238538
0.228486
0.231025
0.225303
0.233627
0.238305
0.235451
0.258081
0.248458
0.234078
0.234967
0.233776
0.232741
0.247246
0.231484
0.261071
0.232732
0.247659
0.2378
0.244927
0.238575
0.236574
0.233962
0.261634
0.234737
0.231553
0.241738
0.258913
0.233829
0.232861
0.234497
0.237759
0.237786
0.237862
0.262169
0.232321
0.245965
0.238451
0.251968
0.249564
0.257626
0.266176
0.248037
0.234409
0.240546
0.25812
0.242824
0.263423
0.240759
0.239719
0.270745
0.260759
0.25144
0.239848
0.237696
0.246235
0.216966
0.243981
0.215984
0.2529
0.232131
0.233353
0.235168
0.222211
0.240222
0.267412
0.258073
0.236622
0.249396
0.244772
0.23444
0.232648
0.237356
0.229952
0.266845
0.226334
0.233194
0.244309
0.23116
0.230217
0.237994
0.229395
0.233218
0.247931
0.259205
0.240213
0.265529
0.269762
0.24333
0.239688
0.240022
0.238956
0.238284
0.23818
0.272498
0.247238
0.230711
0.235591
0.266057
0.24429
0.253155
0.237565
0.233274
0.246244
0.236681
0.235207
0.236427
0.265682
0.234326
0.265303
0.23134
0.233211
0.235696
0.23116
0.237112
0.231574
0.261904
0.227857
0.233637
0.251797
0.235151
0.240304
0.246589
0.235624
0.242427
0.234608
0.233905
0.230704
0.237499
0.233071
0.241291
0.232725
0.257747
0.239117
0.263771
0.26253
0.239896
0.238485
0.238661
0.235422
0.226956
0.233649
0.265365
0.236928
0.233305
0.238958
0.232205
0.261548
0.268423
0.239127
0.269376
0.232884
0.237022
0.270736
0.242443
0.236181
0.240734
0.263801
0.254023
0.26798
0.234366
0.268421
0.235644
0.237319
0.267874
0.236412
0.234962
0.233935
0.232167
0.254205
0.234082
0.235331
0.25541
0.237062
0.233331
0.238695
0.258647
0.22842
0.240086
0.233337
0.246437
0.236392
0.24454
0.245351
0.247164
0.245561
0.226225
0.234624
0.234315
0.253176
0.239463
0.23692
0.231672
0.237095
0.270645
0.231836
0.25552
0.236309
0.232826
0.230736
0.247119
0.237957
0.236925
0.239329
0.236569
0.242829
0.262698
0.260322
0.239338
0.233954
0.217516
0.247674
0.233073
0.260187
0.237078
0.264586
0.235384
0.233683
0.235368
0.263189
0.234127
0.261609
0.237427
0.238963
0.25203
0.237997
0.254723
0.248848
0.23681
0.262438
0.249222
0.239081
0.272564
0.23941
0.234798
0.272249
0.249082
0.226261
0.242261
0.239893
0.233605
0.235614
0.231255
0.250002
0.266113
0.270221
0.194284
0.232461
0.223452
0.234442
0.235615
0.259126
0.258978
0.238182
0.237901
0.268998
0.237355
0.235675
0.24825
0.233167
0.240516
0.230309
0.256084
0.243429
0.235422
0.276874
0.231727
0.223616
0.234215
0.232973
0.233842
0.238962
0.265515
0.234481
0.237918
0.23603
0.233631
0.226774
0.231039
0.235714
0.238641
0.231799
0.239129
0.235587
0.261117
0.242632
0.232221
0.221709
0.234362
0.238613
0.240165
0.233315
0.260674
0.234026
0.261096
0.235976
0.236624
0.243638
0.236292
0.246054
0.242156
0.232988
0.243371
0.223823
0.217559
0.235296
0.266584
0.238323
0.238126
0.250604
0.233041
0.23716
0.23351
0.233361
0.263907
0.233939
0.234228
0.232722
0.241394
0.238964
0.268171
0.257643
0.228044
0.261836
0.235336
0.235457
0.256909
0.240823
0.23106
0.249094
0.250525
0.25234
0.245856
0.242577
0.228241
0.246892
0.231809
0.223521
0.23451
0.266262
0.235556
0.234362
0.23175
0.259899
0.250839
0.240934
0.196198
0.259731
0.237871
0.241169
0.234679
0.225931
0.234238
0.235683
0.241425
0.234567
0.239683
0.244775
0.245689
0.233151
0.234753
0.238641
0.227311
0.230848
0.255959
0.263906
0.241086
0.208212
0.238385
0.232817
0.235597
0.231523
0.235511
0.225315
0.236433
0.230466
0.255084
0.24193
0.244594
0.230717
0.235431
0.231039
0.235841
0.240424
0.243313
0.235787
0.238047
0.238265
0.233204
0.238892
0.24865
0.248358
0.258061
0.243997
0.236633
0.258835
0.233899
0.240892
0.233123
0.237783
0.234414
0.236275
0.22532
0.223658
0.238364
0.23808
0.232428
0.246667
0.264943
0.236857
0.243314
0.236446
0.238481
0.238303
0.233103
0.239248
0.267366
0.249438
0.263189
0.237004
0.240033
0.259608
0.233848
0.241688
0.245986
0.237062
0.253182
0.257534
0.232501
0.25557
0.260629
0.199876
0.208595
0.234537
0.25302
0.235565
0.234939
0.250167
0.235816
0.230359
0.22662
0.233791
0.265624
0.233373
0.207487
0.230084
0.255434
0.254882
0.232009
0.265914
0.247533
0.242142
0.23405
0.230653
0.231243
0.244431
0.240305
0.218241
0.240105
0.238865
0.23415
0.242424
0.258651
0.224957
0.238735
0.229539
0.197032
0.258201
0.237746
0.264807
0.261792
0.237947
0.232867
0.246584
0.241963
0.234301
0.230115
0.237046
0.223001
0.26964
0.231244
0.264468
0.235316
0.261275
0.237764
0.231488
0.23311
0.260623
0.244206
0.233279
0.233797
0.238799
0.229666
0.241009
0.235319
0.238899
0.260279
0.238817
0.249503
0.225127
0.22848
0.233363
0.241389
0.232074
0.242622
0.247029
0.261874
0.231268
0.231114
0.270459
0.235142
0.238513
0.23746
0.260108
0.237848
0.244535
0.239164
0.214374
0.245972
0.237894
0.27531
0.237052
0.265811
0.260347
0.240574
0.235096
0.26848
0.236222
0.236125
0.203959
0.269921
0.228629
0.232781
0.274705
0.240116
0.275415
0.26748
0.235078
0.233748
0.241481
0.225387
0.235204
0.237851
0.246682
0.225156
0.241126
0.239997
0.243505
0.228794
0.258562
0.220635
0.244125
0.245136
0.23478
0.231015
0.240073
0.234479
0.241145
0.230464
0.234841
0.242445
0.239908
0.234268
0.2406
0.239092
0.233196
0.235383
0.237378
0.214854
0.220474
0.2293
0.241951
0.249744
0.224653
0.227212
0.250545
0.237823
0.218593
0.260953
0.258705
0.229304
0.232438
0.240676
0.235108
0.233802
0.254736
0.236632
0.238509
0.255442
0.245686
0.263077
0.227038
0.237852
0.237711
0.232447
0.262827
0.240316
0.237588
0.234193
0.23111
0.201724
0.238855
0.23617
0.235041
0.223465
0.236789
0.209201
0.230415
0.231594
0.251226
0.270701
0.248752
0.228724
0.234647
0.254771
0.25114
0.235089
0.235864
0.23908
0.247806
0.274015
0.250921
0.250794
0.238592
0.241419
0.240698
0.234702
0.230864
0.212805
0.23513
0.231599
0.239462
0.247411
0.235098
0.22127
0.259466
0.248073
0.238356
0.212283
0.215513
0.236487
0.240081
0.230887
0.266821
0.241596
0.236689
0.223561
0.223869
0.227461
0.232009
0.23506
0.232447
0.237707
0.243599
0.228779
0.232392
0.233931
0.235661
0.231085
0.230512
0.25928
0.24959
0.267649
0.241552
0.216813
0.243558
0.258344
0.235921
0.249497
0.251696
0.242531
0.230254
0.239696
0.225355
0.237912
0.241133
0.229111
0.259123
0.229933
0.255866
0.236361
0.225531
0.239807
0.238986
0.231999
0.224887
0.254381
0.254566
0.245141
0.246066
0.241038
0.206404
0.236287
0.244952
0.230637
0.241503
0.248012
0.248929
0.207729
0.233249
0.238642
0.265359
0.261317
0.247597
0.226786
0.232379
0.256485
0.20403
0.231037
0.264501
0.234077
0.23663
0.233927
0.26445
0.233702
0.256218
0.253343
0.259851
0.229653
0.23956
0.241422
0.235341
0.236371
0.23803
0.260532
0.274696
0.235297
0.240708
0.236643
0.228106
0.258111
0.230587
0.245973
0.215195
0.238836
0.248369
0.250382
0.23529
0.230855
0.252726
0.258438
0.221296
0.226239
0.230168
0.245422
0.256125
0.260963
0.232797
0.237475
0.222389
0.228059
0.245052
0.237125
0.229615
0.220959
0.237118
0.230286
0.245017
0.237343
0.22559
0.232815
0.244212
0.218059
0.234142
0.224896
0.215474
0.229365
0.231215
0.242188
0.226585
0.231769
0.211331
0.247486
0.259532
0.233661
0.245446
0.246771
0.238427
0.21936
0.234021
0.217369
0.260165
0.258391
0.23395
0.202436
0.234483
0.263087
0.247532
0.236077
0.25873
0.236236
0.241799
0.270905
0.240906
0.231994
0.234117
0.23526
0.231712
0.23256
0.232602
0.231447
0.233442
0.239948
0.227434
0.243584
0.23195
0.226684
0.234842
0.234418
0.238113
0.217659
0.234858
0.235019
0.23909
0.247576
0.240997
0.267027
0.229098
0.237285
0.235688
0.23374
0.221481
0.239756
0.26613
0.23591
0.245381
0.24791
0.214743
0.261771
0.229284
0.241167
0.23378
0.235378
0.220145
0.260903
0.240797
0.224649
0.255702
0.226028
0.228603
0.212289
0.237084
0.250071
0.249224
0.219815
0.213382
0.216368
0.256163
0.240102
0.216059
0.232246
0.261968
0.238567
0.225893
0.228183
0.2184
0.236572
0.224144
0.242059
0.239205
0.225252
0.223693
0.251158
0.251171
0.235858
0.245865
0.264935
0.20847
0.233153
0.255148
0.243552
0.258152
0.233679
0.231951
0.236883
0.200317
0.234507
0.235475
0.23765
0.231985
0.237969
0.236211
0.225718
0.243243
0.240176
0.230175
0.23993
0.246983
0.247244
0.235817
0.21207
0.251208
0.215907
0.222789
0.228641
0.217403
0.234408
0.236448
0.235424
0.2403
0.236128
0.22112
0.216291
0.193837
0.238462
0.227049
0.244337
0.246842
0.26019
0.22785
0.233033
0.231723
0.221502
0.220698
0.224179
0.232062
0.249232
0.239467
0.237674
0.217624
0.260364
0.251627
0.26029
0.218225
0.231376
0.209693
0.199648
0.239552
0.213314
0.265449
0.237342
0.26288
0.255763
0.218979
0.252221
0.251608
0.216373
0.207388
0.233099
0.263596
0.23489
0.237991
0.240473
0.228421
0.229442
0.215809
0.218719
0.261033
0.247519
0.237404
0.243674
0.231589
0.242095
0.222774
0.244686
0.237511
0.238982
0.224814
0.195373
0.194621
0.221102
0.230569
0.23116
0.239698
0.224776
0.26039
0.235383
0.242461
0.218067
0.264322
0.226982
0.222395
0.239653
0.26449
0.215775
0.234285
0.194899
0.215454
0.20086
0.234393
0.259311
0.250824
0.227595
0.25116
0.226603
0.259455
0.200318
0.234248
0.24815
0.235434
0.212762
0.271563
0.214411
0.231935
0.209686
0.232973
0.234874
0.220799
0.271266
0.223304
0.240636
0.229215
0.23346
0.238085
0.21754
0.250343
0.264059
0.226602
0.264406
0.206966
0.263835
0.252405
0.219228
0.236623
0.235126
0.241062
0.211451
0.255751
0.23255
0.214627
0.228339
0.256052
0.236376
0.231057
0.205997
0.229944
0.23906
0.2329
0.23383
0.229294
0.23182
0.256802
0.231733
0.23677
0.250352
0.201478
0.221322
0.230355
0.243203
0.2369
0.208249
0.228911
0.220431
0.220201
0.20147
0.192878
0.193512
0.236406
0.242794
0.236654
0.232147
0.250306
0.241689
0.236068
0.238069
0.222508
0.226563
0.236036
0.224083
0.235486
0.253793
0.260898
0.222365
0.235709
0.232253
0.221094
0.237272
0.230064
0.249508
0.217717
0.238644
0.221655
0.223525
0.217322
0.255093
0.214672
0.23303
0.21751
0.22639
0.211091
0.20968
0.228582
0.256607
0.21105
0.265744
0.242072
0.251586
0.202517
0.237942
0.223069
0.219922
0.222743
0.239597
0.230759
0.190772
0.226281
0.209862
0.23721
0.246527
0.239843
0.218097
0.235454
0.233717
0.23075
0.21274
0.221463
0.230232
0.225302
0.202109
0.198646
0.234938
0.208799
0.206528
0.217919
0.228055
0.234051
0.222237
0.210553
0.212378
0.239809
0.221044
0.208528
0.195834
0.228945
0.218856
0.244716
0.251009
0.234602
0.243459
0.222565
0.220382
0.214582
0.195827
0.194599
0.234489
0.247036
0.225124
0.236134
0.23079
0.229684
0.224116
0.205837
0.213844
0.259169
0.228807
0.247149
0.20471
0.236696
0.236209
0.256731
0.257204
0.222142
0.210323
0.211543
0.240452
0.227905
0.234778
0.234882
0.211637
0.211507
0.267885
0.212633
0.192966
0.21098
0.225186
0.214577
0.226902
0.212274
0.224513
0.225136
0.196663
0.250907
0.248873
0.226452
0.229302
0.214574
0.223531
0.231968
0.212355
0.260134
0.216829
0.232722
0.24654
0.21927
0.219447
0.236164
0.224133
0.222762
0.233257
0.244863
0.22464
0.232155
0.21448
0.221143
0.207311
0.218616
0.233193
0.224998
0.222789
0.226322
0.23847
0.212185
0.204894
0.206216
0.234987
0.251583
0.200519
0.225262
0.244749
0.237833
0.238346
0.255432
0.204871
0.219331
0.213095
0.208641
0.239329
0.24653
0.246574
0.248355
0.224807
0.230153
0.223068
0.235887
0.215295
0.209214
0.227219
0.204191
0.257537
0.220475
0.225746
0.215486
0.21757
0.251638
0.211489
0.204116
0.213691
0.208566
0.239859
0.229974
0.216592
0.201729
0.21586
0.202519
0.232613
0.241393
0.242554
0.234907
0.219959
0.240407
0.237491
0.258383
0.224606
0.233361
0.211888
0.232809
0.221495
0.215022
0.212473
0.25789
0.214931
0.232919
0.214789
0.230865
0.190272
0.197202
0.211263
0.229231
0.214727
0.207849
0.221454
0.241308
0.234764
0.223866
0.225381
0.240918
0.232855
0.231923
0.201488
0.213818
0.235394
0.209132
0.245192
0.213842
0.201237
0.237472
0.213154
0.226807
0.21695
0.211575
0.209253
0.204993
0.247135
0.245019
0.234887
0.219193
0.213441
0.214902
0.212806
0.227387
0.213459
0.231745
0.21202
0.239921
0.201746
0.242517
0.214564
0.21178
0.237913
0.234903
0.219025
0.223958
0.193999
0.212938
0.215031
0.202118
0.216384
0.230663
0.249175
0.241627
0.24006
0.221626
0.219975
0.212395
0.209303
0.224432
0.227644
0.254217
0.223469
0.224965
0.235817
0.206929
0.214735
0.253062
0.248636
0.261989
0.235337
0.193299
0.205517
0.261573
0.229563
0.211324
0.232659
0.252266
0.258428
0.216698
0.21564
0.231577
0.203011
0.190684
0.238248
0.193274
0.240136
0.213231
0.202752
0.227171
0.211372
0.239965
0.238376
0.199555
0.199012
0.230005
0.205781
0.217601
0.200829
0.209565
0.218342
0.241483
0.206427
0.220846
0.24542
0.221879
0.218628
0.205428
0.229939
0.221696
0.219149
0.206293
0.215848
0.22598
0.230632
0.216589
0.245755
0.215679
0.234395
0.198694
0.217777
0.210077
0.240207
0.221149
0.236907
0.253637
0.218581
0.244568
0.235635
0.222635
0.229724
0.206274
0.212134
0.223576
0.220856
0.234115
0.217432
0.208529
0.230362
0.212831
0.208386
0.198311
0.217117
0.218126
0.24005
0.19953
0.221836
0.234493
0.202307
0.203476
0.241034
0.204851
0.219239
0.217892
0.217131
0.192158
0.197407
0.216509
0.209814
0.227427
0.215702
0.224582
0.200418
0.223517
0.229008
0.217259
0.205187
0.220721
0.2465
0.221258
0.218515
0.240276
0.192158
0.1971
0.223859
0.189327
0.252786
0.227093
0.221093
0.228063
0.219561
0.204144
0.249145
0.234362
0.199038
0.236945
0.228072
0.214923
0.219047
0.210661
0.20634
0.214028
0.232068
0.249698
0.202608
0.231837
0.222018
0.203289
0.257768
0.206603
0.19906
0.201142
0.213281
0.216032
0.21506
0.225646
0.228399
0.230399
0.208513
0.209969
0.203166
0.240035
0.208893
0.190042
0.207847
0.207368
0.201096
0.224688
0.209617
0.231483
0.237189
0.219682
0.239659
0.221374
0.232224
0.226539
0.21908
0.248685
0.234347
0.204251
0.201649
0.223414
0.195035
0.188978
0.198867
0.228788
0.194209
0.191476
0.217019
0.230142
0.229567
0.232032
0.205069
0.194843
0.216905
0.213197
0.203375
0.230818
0.208755
0.234729
0.201046
0.195206
0.203063
0.201504
0.257749
0.213417
0.227543
0.228632
0.224535
0.215943
0.206519
0.226022
0.201383
0.212298
0.234163
0.204701
0.231673
0.192748
0.19168
0.221643
0.210611
0.2127
0.208626
0.225703
0.224161
0.24675
0.259305
0.240188
0.197928
0.191665
0.209754
0.211839
0.192986
0.191377
0.197303
0.209287
0.224123
0.236078
0.224249
0.216788
0.234172
0.190845
0.207981
0.213004
0.229467
0.226773
0.201339
0.21355
0.213905
0.228591
0.239347
0.205466
0.207067
0.232228
0.248638
0.238689
0.210077