/*--------------------------------*- C++ -*----------------------------------*\
| =========                 |                                                 |
| \\      /  F ield         | OpenFOAM: The Open Source CFD Toolbox           |
|  \\    /   O peration     | Version:  2212                                  |
|   \\  /    A nd           | Website:  www.openfoam.com                      |
|    \\/     M anipulation  |                                                 |
\*---------------------------------------------------------------------------*/
FoamFile
{
    version     2.0;
    format      ascii;
    arch        "LSB;label=32;scalar=64";
    class       volScalarField;
    location    "0.056";
    object      k;
}
// * * * * * * * * * * * * * * * * * * * * * * * * * * * * * * * * * * * * * //

dimensions      [0 2 -2 0 0 0 0];

internalField   nonuniform List<scalar> 
31639
(
0.00908931
0.0089566
0.00904833
0.00934716
0.00902628
0.00890114
0.00886614
0.00915835
0.00904699
0.00923496
0.00920969
0.00922638
0.00901526
0.00927241
0.0088207
0.00873835
0.00915011
0.00889961
0.00866033
0.00906064
0.00825734
0.00927005
0.00927654
0.00866391
0.00864114
0.00901527
0.00901387
0.00743972
0.00885812
0.0093276
0.00923523
0.0088062
0.0092777
0.00862567
0.00846522
0.00930528
0.00801745
0.00944075
0.00928604
0.00800788
0.00838593
0.00847694
0.00918571
0.00925457
0.00920587
0.00923902
0.00886143
0.00887773
0.00913375
0.00931844
0.00923237
0.0080285
0.00931279
0.00823083
0.00880796
0.00909078
0.00828207
0.0090315
0.00891799
0.0082848
0.00899439
0.00925813
0.00871215
0.00901422
0.00905021
0.00933352
0.0089528
0.00898983
0.0086114
0.00930982
0.00922552
0.00866544
0.00915014
0.00902785
0.00922991
0.00850433
0.00918054
0.00887262
0.00881088
0.0091245
0.00869564
0.00794329
0.00928638
0.00907039
0.00905418
0.0092115
0.00929292
0.00926133
0.00854138
0.00934228
0.00905465
0.00907457
0.00831914
0.00886543
0.00852312
0.0089085
0.00885597
0.00900356
0.0090362
0.00833235
0.00926151
0.00916772
0.00885218
0.00822532
0.00827396
0.00925744
0.00826368
0.00812115
0.00852875
0.00824428
0.00915449
0.00835982
0.00891503
0.00877756
0.00899233
0.00820005
0.00896048
0.00901155
0.00913419
0.00892543
0.0092132
0.00919587
0.00918255
0.00904604
0.00907506
0.00927642
0.00900837
0.00857433
0.0084554
0.0091451
0.00920814
0.00918687
0.00924977
0.00888182
0.00919959
0.0089819
0.00828461
0.00814153
0.00918081
0.00900093
0.008994
0.0092036
0.00923427
0.00817311
0.0080649
0.00926854
0.0091341
0.00840191
0.0083944
0.00920589
0.00867268
0.0092121
0.00868329
0.00913625
0.00857458
0.00932782
0.00898683
0.00854188
0.00848895
0.00867703
0.00927376
0.00860985
0.0086928
0.00829332
0.00840401
0.0089028
0.00855259
0.00934609
0.00921957
0.00818367
0.00881186
0.0087424
0.00843396
0.00898285
0.00934511
0.00910131
0.00904243
0.00934282
0.00899119
0.00897799
0.00884301
0.00889896
0.00877418
0.00805313
0.00907096
0.00939296
0.00895229
0.00931949
0.00840464
0.00839655
0.00955869
0.00920165
0.0091656
0.00894386
0.00902083
0.00888336
0.00886603
0.00915495
0.00824813
0.00883956
0.0092892
0.00936616
0.00915838
0.00910282
0.00900017
0.00891588
0.00890956
0.00875849
0.00927709
0.00806102
0.00895759
0.0088947
0.00911008
0.00923004
0.00930091
0.00927342
0.00844525
0.00871822
0.00927553
0.00913663
0.00908093
0.00897956
0.00824919
0.00896008
0.00830049
0.00887451
0.00920322
0.0087781
0.00842727
0.00914341
0.00908296
0.0093742
0.00853815
0.00841842
0.00912054
0.00913696
0.00824241
0.0093077
0.00870538
0.00824823
0.00885713
0.00912412
0.00896455
0.00880382
0.00876006
0.00917688
0.00884128
0.00879141
0.00843565
0.00892119
0.00880587
0.00850451
0.00881924
0.00934308
0.00918715
0.00882732
0.00849867
0.00914167
0.00917065
0.00915019
0.00932116
0.00925107
0.00900332
0.00926449
0.00884512
0.0089229
0.0081395
0.00865046
0.00924703
0.00879496
0.00887648
0.00879363
0.00903319
0.00947707
0.00935333
0.00915398
0.0083407
0.00891906
0.00865064
0.00925171
0.00895874
0.009348
0.00931607
0.00886781
0.0083923
0.00872804
0.00852738
0.00834795
0.00924026
0.00855989
0.00921606
0.00889262
0.00874053
0.00850819
0.00942542
0.00883121
0.00893634
0.0092626
0.00907528
0.00874723
0.00888737
0.00860024
0.00899433
0.00888247
0.00844578
0.00879268
0.00878268
0.00787733
0.00812202
0.00924629
0.00927203
0.00893451
0.00824449
0.00858246
0.00915106
0.00857795
0.00845384
0.00929307
0.00946414
0.00889227
0.0092421
0.00930869
0.00846711
0.00919613
0.00823144
0.00825459
0.00936506
0.00924452
0.00925607
0.00934289
0.00919124
0.0085038
0.00893481
0.00889958
0.00928787
0.00939583
0.00938123
0.00890303
0.0087737
0.00919924
0.00913411
0.00904231
0.00885768
0.00889909
0.00883752
0.00897912
0.00907502
0.0088822
0.00846656
0.00909982
0.00932714
0.00883356
0.00924989
0.00929488
0.00895596
0.0084478
0.00894107
0.00892181
0.00823607
0.00948769
0.00858769
0.00908837
0.00906234
0.00818967
0.00896933
0.0089542
0.00833348
0.00901595
0.00849518
0.00898371
0.0093195
0.00916964
0.00812777
0.00904994
0.00850577
0.00906603
0.00923741
0.00932091
0.00930348
0.00858503
0.00918785
0.00826852
0.00885216
0.00827479
0.0092972
0.00917565
0.00925326
0.00920683
0.0085686
0.00937116
0.00892787
0.00917134
0.00890854
0.00871409
0.00893873
0.00912683
0.00911179
0.00915234
0.0090222
0.0091508
0.00890488
0.00850738
0.00898174
0.00908928
0.00911219
0.00815886
0.00925075
0.00923232
0.00891718
0.00905017
0.00910254
0.00906403
0.0093149
0.00810657
0.00907852
0.00925966
0.00815865
0.00897504
0.00909303
0.0085231
0.0083228
0.00831214
0.00881891
0.00835085
0.00892316
0.00869511
0.00880168
0.00933841
0.00839816
0.00918947
0.00928447
0.00896003
0.00921624
0.00883304
0.009289
0.00894172
0.00911649
0.00933657
0.00892261
0.00838606
0.00898801
0.00925809
0.0092222
0.00915554
0.00927752
0.00885909
0.0090446
0.00923407
0.00936138
0.00927106
0.00847204
0.00892665
0.00802021
0.00905337
0.00887702
0.00842303
0.00837988
0.0088033
0.0091722
0.00920635
0.00833195
0.0091712
0.00877587
0.00891857
0.00919319
0.00742054
0.0088942
0.00826678
0.00881616
0.00923812
0.00932726
0.00918534
0.00896175
0.0081632
0.00915245
0.00898499
0.00909227
0.00828829
0.0084981
0.00892108
0.00835942
0.00848742
0.00900699
0.00825635
0.00885461
0.00807342
0.00916075
0.00841462
0.00932261
0.00922236
0.00919048
0.00925971
0.00878719
0.00916759
0.0092506
0.00899717
0.0092208
0.00897883
0.00918521
0.00937221
0.00878294
0.0092476
0.00927376
0.00892801
0.00865194
0.00934064
0.00898377
0.00814405
0.00825188
0.00897209
0.00937699
0.00927889
0.00897652
0.00950417
0.00942876
0.0091276
0.00902259
0.00888474
0.00882043
0.0084888
0.00895896
0.00913901
0.00931251
0.00872266
0.00861071
0.00855356
0.00883225
0.00889023
0.00805219
0.00913294
0.00876949
0.0091164
0.00897254
0.00922379
0.00897206
0.00851194
0.00912164
0.0092645
0.00863216
0.00920956
0.00919931
0.00870739
0.00893482
0.00745699
0.00858836
0.00893074
0.00898049
0.00852743
0.00845942
0.00899175
0.00831873
0.00911975
0.00871746
0.00889169
0.00926011
0.00894315
0.00823329
0.00883067
0.00899278
0.00928172
0.00840981
0.00798133
0.0092369
0.00828978
0.00902904
0.00937601
0.00846312
0.00893328
0.00928753
0.0090388
0.00840509
0.0092209
0.00904068
0.00832358
0.00917658
0.00901721
0.00890341
0.00909221
0.00815353
0.00865988
0.00912741
0.00881787
0.00898969
0.009017
0.00936155
0.00919159
0.00908681
0.00924739
0.00927395
0.00917113
0.00862762
0.00918053
0.00929068
0.00937379
0.00862536
0.00899944
0.00902445
0.00949116
0.00854891
0.00811745
0.00928896
0.00849292
0.00941956
0.00885583
0.00845426
0.00902274
0.00924238
0.00914847
0.00908308
0.00815816
0.00911697
0.00897023
0.00821915
0.00928076
0.00921631
0.00752307
0.00841526
0.00864664
0.00879723
0.00905358
0.00902675
0.00896469
0.00896767
0.00924581
0.00896377
0.00894207
0.00846296
0.00934573
0.00828608
0.00892924
0.00890108
0.00864619
0.00934439
0.00893283
0.00864391
0.00828132
0.00842143
0.00887421
0.00924102
0.00856534
0.00933352
0.00905826
0.0092214
0.00846156
0.00883548
0.00916115
0.00934815
0.00930191
0.00915859
0.00897682
0.0090107
0.00932701
0.0093376
0.00926364
0.0087002
0.009226
0.00843858
0.00929908
0.00916726
0.00895487
0.00855704
0.00888253
0.00795874
0.00928884
0.00910008
0.009395
0.00889654
0.00870888
0.00835185
0.00901832
0.0082681
0.00817311
0.00851938
0.0088155
0.00842237
0.00895306
0.00835074
0.00918436
0.00910631
0.00814895
0.00933661
0.00853727
0.00858764
0.00882399
0.00872498
0.00915956
0.00929522
0.00933991
0.00922655
0.00895342
0.0090188
0.00886457
0.00884453
0.00829711
0.00675952
0.00931371
0.00888559
0.00915658
0.00923118
0.0083529
0.0092652
0.00927747
0.00917009
0.00918663
0.00913404
0.00905092
0.0093551
0.00937343
0.00902525
0.00923736
0.00922437
0.00855122
0.00924807
0.00872077
0.00908663
0.0087373
0.00888544
0.00867604
0.00938775
0.00892075
0.00900254
0.00896185
0.00859476
0.009352
0.00905147
0.00882498
0.00853391
0.00915444
0.00821926
0.0092275
0.00916823
0.00871577
0.00929769
0.00940321
0.00929058
0.00830807
0.00902585
0.00898201
0.00906539
0.00851069
0.00922251
0.00923906
0.00880001
0.00898657
0.00878077
0.00916669
0.00877326
0.0088996
0.00824214
0.00916699
0.00907742
0.00914834
0.00879774
0.00894262
0.00908533
0.00898693
0.00877973
0.00917864
0.00918073
0.00890103
0.00822344
0.00820365
0.00892199
0.00801869
0.00833956
0.00904507
0.00905215
0.00921348
0.00818974
0.00888621
0.009287
0.00859827
0.00826361
0.00899536
0.00849037
0.00916461
0.0086501
0.00924526
0.0086646
0.00876325
0.00935353
0.00820056
0.00880428
0.00887606
0.00921268
0.0093181
0.00926124
0.00855122
0.0090936
0.00929867
0.0087744
0.0093233
0.00923873
0.00909009
0.00907061
0.00899422
0.00936147
0.00940903
0.00936604
0.00912022
0.00874641
0.0091145
0.00895478
0.00823579
0.00883832
0.00922327
0.00925288
0.00936115
0.00895161
0.00929122
0.00925876
0.00878373
0.00924815
0.00921509
0.00909372
0.00923704
0.00838873
0.00882066
0.00911821
0.00813796
0.00903925
0.00890809
0.0089469
0.00887695
0.00934524
0.00915069
0.00921669
0.00883809
0.00915706
0.00898473
0.00931029
0.00903939
0.00888781
0.00850616
0.0092468
0.00863749
0.0088516
0.00895218
0.00886815
0.00906276
0.00931265
0.00844066
0.0092814
0.00849585
0.00908652
0.00886195
0.00885391
0.00891926
0.0092748
0.00835197
0.0091084
0.00925698
0.0093362
0.00908633
0.00895428
0.00805073
0.0091904
0.0092317
0.00906588
0.00914787
0.00923464
0.00905205
0.00923918
0.0089349
0.00853853
0.0089043
0.00931276
0.00822167
0.00856402
0.0094666
0.00920117
0.00871571
0.00889073
0.00902892
0.00867888
0.00892133
0.00860927
0.00922547
0.00931513
0.00812223
0.0090564
0.00926856
0.00925866
0.00945428
0.00887646
0.00923485
0.00856995
0.00854869
0.00927654
0.00921192
0.00896377
0.00858796
0.00919909
0.00921901
0.00873376
0.00934396
0.00925508
0.00927408
0.00912955
0.00918447
0.00908188
0.00904436
0.00887107
0.00872002
0.00835011
0.00902323
0.00899677
0.00852605
0.00926638
0.00832607
0.00884849
0.00892761
0.00847709
0.00890464
0.00876942
0.00903286
0.00898009
0.00922102
0.008475
0.0084702
0.00886861
0.00835147
0.00873609
0.00921629
0.00891012
0.00925234
0.00909564
0.008876
0.00934274
0.00879034
0.00908219
0.00888391
0.00889233
0.00906789
0.00855683
0.00899939
0.00919851
0.00928054
0.00935258
0.00853642
0.00834261
0.00899515
0.0092316
0.00857129
0.00881626
0.00920674
0.00890921
0.0094956
0.00889906
0.00884831
0.00922092
0.00842104
0.00923012
0.00940984
0.00852176
0.00870293
0.00894323
0.00880677
0.00933412
0.0093659
0.00919856
0.0085891
0.00921182
0.0083851
0.00887306
0.00929167
0.00886353
0.0094863
0.0082062
0.00900392
0.00909555
0.00904796
0.00829243
0.00833079
0.00918775
0.00936225
0.00881298
0.00931292
0.00912348
0.00894485
0.00842508
0.00872458
0.00912056
0.00893476
0.00896416
0.00937267
0.00929183
0.00942729
0.00932049
0.00909854
0.00909271
0.00914757
0.00859379
0.00926591
0.00912999
0.00905386
0.0090873
0.00935479
0.00896038
0.00930641
0.00887357
0.0080995
0.00939145
0.00874914
0.00921576
0.00873945
0.00924989
0.00859498
0.00911968
0.00940318
0.00890344
0.00896839
0.00827455
0.00918331
0.00923224
0.00904721
0.00835891
0.00943612
0.00892161
0.00903256
0.00928262
0.00930421
0.00919841
0.00892255
0.00903396
0.00943361
0.0085881
0.00864873
0.00851821
0.00862704
0.00906298
0.00835006
0.00932747
0.00928517
0.00944847
0.00885902
0.00880994
0.00899491
0.00920185
0.0089972
0.00905757
0.00928679
0.00934941
0.0090337
0.00925464
0.00905734
0.00883545
0.00907325
0.00875491
0.00933126
0.00930279
0.00935611
0.00942114
0.00924228
0.00871591
0.00941159
0.00906876
0.00901674
0.00885056
0.00910563
0.00930164
0.00895069
0.00920846
0.00883733
0.00897938
0.00910695
0.00862343
0.00834198
0.00881727
0.00890946
0.00935599
0.00873768
0.00832261
0.00906013
0.0092456
0.00872847
0.00875251
0.00899802
0.00933741
0.00922054
0.00885803
0.00879901
0.00899374
0.00927771
0.00879899
0.00894389
0.00897824
0.00832223
0.00883555
0.00887839
0.00917163
0.00923994
0.00894533
0.00927699
0.0091761
0.00894025
0.00898966
0.00841943
0.00861328
0.00834774
0.0093047
0.00910044
0.00942025
0.0095981
0.0090919
0.00832738
0.00928098
0.00880704
0.00910438
0.00910642
0.0092233
0.00836225
0.00927823
0.00848321
0.00901597
0.0089896
0.00895766
0.00946872
0.00888682
0.00918644
0.00858242
0.00888686
0.00895707
0.00930777
0.00866676
0.00876165
0.00915325
0.00921609
0.00916781
0.00916707
0.00931029
0.00853789
0.00901295
0.00885169
0.00873999
0.00915869
0.00939199
0.00934001
0.00922494
0.00938804
0.00852395
0.00850339
0.00854599
0.00928778
0.0083571
0.00922641
0.00910453
0.00844793
0.00880849
0.00918674
0.0092782
0.00871322
0.00878981
0.0087888
0.00906747
0.00937019
0.00893817
0.00847513
0.0090439
0.00944052
0.00922816
0.00945819
0.00932691
0.00952139
0.00934813
0.00930083
0.00862769
0.00833832
0.00901069
0.00870206
0.00937133
0.0085117
0.00909301
0.00891114
0.00936955
0.00867692
0.00921749
0.00919011
0.00910047
0.0089412
0.00848691
0.00926895
0.00883181
0.00942452
0.0089765
0.00936329
0.0093322
0.0090251
0.0083545
0.008458
0.00891652
0.00917997
0.00868152
0.0095125
0.00855687
0.00915126
0.00916164
0.00879363
0.00912532
0.00915166
0.00933407
0.00932755
0.0093059
0.00905198
0.00908032
0.00833068
0.0087305
0.00937338
0.00863107
0.00916695
0.00893028
0.00855771
0.008923
0.00868284
0.00893052
0.00911927
0.00921859
0.00858429
0.00891972
0.00902806
0.00852328
0.00873023
0.00895541
0.00903916
0.00916629
0.00847296
0.0084383
0.00895996
0.00886467
0.0093887
0.00944126
0.00933164
0.00878527
0.00885123
0.00905704
0.00873777
0.00916121
0.00840738
0.00900032
0.00893883
0.00938506
0.00923149
0.0090052
0.00909673
0.00934313
0.00848293
0.00908566
0.00938131
0.00881253
0.00798151
0.00896222
0.00858739
0.00903684
0.00827322
0.00930504
0.00945402
0.00936222
0.00902941
0.00841561
0.00844446
0.00925574
0.00934217
0.00932237
0.00905721
0.00902844
0.00914766
0.00934593
0.0092252
0.00825643
0.00896911
0.00915789
0.00911451
0.00873055
0.00912932
0.00824648
0.00935983
0.00925951
0.00897513
0.00906444
0.00915348
0.00895083
0.00938951
0.00916937
0.00855992
0.00889896
0.00924785
0.00887313
0.00897626
0.00912849
0.00829471
0.00850526
0.00932558
0.00942002
0.00931231
0.00942615
0.00910203
0.00926458
0.00906324
0.009085
0.00911866
0.00928458
0.00878003
0.00896163
0.00876628
0.00896837
0.00924695
0.00818506
0.0090508
0.00829904
0.00927095
0.0083299
0.0082576
0.0088994
0.00822792
0.00911551
0.00907013
0.00925049
0.00929183
0.00877151
0.00865041
0.00938792
0.00882128
0.00851665
0.00902803
0.00866441
0.00933764
0.00915563
0.00905934
0.00853726
0.00923691
0.00919221
0.00932085
0.00834484
0.00877998
0.00909588
0.00914612
0.00948922
0.00847173
0.00841976
0.00927447
0.00913935
0.00935491
0.00898878
0.00817905
0.00912354
0.00924323
0.00836094
0.00826973
0.0092949
0.0085377
0.00855073
0.00927286
0.00941241
0.00919755
0.00946611
0.00893768
0.008865
0.00932624
0.00865325
0.00931005
0.00877278
0.00898005
0.00926836
0.00891144
0.00836672
0.00921784
0.00922315
0.00879946
0.00895471
0.00900076
0.00872829
0.00813459
0.00902198
0.0090955
0.00923212
0.00880653
0.00901283
0.00838608
0.00919613
0.00939972
0.00826284
0.00917181
0.00909152
0.00807615
0.00837733
0.00904421
0.00895818
0.00925191
0.00887367
0.00854835
0.00921173
0.00934501
0.00927724
0.00913798
0.00932799
0.00843571
0.00933831
0.00898932
0.00851457
0.008423
0.00796088
0.00848432
0.00908132
0.00890686
0.00913372
0.00895523
0.00858303
0.00871078
0.00827125
0.00823081
0.00940527
0.00937487
0.0085961
0.0093405
0.00934224
0.00855129
0.00897234
0.00905614
0.00873113
0.00879583
0.00930425
0.00870085
0.00821003
0.00931745
0.0093451
0.00881267
0.00936925
0.008823
0.00862013
0.00853529
0.0088446
0.00829214
0.00853627
0.00910393
0.00907834
0.00889185
0.00930161
0.00934873
0.00894566
0.00918616
0.00633473
0.00886361
0.00842852
0.00888063
0.00926036
0.00893006
0.00870433
0.00889211
0.00855113
0.00910986
0.00893772
0.00870765
0.00845131
0.00813398
0.00815621
0.00886259
0.00847453
0.00893136
0.00845915
0.00884668
0.00928131
0.00901851
0.00884766
0.00901675
0.00917408
0.00896892
0.00918461
0.00829482
0.00903185
0.00929997
0.00933674
0.00884794
0.00945754
0.00866234
0.00917165
0.00892492
0.00835418
0.00929178
0.00931485
0.00910711
0.00903144
0.00922041
0.00907929
0.0081332
0.00820962
0.00886912
0.00938594
0.00900184
0.00927117
0.00877056
0.00887378
0.00858077
0.00839822
0.00841523
0.0083691
0.00913762
0.00908047
0.00922436
0.00880174
0.0087952
0.00946924
0.00851989
0.00893597
0.00940455
0.00925801
0.00868055
0.00888008
0.00918295
0.00927691
0.0092909
0.00775338
0.00912345
0.00924561
0.00900602
0.00893456
0.00935477
0.00918889
0.00932182
0.00908808
0.00868506
0.00904737
0.00930292
0.00910532
0.00886991
0.00846507
0.00928662
0.00929587
0.00923271
0.00923739
0.00822759
0.00799357
0.00886904
0.0091779
0.00887441
0.00908098
0.0091807
0.0092115
0.00921872
0.00880597
0.00920922
0.00899517
0.00925165
0.00855672
0.0085417
0.00886894
0.00939953
0.00853118
0.00922323
0.0084626
0.00890207
0.00899144
0.00944074
0.00896183
0.00926872
0.00939918
0.00922703
0.00903662
0.00921413
0.00897129
0.00878974
0.00818249
0.00942156
0.007905
0.00842295
0.00779887
0.0081743
0.00828634
0.00888592
0.00908376
0.00848258
0.00875392
0.00804214
0.0085259
0.00866511
0.00935532
0.00831832
0.00837587
0.00918594
0.00832867
0.0087904
0.00905246
0.00920534
0.00882297
0.00840608
0.00817422
0.00870012
0.00943832
0.00864618
0.00830282
0.00914558
0.00876482
0.00904853
0.00895555
0.00853854
0.00925322
0.00816162
0.00836473
0.00884559
0.00927187
0.00880623
0.00890087
0.00892454
0.00895142
0.00812622
0.00858405
0.00885306
0.00917544
0.00919189
0.00839554
0.0080352
0.00885289
0.00937686
0.00891519
0.00900439
0.00859071
0.00886535
0.0089534
0.0083899
0.00931564
0.00873701
0.00835508
0.00805152
0.00914166
0.00896852
0.00931354
0.00899963
0.00925025
0.00843355
0.0088529
0.00818032
0.00806015
0.0092609
0.0085371
0.00897565
0.00900246
0.00862626
0.00836152
0.00932711
0.00922934
0.00936003
0.00908036
0.00785871
0.00892517
0.00813032
0.00931057
0.0085038
0.00928349
0.00804191
0.00914244
0.00917645
0.00872493
0.00876054
0.00816751
0.00868345
0.00894562
0.00915506
0.00911845
0.00936344
0.00919983
0.00851054
0.00934393
0.00810372
0.00905087
0.00913037
0.0092818
0.00924659
0.00873622
0.00937587
0.00891172
0.00875395
0.00871988
0.00901322
0.00921106
0.00867524
0.00841932
0.00932595
0.00915408
0.0088497
0.00928941
0.0090862
0.0091193
0.00915742
0.00920269
0.00921636
0.00888375
0.00887807
0.00926202
0.00919176
0.00807253
0.00894937
0.00856186
0.00936651
0.00912301
0.00928269
0.0083773
0.00835357
0.00900425
0.00904189
0.0090515
0.00913602
0.00922797
0.00893616
0.0091425
0.0084814
0.0090982
0.00886007
0.00932288
0.00923779
0.00929908
0.00907337
0.00931607
0.00869838
0.00928163
0.00861147
0.00886087
0.00880058
0.00902854
0.00886306
0.00914789
0.00828005
0.00927664
0.00911945
0.00886451
0.00840348
0.00929806
0.00906869
0.00922542
0.00889372
0.00897016
0.00924293
0.00836187
0.00928409
0.00896247
0.00901204
0.00860718
0.00869399
0.00876992
0.008336
0.00879974
0.00944227
0.00905467
0.00802241
0.00903214
0.00830794
0.00908145
0.00912029
0.00820087
0.00823978
0.00872729
0.00902242
0.00923492
0.0087756
0.00883166
0.00894476
0.00808482
0.00882177
0.00929238
0.00924255
0.00928775
0.00892868
0.00916229
0.00848253
0.00850882
0.00942527
0.00897622
0.00911959
0.00915001
0.00937775
0.00901401
0.00899467
0.00819556
0.00903267
0.00925874
0.00871378
0.00924805
0.00917156
0.00907474
0.00850788
0.00907897
0.00884271
0.00796612
0.00906723
0.00863461
0.00840388
0.0090877
0.00899155
0.00921875
0.00921728
0.00906619
0.00943126
0.00797011
0.00876101
0.00923983
0.00933237
0.00815673
0.00913117
0.00849545
0.00863375
0.00933311
0.00861088
0.00909793
0.00941872
0.00916213
0.00813269
0.0091583
0.00848392
0.00924149
0.00912491
0.00909706
0.00927504
0.0090519
0.00922511
0.00837923
0.0090961
0.00924111
0.00844492
0.0090835
0.00899116
0.00880237
0.0092285
0.008798
0.00926171
0.00934231
0.00933077
0.00891357
0.00919861
0.00903288
0.00911322
0.00869978
0.00862968
0.00834083
0.00821517
0.0091012
0.00918912
0.00896547
0.00937301
0.00859487
0.00934622
0.00820675
0.00941995
0.00937284
0.00919241
0.00934427
0.00868021
0.00817164
0.008901
0.00842763
0.00928423
0.00894893
0.00823629
0.00884645
0.00945638
0.00910881
0.00834371
0.00864452
0.00817272
0.00944863
0.00836502
0.00923641
0.00858808
0.00855793
0.00930963
0.00930628
0.00929056
0.00912469
0.00820233
0.00899447
0.00932042
0.00849202
0.00938307
0.00890407
0.00944049
0.00798566
0.00906449
0.00862818
0.00899461
0.00872146
0.00883587
0.0087911
0.00864975
0.00888403
0.00891136
0.00893925
0.00881605
0.00938977
0.00844001
0.0089396
0.00892345
0.00911139
0.00935211
0.00853999
0.00919931
0.00842609
0.00888665
0.00926474
0.00918776
0.00889592
0.00910499
0.00912579
0.00862595
0.0089395
0.00887173
0.00831
0.00829648
0.00914869
0.00919367
0.00850715
0.00885413
0.00918997
0.0084444
0.00905603
0.00856026
0.00914686
0.00934969
0.0089309
0.00838942
0.0092035
0.00822527
0.00908573
0.00938657
0.00793879
0.00950623
0.00845149
0.00881539
0.00869285
0.00839599
0.00885048
0.00872702
0.00820858
0.00931283
0.00928019
0.00789413
0.0087866
0.00895631
0.00899266
0.00912756
0.00938879
0.00923073
0.00869342
0.00861659
0.00820264
0.00811138
0.00751404
0.00934436
0.00901329
0.00910805
0.00917341
0.00837311
0.00827479
0.00889078
0.00925607
0.00820663
0.00917837
0.00893852
0.00894684
0.00909946
0.00871137
0.00908241
0.00881889
0.00895089
0.00932991
0.00786935
0.00897906
0.00898346
0.00925163
0.00904405
0.00923515
0.00899748
0.00843647
0.00938359
0.00958675
0.0089672
0.00885962
0.00842299
0.00877891
0.00910048
0.00928371
0.00885519
0.00886553
0.00876671
0.00814552
0.0087347
0.00932061
0.00880519
0.00952382
0.00896998
0.00877333
0.00931034
0.00837034
0.00914205
0.00834812
0.00933031
0.00911253
0.00877558
0.00949605
0.00874876
0.00895746
0.00930062
0.00884915
0.00911404
0.0088001
0.00915711
0.00837862
0.00896127
0.00892483
0.00848714
0.00920622
0.00875876
0.00868187
0.00931515
0.00846335
0.00932435
0.00887019
0.00923892
0.00859802
0.00905198
0.00842144
0.00840357
0.00926306
0.00846191
0.00887111
0.00919118
0.00815667
0.00886685
0.00915452
0.00877147
0.00831791
0.00868327
0.00890489
0.00878741
0.00903706
0.00891629
0.00916914
0.00872385
0.0092363
0.0080585
0.00824194
0.00933981
0.00872775
0.00815416
0.00831225
0.00896019
0.00734404
0.00831913
0.00895081
0.0089365
0.00945157
0.00850535
0.00925214
0.00925306
0.00929517
0.00927052
0.00938005
0.00883097
0.00873284
0.00922139
0.0087754
0.00873421
0.00912011
0.00879304
0.00805952
0.00833324
0.00884493
0.00771987
0.00913645
0.00916749
0.00876671
0.00920267
0.00925335
0.00897372
0.00954077
0.00862854
0.00824567
0.00880442
0.00885482
0.00911634
0.00874178
0.00901471
0.00930878
0.00882283
0.00868683
0.00895848
0.00941593
0.00919427
0.00948954
0.00921223
0.00889924
0.00899607
0.00861413
0.00867462
0.00939678
0.00868788
0.00938638
0.00876119
0.00921402
0.00790083
0.00910287
0.00894398
0.00901148
0.00861011
0.00913844
0.00891352
0.00921884
0.00795538
0.00866242
0.00894557
0.00874919
0.00899803
0.00895522
0.0089937
0.00926447
0.00898809
0.00818089
0.0086312
0.00835793
0.0089925
0.00894288
0.00840396
0.00948407
0.00903464
0.00899425
0.00924212
0.0085841
0.00841012
0.00936169
0.00838356
0.00823256
0.00808486
0.00815608
0.00802301
0.00874245
0.00937125
0.00927909
0.00888861
0.00897909
0.00913204
0.00870545
0.00913055
0.00822052
0.00927475
0.00629279
0.00911961
0.00831005
0.00817486
0.00916841
0.0083429
0.00906538
0.00913083
0.00921622
0.00847046
0.00906765
0.00889582
0.00895763
0.00834159
0.00923493
0.0090591
0.00925981
0.00907382
0.0084066
0.0089443
0.00895362
0.00872743
0.00806813
0.00860297
0.00856344
0.00823325
0.00833388
0.00896042
0.00868112
0.00832186
0.00868611
0.0091861
0.00926713
0.00934592
0.00651258
0.00824124
0.00923097
0.00830309
0.0091081
0.00815653
0.00936138
0.00912168
0.0091901
0.00839568
0.00892716
0.00931307
0.00930111
0.00905846
0.00922557
0.00896773
0.00894858
0.00892226
0.00831587
0.0089902
0.00870421
0.00868561
0.00869647
0.00813354
0.00891648
0.0092715
0.00847767
0.00863975
0.00832421
0.00915711
0.00911007
0.0081364
0.00882187
0.00895789
0.00907402
0.0083522
0.00896166
0.00902124
0.00954317
0.00749374
0.00900114
0.00886064
0.0082629
0.0093224
0.00859035
0.00848823
0.00907354
0.00937623
0.0082841
0.00926951
0.00907153
0.00830681
0.00822829
0.00921113
0.00932908
0.00831918
0.00902248
0.00819439
0.00865076
0.00933871
0.00859414
0.00907463
0.00898906
0.00941978
0.00878493
0.00876377
0.0085935
0.00884609
0.00901941
0.00870561
0.00919747
0.00839493
0.00836041
0.00903104
0.00884438
0.00919388
0.00872176
0.00920787
0.00909916
0.00905085
0.00925217
0.00911116
0.00879337
0.00846145
0.00914955
0.00886155
0.00871082
0.00903762
0.00938757
0.00918439
0.00874753
0.00830829
0.009013
0.00852778
0.00812211
0.00864543
0.00883621
0.00807362
0.00909597
0.00848442
0.00776079
0.00827857
0.00901282
0.00783579
0.0088163
0.00916002
0.00897904
0.00818672
0.00899966
0.00952992
0.00837618
0.00807759
0.00847689
0.00913207
0.00893028
0.00881839
0.00919248
0.0083202
0.00921803
0.00898208
0.00935473
0.00927942
0.00642431
0.00900151
0.00907284
0.00910933
0.0086639
0.00886951
0.00772263
0.00887277
0.00932954
0.00872021
0.00821115
0.00884787
0.00914751
0.00908613
0.00809203
0.00902076
0.0092214
0.00934157
0.00891048
0.00901376
0.00816605
0.00820122
0.00817861
0.00896285
0.0088494
0.00908333
0.00942221
0.00918755
0.00793758
0.00927104
0.00922084
0.00921431
0.00876846
0.00927676
0.00847441
0.00850893
0.00876666
0.00890297
0.00857281
0.0081345
0.0090731
0.00864601
0.00917965
0.00857171
0.00773295
0.00873416
0.00910142
0.00890199
0.008378
0.00857128
0.00916257
0.00923984
0.00861262
0.00883887
0.00912775
0.00934066
0.00911349
0.0093872
0.00909388
0.00910048
0.00809137
0.00896152
0.00843447
0.00920658
0.00891314
0.00867338
0.00825106
0.00936393
0.00808564
0.00870858
0.00819751
0.00869645
0.00785851
0.00886344
0.00891149
0.00892006
0.0087241
0.00861514
0.0092204
0.00833806
0.00911123
0.00867341
0.00885247
0.00790958
0.00913915
0.00884979
0.00845722
0.00861281
0.0088965
0.00883795
0.00891357
0.00731939
0.0090075
0.00878727
0.00883552
0.00852814
0.00868846
0.00867107
0.007427
0.00914531
0.00891923
0.00526345
0.00849086
0.00919516
0.00912512
0.00913332
0.00852874
0.007579
0.00923113
0.00843418
0.0092043
0.0093931
0.00889335
0.00853794
0.00927988
0.00817119
0.00787842
0.00795659
0.00896551
0.00888377
0.00858817
0.00938517
0.00915276
0.00900735
0.00851472
0.00804046
0.00942407
0.00902262
0.00946239
0.00915937
0.00824588
0.00869099
0.00885875
0.00834826
0.00890664
0.00875247
0.00896752
0.00955662
0.00883837
0.00893609
0.00838247
0.00871924
0.00862498
0.0089729
0.00879614
0.0081714
0.00842906
0.00895847
0.00913806
0.00831079
0.00902759
0.00858861
0.00916512
0.00834858
0.00837405
0.00743642
0.00926937
0.00923819
0.00907558
0.00909736
0.00871836
0.00831127
0.00818727
0.00760825
0.00884978
0.00819298
0.00877826
0.00867852
0.0091388
0.00871799
0.00914337
0.00843259
0.00543999
0.00838112
0.00917999
0.00597372
0.00895574
0.00944248
0.00879142
0.00939249
0.00827513
0.0084463
0.00845929
0.00934066
0.00715678
0.00927168
0.00840442
0.00768398
0.00920882
0.00847174
0.00926771
0.0057073
0.00802246
0.008939
0.00914548
0.00934225
0.00910009
0.00927833
0.00910773
0.00911323
0.00925263
0.00911926
0.00891556
0.0086004
0.00740121
0.00913649
0.00858669
0.00865966
0.00924023
0.00922544
0.00888281
0.00811643
0.00934459
0.009147
0.00881325
0.008279
0.00820733
0.00907659
0.00919963
0.00927833
0.00919146
0.00885274
0.00902741
0.00826401
0.00913349
0.00888635
0.0091171
0.00863502
0.00823554
0.00769252
0.00878824
0.00949508
0.00911626
0.00872845
0.00848226
0.00877293
0.00831462
0.00818512
0.00909791
0.00862737
0.00681183
0.00726246
0.00775448
0.00823944
0.0089048
0.00868286
0.00877447
0.00872106
0.0079233
0.00880207
0.00921248
0.00789462
0.00950778
0.00805867
0.00920266
0.00843612
0.00921698
0.0090123
0.00903912
0.00910744
0.00859737
0.00830231
0.00850813
0.00860052
0.00909477
0.00890506
0.00848565
0.00844549
0.00891985
0.00811735
0.00889409
0.00850598
0.00913957
0.00855158
0.00879755
0.00683357
0.00925707
0.00935453
0.00894396
0.00915897
0.00882112
0.00881829
0.00897484
0.00905129
0.00906659
0.0092567
0.00906481
0.00809635
0.0080307
0.00951163
0.00828335
0.00807414
0.00802394
0.00886888
0.00924499
0.00880561
0.00940896
0.00947356
0.00921462
0.00916629
0.0087299
0.00824794
0.00873506
0.00762962
0.00904187
0.00881919
0.00870763
0.00874064
0.00852507
0.00875162
0.00931443
0.00793573
0.00850735
0.0087752
0.00799822
0.00917226
0.00763599
0.00787097
0.00811475
0.00894301
0.00843625
0.00815894
0.00846481
0.0081927
0.00881635
0.00745147
0.00743237
0.00876832
0.00823536
0.00790593
0.00882867
0.00823614
0.00860848
0.00872469
0.00848671
0.00813941
0.00880747
0.0083665
0.00848949
0.00811407
0.00862084
0.00854418
0.00764062
0.00918187
0.00874039
0.00879366
0.00844038
0.00836711
0.00810811
0.00884699
0.00880595
0.00924071
0.00894122
0.00899204
0.00865471
0.00896432
0.00917072
0.00901593
0.0070768
0.00734181
0.00797472
0.00911213
0.00806416
0.00899921
0.00722958
0.00854308
0.00893833
0.00845309
0.00865389
0.0086148
0.0086048
0.00864897
0.00934441
0.00841171
0.00858158
0.00930546
0.00789581