/*--------------------------------*- C++ -*----------------------------------*\
| =========                 |                                                 |
| \\      /  F ield         | OpenFOAM: The Open Source CFD Toolbox           |
|  \\    /   O peration     | Version:  2212                                  |
|   \\  /    A nd           | Website:  www.openfoam.com                      |
|    \\/     M anipulation  |                                                 |
\*---------------------------------------------------------------------------*/
FoamFile
{
    version     2.0;
    format      ascii;
    arch        "LSB;label=32;scalar=64";
    class       volScalarField;
    location    "0.056";
    object      nut;
}
// * * * * * * * * * * * * * * * * * * * * * * * * * * * * * * * * * * * * * //

dimensions      [0 2 -1 0 0 0 0];

internalField   nonuniform List<scalar> 
31639
(
3.13875e-05
3.03655e-05
3.08396e-05
3.38779e-05
3.01567e-05
2.94107e-05
2.84464e-05
3.1609e-05
3.0806e-05
3.28655e-05
3.23436e-05
3.27399e-05
3.10136e-05
3.33168e-05
2.94554e-05
2.73739e-05
3.16193e-05
2.89949e-05
2.73665e-05
3.07477e-05
2.31893e-05
3.28415e-05
3.31867e-05
2.74318e-05
2.67375e-05
3.04804e-05
3.05643e-05
2.55548e-05
2.8597e-05
3.33765e-05
3.29652e-05
2.81252e-05
3.34275e-05
2.67012e-05
2.47604e-05
3.32326e-05
2.16923e-05
3.43031e-05
3.31625e-05
2.08676e-05
2.4585e-05
2.45862e-05
3.26738e-05
3.25331e-05
3.21158e-05
3.29036e-05
2.94935e-05
2.91716e-05
3.16929e-05
3.36111e-05
3.28167e-05
2.14828e-05
3.33177e-05
2.25703e-05
2.85708e-05
3.09126e-05
2.32064e-05
3.0718e-05
3.01587e-05
2.3448e-05
3.04551e-05
3.23193e-05
2.69122e-05
3.04385e-05
3.10921e-05
3.37936e-05
3.02966e-05
3.06644e-05
2.58053e-05
3.35828e-05
3.27701e-05
2.80678e-05
3.22635e-05
3.08418e-05
3.2741e-05
2.48307e-05
3.25945e-05
2.89424e-05
2.94314e-05
3.16709e-05
2.70753e-05
2.04999e-05
3.32827e-05
3.13065e-05
3.15561e-05
3.26722e-05
3.34403e-05
3.31866e-05
2.56458e-05
3.38115e-05
3.10962e-05
3.07351e-05
2.38294e-05
2.96877e-05
2.61144e-05
2.976e-05
2.93322e-05
3.06638e-05
3.09796e-05
2.36878e-05
3.30345e-05
3.22094e-05
2.97602e-05
2.30443e-05
2.34904e-05
3.30696e-05
2.31034e-05
2.19184e-05
2.60991e-05
2.27216e-05
3.23855e-05
2.38706e-05
2.97302e-05
2.82045e-05
3.07555e-05
2.25065e-05
2.94519e-05
2.96853e-05
3.1441e-05
3.01039e-05
3.22205e-05
3.24822e-05
3.24642e-05
3.08975e-05
3.06807e-05
3.30209e-05
3.05716e-05
2.64018e-05
2.55679e-05
3.2303e-05
3.29444e-05
3.26645e-05
3.30166e-05
2.87273e-05
3.22925e-05
3.06523e-05
2.35828e-05
2.23767e-05
3.24527e-05
3.06627e-05
3.05727e-05
3.26405e-05
3.28277e-05
2.25712e-05
2.14633e-05
3.3161e-05
3.18801e-05
2.42837e-05
2.43266e-05
3.26665e-05
2.63177e-05
3.15681e-05
2.74873e-05
3.17065e-05
2.52768e-05
3.36708e-05
3.0189e-05
2.52405e-05
2.49562e-05
2.73131e-05
3.31814e-05
2.53586e-05
2.65278e-05
2.32057e-05
2.38366e-05
2.99321e-05
2.50092e-05
3.36177e-05
3.26678e-05
2.294e-05
2.91412e-05
2.85637e-05
2.44452e-05
3.07535e-05
3.38253e-05
3.16916e-05
3.10374e-05
3.35317e-05
3.07962e-05
3.07879e-05
2.95235e-05
2.92222e-05
2.90948e-05
2.13601e-05
3.06641e-05
3.40533e-05
3.03606e-05
3.34828e-05
2.39195e-05
2.3856e-05
3.46534e-05
3.21862e-05
3.18213e-05
3.01712e-05
3.0798e-05
2.8894e-05
2.86207e-05
3.23677e-05
2.3247e-05
2.8755e-05
3.30749e-05
3.37632e-05
3.23876e-05
3.19773e-05
2.98947e-05
2.99974e-05
2.98551e-05
2.91002e-05
3.28955e-05
2.13215e-05
3.02323e-05
2.89986e-05
3.14626e-05
3.25329e-05
3.22992e-05
3.32922e-05
2.46142e-05
2.74426e-05
3.25862e-05
3.2005e-05
3.17627e-05
2.98118e-05
2.32264e-05
2.95585e-05
2.34335e-05
2.88297e-05
3.23134e-05
2.74626e-05
2.4399e-05
3.15735e-05
3.1371e-05
3.38412e-05
2.53489e-05
2.37438e-05
3.14702e-05
3.17994e-05
2.32533e-05
3.34932e-05
2.66004e-05
2.30454e-05
2.96303e-05
3.15399e-05
3.02345e-05
2.75937e-05
2.71124e-05
3.16859e-05
2.96286e-05
2.90821e-05
2.44851e-05
3.00906e-05
2.9287e-05
2.46703e-05
2.76846e-05
3.35277e-05
3.22144e-05
2.83329e-05
2.49213e-05
3.21309e-05
3.21989e-05
3.03995e-05
3.37055e-05
3.30496e-05
3.02876e-05
3.30752e-05
2.94736e-05
2.92412e-05
2.26673e-05
2.70785e-05
3.32287e-05
2.92067e-05
3.14364e-05
2.80226e-05
3.0245e-05
3.37056e-05
3.38814e-05
3.11383e-05
2.37103e-05
2.92165e-05
2.65215e-05
3.29597e-05
2.95457e-05
3.34992e-05
3.34945e-05
2.86647e-05
2.43449e-05
2.6514e-05
2.51465e-05
2.31907e-05
3.29516e-05
2.56855e-05
3.20205e-05
2.98772e-05
2.77347e-05
2.52182e-05
3.40668e-05
2.83328e-05
2.79387e-05
3.27836e-05
3.06271e-05
2.67869e-05
2.97538e-05
2.59136e-05
3.05661e-05
2.97837e-05
2.4433e-05
2.8388e-05
2.90035e-05
2.0481e-05
2.20666e-05
3.29387e-05
3.32878e-05
3.18483e-05
2.30807e-05
2.53119e-05
3.21894e-05
2.58593e-05
2.56115e-05
3.31511e-05
3.40414e-05
2.97055e-05
3.27502e-05
3.35547e-05
2.47446e-05
3.2776e-05
2.26281e-05
2.26773e-05
3.33006e-05
3.28604e-05
3.30363e-05
3.37721e-05
3.21351e-05
2.52563e-05
3.0314e-05
2.99531e-05
3.30827e-05
3.37532e-05
3.41148e-05
2.98721e-05
2.89004e-05
3.1906e-05
3.21422e-05
3.11804e-05
2.9537e-05
2.95279e-05
2.95821e-05
2.99128e-05
3.13409e-05
2.98261e-05
2.46652e-05
3.08795e-05
3.36562e-05
2.86767e-05
3.25501e-05
3.34712e-05
3.02447e-05
2.44043e-05
3.01297e-05
3.00216e-05
2.30135e-05
3.43635e-05
2.55707e-05
3.08673e-05
3.23822e-05
2.22618e-05
3.03688e-05
3.01652e-05
2.3806e-05
3.05426e-05
2.50039e-05
2.99859e-05
3.32764e-05
3.14919e-05
2.203e-05
3.10021e-05
2.51246e-05
3.1107e-05
3.28657e-05
3.32218e-05
3.28553e-05
2.55343e-05
3.25029e-05
2.32927e-05
2.95654e-05
2.28533e-05
3.34351e-05
3.24905e-05
3.30887e-05
3.27831e-05
2.65701e-05
3.33361e-05
3.01405e-05
3.1818e-05
2.99097e-05
2.57764e-05
2.98345e-05
3.17806e-05
3.18297e-05
3.20789e-05
3.04708e-05
3.20524e-05
2.92709e-05
2.4782e-05
2.96101e-05
3.1404e-05
3.18088e-05
2.21326e-05
3.29863e-05
3.28373e-05
2.99234e-05
3.14918e-05
3.19259e-05
3.04472e-05
3.35302e-05
2.33927e-05
3.12172e-05
3.28942e-05
2.23516e-05
3.01817e-05
3.13245e-05
2.5159e-05
2.36328e-05
2.36048e-05
2.80392e-05
2.35117e-05
2.9839e-05
2.96006e-05
2.80143e-05
3.31441e-05
2.41477e-05
3.24687e-05
3.33458e-05
3.02971e-05
3.24319e-05
2.87304e-05
3.3054e-05
2.99342e-05
3.0535e-05
3.37519e-05
3.02123e-05
2.40496e-05
3.05047e-05
3.28943e-05
3.28228e-05
3.17655e-05
3.32456e-05
2.94895e-05
3.10644e-05
3.24135e-05
3.36506e-05
3.26395e-05
2.47324e-05
2.9805e-05
2.13095e-05
2.93831e-05
2.97291e-05
2.40943e-05
2.32534e-05
2.82499e-05
3.20945e-05
3.24581e-05
2.37644e-05
3.19104e-05
2.76286e-05
3.00811e-05
3.20329e-05
2.28432e-05
2.98406e-05
2.26969e-05
2.93009e-05
3.29398e-05
3.35371e-05
3.23306e-05
2.9553e-05
2.27796e-05
3.16052e-05
3.06809e-05
3.18575e-05
2.30777e-05
2.45995e-05
3.00185e-05
2.37861e-05
2.50847e-05
3.05917e-05
2.28932e-05
2.88272e-05
2.29864e-05
3.16053e-05
2.42548e-05
3.3637e-05
3.26807e-05
3.2534e-05
3.3012e-05
2.71539e-05
3.24493e-05
3.29443e-05
3.04758e-05
3.23633e-05
3.05991e-05
3.26182e-05
3.31825e-05
2.77538e-05
3.27501e-05
3.32206e-05
3.01569e-05
2.71595e-05
3.37504e-05
3.05211e-05
2.2062e-05
2.2544e-05
3.0357e-05
3.34735e-05
3.33198e-05
3.0098e-05
3.41738e-05
3.34329e-05
3.20755e-05
3.0704e-05
2.88993e-05
2.89176e-05
2.49577e-05
3.02507e-05
3.12239e-05
3.34095e-05
2.64296e-05
2.61322e-05
2.56497e-05
2.92083e-05
2.98712e-05
2.16307e-05
3.15074e-05
2.75828e-05
3.15798e-05
2.98762e-05
3.27985e-05
2.96978e-05
2.49205e-05
3.17107e-05
3.33424e-05
2.61732e-05
3.25394e-05
3.34683e-05
2.96955e-05
2.99942e-05
2.55982e-05
2.58353e-05
3.01539e-05
3.04504e-05
2.51599e-05
2.46448e-05
3.05665e-05
2.62281e-05
3.1585e-05
2.66251e-05
2.92072e-05
3.30274e-05
3.01603e-05
2.32903e-05
2.76088e-05
3.05966e-05
3.3274e-05
2.40419e-05
2.10956e-05
3.25863e-05
2.32774e-05
3.09918e-05
3.3818e-05
2.43717e-05
3.02446e-05
3.25985e-05
3.00128e-05
2.36442e-05
3.28353e-05
3.00276e-05
2.40864e-05
3.25625e-05
3.09373e-05
2.97808e-05
3.17407e-05
2.21399e-05
2.71391e-05
3.11408e-05
2.83521e-05
2.82111e-05
2.95144e-05
3.28219e-05
3.2662e-05
3.1633e-05
3.27468e-05
3.32456e-05
3.22327e-05
2.65972e-05
3.24302e-05
3.30137e-05
3.3539e-05
2.62369e-05
3.06346e-05
3.04477e-05
3.46974e-05
2.52536e-05
2.19173e-05
3.34404e-05
2.55824e-05
3.43717e-05
2.93558e-05
2.47279e-05
3.04783e-05
3.29094e-05
3.09484e-05
3.11717e-05
2.27826e-05
3.19692e-05
3.04507e-05
2.2459e-05
3.31661e-05
3.2554e-05
2.51206e-05
2.4306e-05
2.55989e-05
2.80609e-05
3.11207e-05
3.06805e-05
3.00777e-05
3.04928e-05
3.28541e-05
3.02571e-05
2.99374e-05
2.4502e-05
3.38853e-05
2.29997e-05
3.02391e-05
2.90322e-05
2.79983e-05
3.37403e-05
3.02861e-05
2.64214e-05
2.32242e-05
2.40751e-05
2.89707e-05
3.29514e-05
2.60846e-05
3.37024e-05
2.99556e-05
3.28075e-05
2.45511e-05
2.92661e-05
3.20015e-05
3.39673e-05
3.33196e-05
3.24363e-05
3.06438e-05
3.0193e-05
3.35975e-05
3.35506e-05
3.28826e-05
2.66634e-05
3.27437e-05
2.45751e-05
3.31626e-05
3.11078e-05
3.00925e-05
2.54432e-05
2.96169e-05
2.11275e-05
3.33421e-05
3.06235e-05
3.38201e-05
2.97993e-05
2.84483e-05
2.42348e-05
3.2785e-05
2.32935e-05
2.17766e-05
2.49108e-05
2.69015e-05
2.43756e-05
2.98874e-05
2.33092e-05
3.26769e-05
3.11379e-05
2.19286e-05
3.3416e-05
2.50552e-05
2.68597e-05
2.9378e-05
2.78941e-05
3.17706e-05
3.3487e-05
3.39965e-05
3.25577e-05
2.9762e-05
3.10164e-05
2.8585e-05
2.87172e-05
2.33347e-05
1.75963e-05
3.34781e-05
2.97323e-05
3.19535e-05
3.27512e-05
2.3829e-05
3.29842e-05
3.30155e-05
3.22961e-05
3.24954e-05
3.20779e-05
3.11133e-05
3.37627e-05
3.39443e-05
3.05353e-05
3.26768e-05
3.26028e-05
2.53381e-05
3.28429e-05
2.77073e-05
3.1021e-05
2.88048e-05
2.99704e-05
2.71412e-05
3.37647e-05
2.98618e-05
3.04943e-05
2.94357e-05
2.5399e-05
3.38031e-05
3.07384e-05
2.8159e-05
2.47275e-05
3.22417e-05
2.29456e-05
3.30849e-05
3.18333e-05
2.85728e-05
3.25319e-05
3.41757e-05
3.27655e-05
2.33738e-05
3.09354e-05
2.9318e-05
3.04895e-05
2.52903e-05
3.27855e-05
3.27877e-05
2.89298e-05
3.03246e-05
2.90231e-05
3.16706e-05
2.80148e-05
2.94698e-05
2.27828e-05
3.24111e-05
3.11236e-05
3.24679e-05
2.70609e-05
3.0335e-05
3.1399e-05
3.02874e-05
2.7703e-05
3.20934e-05
3.24562e-05
2.96212e-05
2.28758e-05
2.26509e-05
2.99678e-05
2.17311e-05
2.46338e-05
3.07263e-05
3.10119e-05
3.29016e-05
2.25902e-05
2.98929e-05
3.33037e-05
2.5801e-05
2.34112e-05
3.09207e-05
2.51103e-05
3.12961e-05
2.60141e-05
3.25439e-05
2.66996e-05
2.78076e-05
3.36893e-05
2.26983e-05
2.91185e-05
2.96069e-05
3.25842e-05
3.32283e-05
3.32999e-05
2.50812e-05
3.18678e-05
3.29352e-05
2.79398e-05
3.36241e-05
3.26414e-05
3.10969e-05
3.25673e-05
3.06948e-05
3.35422e-05
3.41279e-05
3.36215e-05
3.18223e-05
2.80959e-05
3.14269e-05
3.04069e-05
2.34632e-05
2.9438e-05
3.20065e-05
3.29644e-05
3.31897e-05
2.98773e-05
3.33871e-05
3.28904e-05
2.93757e-05
3.25791e-05
3.26925e-05
3.16104e-05
3.22057e-05
2.40786e-05
2.87147e-05
3.20211e-05
2.18072e-05
3.04769e-05
2.97234e-05
2.93137e-05
2.9475e-05
3.37603e-05
3.2045e-05
3.28384e-05
2.91586e-05
3.19305e-05
3.04976e-05
3.29654e-05
3.08987e-05
2.87247e-05
2.47977e-05
3.28143e-05
2.52225e-05
2.91021e-05
2.9489e-05
2.93751e-05
3.10125e-05
3.36335e-05
2.43035e-05
3.29786e-05
2.50388e-05
3.14335e-05
2.83449e-05
2.94697e-05
2.98395e-05
3.33072e-05
2.39196e-05
3.19035e-05
3.29862e-05
3.27902e-05
3.08888e-05
2.99238e-05
2.16376e-05
3.25106e-05
3.25011e-05
3.11775e-05
3.23822e-05
3.29401e-05
3.11948e-05
3.15759e-05
3.06143e-05
2.55093e-05
2.91833e-05
3.34883e-05
2.31826e-05
2.59023e-05
3.43033e-05
3.27256e-05
2.75439e-05
2.89798e-05
3.02294e-05
2.70994e-05
2.99912e-05
2.62791e-05
3.26499e-05
3.30457e-05
2.16945e-05
3.07473e-05
3.33742e-05
3.24615e-05
3.35747e-05
2.99317e-05
3.28584e-05
2.55524e-05
2.54081e-05
3.34153e-05
3.26481e-05
3.05294e-05
2.58563e-05
3.24814e-05
3.26295e-05
2.67433e-05
3.32935e-05
3.30053e-05
3.31074e-05
3.14301e-05
3.24801e-05
3.08353e-05
3.12775e-05
2.99059e-05
2.77562e-05
2.39619e-05
3.08086e-05
3.07543e-05
2.55142e-05
3.32209e-05
2.33677e-05
2.92766e-05
2.95137e-05
2.46501e-05
2.95392e-05
2.8079e-05
3.11421e-05
3.00494e-05
3.23492e-05
2.43505e-05
2.42373e-05
2.9055e-05
2.39555e-05
2.86175e-05
3.28192e-05
2.98348e-05
3.29592e-05
3.00933e-05
2.97906e-05
3.32261e-05
2.81499e-05
3.04924e-05
2.99501e-05
2.97873e-05
3.08057e-05
2.53287e-05
3.04512e-05
3.21273e-05
3.34727e-05
3.37806e-05
2.44954e-05
2.37893e-05
3.0409e-05
3.29938e-05
2.61165e-05
2.9019e-05
3.16364e-05
3.00406e-05
3.46436e-05
2.92644e-05
2.94318e-05
3.17805e-05
2.4374e-05
3.27958e-05
3.33176e-05
2.51034e-05
2.7129e-05
3.03493e-05
2.82162e-05
3.34775e-05
3.35712e-05
3.14578e-05
2.54641e-05
3.27254e-05
2.41256e-05
2.92091e-05
3.25047e-05
2.79669e-05
3.41673e-05
2.2752e-05
3.05589e-05
3.13958e-05
3.05968e-05
2.28443e-05
2.37528e-05
3.27453e-05
3.35496e-05
2.82476e-05
3.36034e-05
3.13255e-05
3.0246e-05
2.40729e-05
2.64154e-05
3.11067e-05
2.98338e-05
3.01375e-05
3.376e-05
3.35445e-05
3.38678e-05
3.36908e-05
3.10829e-05
3.08697e-05
3.21552e-05
2.49355e-05
3.25401e-05
3.18536e-05
3.1112e-05
3.09785e-05
3.33328e-05
2.93171e-05
3.34927e-05
2.94303e-05
2.19392e-05
3.3981e-05
2.71245e-05
3.26856e-05
2.78946e-05
3.31622e-05
2.53276e-05
3.18526e-05
3.40943e-05
2.95973e-05
3.04565e-05
2.30814e-05
3.25894e-05
3.27163e-05
3.15683e-05
2.38985e-05
3.45573e-05
2.96688e-05
3.15e-05
3.27364e-05
3.30757e-05
3.24037e-05
3.01092e-05
2.96794e-05
3.38331e-05
2.53616e-05
2.56388e-05
2.48216e-05
2.64708e-05
3.1054e-05
2.36455e-05
3.35565e-05
3.30724e-05
3.36125e-05
2.92233e-05
2.92111e-05
3.04595e-05
3.24122e-05
3.04995e-05
2.99024e-05
3.31464e-05
3.2648e-05
2.94399e-05
3.31254e-05
3.11417e-05
2.92513e-05
3.14925e-05
2.76565e-05
3.32626e-05
3.31822e-05
3.39011e-05
3.38857e-05
3.26538e-05
2.74713e-05
3.40547e-05
3.06125e-05
3.05154e-05
2.95666e-05
3.13306e-05
3.35241e-05
3.0299e-05
3.24966e-05
2.86357e-05
3.02085e-05
3.14598e-05
2.56758e-05
2.32991e-05
2.97349e-05
2.85891e-05
3.31935e-05
2.76942e-05
2.35029e-05
3.07319e-05
3.27579e-05
2.68817e-05
2.78581e-05
3.06643e-05
3.36725e-05
3.26885e-05
2.94274e-05
2.6937e-05
3.04388e-05
3.22438e-05
2.82778e-05
3.00961e-05
3.03063e-05
2.30355e-05
2.80266e-05
2.8359e-05
3.16169e-05
3.23943e-05
3.00402e-05
3.27055e-05
3.17258e-05
3.01264e-05
3.02818e-05
2.4958e-05
2.66683e-05
2.29649e-05
3.25006e-05
3.12203e-05
3.38303e-05
3.53975e-05
3.19573e-05
2.37096e-05
3.25243e-05
2.83618e-05
3.10893e-05
3.13566e-05
3.2694e-05
2.37207e-05
3.34643e-05
2.47227e-05
3.08335e-05
3.03092e-05
2.98723e-05
3.40889e-05
2.89858e-05
3.17216e-05
2.59158e-05
2.95493e-05
2.94674e-05
3.26815e-05
2.74e-05
2.63696e-05
3.23637e-05
3.23625e-05
3.16009e-05
3.22266e-05
3.31802e-05
2.51422e-05
2.95441e-05
2.91914e-05
2.66608e-05
3.2293e-05
3.35291e-05
3.37172e-05
3.29841e-05
3.40781e-05
2.49133e-05
2.44819e-05
2.52679e-05
3.324e-05
2.35357e-05
3.27953e-05
3.13426e-05
2.47913e-05
2.82814e-05
3.22021e-05
3.3041e-05
2.72425e-05
2.81195e-05
2.90439e-05
3.11057e-05
3.35289e-05
2.99266e-05
2.51939e-05
3.07536e-05
3.37459e-05
3.24677e-05
3.38338e-05
3.35364e-05
3.4923e-05
3.37014e-05
3.26079e-05
2.55205e-05
2.34259e-05
3.05494e-05
2.7305e-05
3.32413e-05
2.42366e-05
3.14933e-05
2.96293e-05
3.39993e-05
2.59486e-05
3.18294e-05
3.22336e-05
3.10654e-05
2.89989e-05
2.47089e-05
3.28695e-05
2.75711e-05
3.3485e-05
3.0048e-05
3.4012e-05
3.38169e-05
3.07489e-05
2.33973e-05
2.43515e-05
2.97926e-05
3.12211e-05
2.75064e-05
3.44344e-05
2.47074e-05
3.33246e-05
3.21713e-05
2.79614e-05
3.18254e-05
3.27168e-05
3.31863e-05
3.36523e-05
3.31899e-05
3.09236e-05
3.11815e-05
2.33562e-05
2.78024e-05
3.38437e-05
2.5542e-05
3.19181e-05
2.97393e-05
2.57838e-05
3.01322e-05
3.17953e-05
3.00335e-05
3.19628e-05
3.26197e-05
2.4906e-05
2.97856e-05
3.06583e-05
2.48703e-05
2.78229e-05
3.0194e-05
2.99047e-05
3.1986e-05
2.48753e-05
2.45892e-05
3.01266e-05
2.87959e-05
3.4209e-05
3.43367e-05
3.3679e-05
2.91868e-05
2.95627e-05
3.11264e-05
2.89611e-05
3.23042e-05
2.47996e-05
3.06194e-05
2.96053e-05
3.38457e-05
3.21646e-05
2.94586e-05
3.05965e-05
3.31832e-05
2.45191e-05
3.089e-05
3.36833e-05
2.89447e-05
2.06979e-05
3.002e-05
2.49204e-05
3.08964e-05
2.27286e-05
3.30349e-05
3.43097e-05
3.30915e-05
3.09054e-05
2.48264e-05
2.46277e-05
3.27975e-05
3.32119e-05
3.2897e-05
3.0956e-05
2.96733e-05
3.23101e-05
3.33321e-05
3.26929e-05
2.32708e-05
2.88922e-05
3.21062e-05
3.17999e-05
2.84003e-05
3.11928e-05
2.32744e-05
3.34464e-05
3.29873e-05
3.06232e-05
3.11326e-05
3.17573e-05
3.02504e-05
3.39989e-05
3.21007e-05
2.54062e-05
2.988e-05
3.24777e-05
2.96731e-05
3.0217e-05
3.15391e-05
2.2794e-05
2.56688e-05
3.34397e-05
3.36763e-05
3.29849e-05
3.38637e-05
3.15737e-05
3.31409e-05
3.10043e-05
3.08697e-05
3.1852e-05
3.31403e-05
2.78775e-05
2.95774e-05
2.89368e-05
3.03909e-05
3.27915e-05
2.24325e-05
3.07957e-05
2.35888e-05
3.30335e-05
2.36805e-05
2.35566e-05
3.00426e-05
2.27969e-05
3.01113e-05
3.11871e-05
3.29905e-05
3.32712e-05
2.78798e-05
2.77548e-05
3.4168e-05
2.73816e-05
2.51731e-05
2.96124e-05
2.68622e-05
3.35559e-05
3.17732e-05
3.08567e-05
2.47274e-05
3.23747e-05
3.2521e-05
3.35369e-05
2.3997e-05
2.68398e-05
3.09001e-05
3.16653e-05
3.41922e-05
2.55104e-05
2.44187e-05
3.18822e-05
3.03977e-05
3.38012e-05
3.08417e-05
2.25639e-05
3.14941e-05
3.25677e-05
2.42608e-05
2.27865e-05
3.32342e-05
2.58917e-05
2.58475e-05
3.33523e-05
3.36435e-05
3.27064e-05
3.45951e-05
3.04691e-05
2.86846e-05
3.33868e-05
2.70465e-05
3.35244e-05
2.78247e-05
3.11704e-05
3.28278e-05
2.9994e-05
2.41843e-05
3.29141e-05
3.31367e-05
2.86726e-05
3.01464e-05
3.04159e-05
2.68577e-05
2.88089e-05
3.08119e-05
3.04194e-05
3.30244e-05
2.84144e-05
3.19315e-05
2.40929e-05
3.23655e-05
3.39005e-05
2.30777e-05
3.21974e-05
3.09777e-05
2.15424e-05
2.41433e-05
3.08783e-05
3.04275e-05
3.27e-05
2.85786e-05
2.53222e-05
3.26938e-05
3.34668e-05
3.29527e-05
3.15615e-05
3.37796e-05
2.43043e-05
3.33788e-05
3.03945e-05
2.48935e-05
2.443e-05
2.05652e-05
2.52438e-05
3.17931e-05
2.88431e-05
3.13815e-05
3.06898e-05
2.65818e-05
2.75702e-05
2.29233e-05
2.2678e-05
3.40361e-05
3.38184e-05
2.55837e-05
3.33147e-05
3.28893e-05
2.50978e-05
3.00244e-05
3.03537e-05
2.66127e-05
2.85799e-05
3.37439e-05
2.63616e-05
2.24873e-05
3.36479e-05
3.34476e-05
2.75682e-05
3.3361e-05
2.79733e-05
2.62761e-05
2.50683e-05
2.97445e-05
2.39825e-05
2.48025e-05
3.11414e-05
3.18994e-05
2.95841e-05
3.24936e-05
3.34217e-05
3.00095e-05
3.27862e-05
1.74394e-05
2.97869e-05
2.45453e-05
3.05411e-05
3.27185e-05
3.01512e-05
2.75126e-05
3.00231e-05
2.55684e-05
3.1686e-05
3.00878e-05
2.77757e-05
2.43211e-05
2.23888e-05
2.19324e-05
2.85914e-05
2.46009e-05
2.95816e-05
2.50237e-05
2.87293e-05
3.3231e-05
3.0981e-05
2.87456e-05
3.07767e-05
3.17756e-05
3.00265e-05
3.25175e-05
2.31403e-05
3.07342e-05
3.34637e-05
3.37431e-05
2.95099e-05
3.46181e-05
2.6479e-05
3.15632e-05
2.98704e-05
2.38139e-05
3.25016e-05
3.36512e-05
3.18822e-05
3.21021e-05
3.24767e-05
3.09439e-05
2.20373e-05
2.30179e-05
2.95843e-05
3.40033e-05
3.03518e-05
3.31892e-05
2.7894e-05
2.89442e-05
2.57486e-05
2.38461e-05
2.39959e-05
2.33819e-05
3.18679e-05
3.11693e-05
3.33366e-05
2.91774e-05
2.8343e-05
3.43557e-05
2.41001e-05
3.06343e-05
3.35386e-05
3.28555e-05
2.82629e-05
2.95935e-05
3.24384e-05
3.3178e-05
3.29832e-05
2.52956e-05
3.08692e-05
3.26538e-05
3.13064e-05
3.05454e-05
3.35664e-05
3.20153e-05
3.35203e-05
3.15197e-05
2.71152e-05
3.12605e-05
3.28949e-05
3.18753e-05
3.01093e-05
2.42747e-05
3.33482e-05
3.30435e-05
3.23739e-05
3.29895e-05
2.32986e-05
2.11638e-05
2.96331e-05
3.211e-05
2.84556e-05
3.16714e-05
3.26195e-05
3.29544e-05
3.30421e-05
2.82144e-05
3.21468e-05
3.02698e-05
3.2672e-05
2.45503e-05
2.4485e-05
2.92737e-05
3.32841e-05
2.53708e-05
3.27255e-05
2.465e-05
2.92552e-05
3.03879e-05
3.35803e-05
2.94573e-05
3.34104e-05
3.31772e-05
3.22514e-05
3.09378e-05
3.21722e-05
3.04848e-05
2.80732e-05
2.23051e-05
3.4139e-05
2.03497e-05
2.32451e-05
2.59119e-05
2.29899e-05
2.31327e-05
2.92987e-05
3.09778e-05
2.48427e-05
2.78651e-05
2.11645e-05
2.52043e-05
2.86455e-05
3.32555e-05
2.3427e-05
2.37425e-05
3.25285e-05
2.34983e-05
2.92181e-05
3.157e-05
3.13489e-05
2.99262e-05
2.46472e-05
2.29624e-05
2.80408e-05
3.40175e-05
2.62727e-05
2.37923e-05
3.09766e-05
2.76344e-05
3.09153e-05
3.0308e-05
2.48027e-05
3.27778e-05
2.25375e-05
2.36084e-05
2.87299e-05
3.27685e-05
2.79591e-05
2.89423e-05
2.92002e-05
3.08758e-05
2.20799e-05
2.57579e-05
2.93396e-05
3.33565e-05
3.22e-05
2.36011e-05
2.13509e-05
2.88189e-05
3.42464e-05
3.00743e-05
3.03175e-05
2.75014e-05
2.98956e-05
3.0453e-05
2.44219e-05
3.35374e-05
2.75911e-05
2.40743e-05
2.14834e-05
3.22928e-05
3.0423e-05
3.3439e-05
3.07772e-05
3.28565e-05
2.43834e-05
2.88401e-05
2.23929e-05
2.09305e-05
3.2097e-05
2.50452e-05
2.90692e-05
3.06193e-05
3.11295e-05
2.39827e-05
3.35386e-05
3.26527e-05
3.38735e-05
3.12692e-05
1.97934e-05
3.02262e-05
2.2577e-05
3.32497e-05
2.45298e-05
3.32363e-05
2.13429e-05
3.14443e-05
3.12464e-05
2.73685e-05
2.80186e-05
2.21521e-05
2.70448e-05
3.03368e-05
3.22148e-05
3.16616e-05
3.35014e-05
3.24272e-05
2.47243e-05
3.36134e-05
2.91115e-05
3.1015e-05
3.16688e-05
3.29792e-05
3.2389e-05
3.0343e-05
3.35558e-05
2.92269e-05
2.77646e-05
2.75577e-05
3.11504e-05
3.25477e-05
2.7267e-05
2.52295e-05
3.29179e-05
3.10605e-05
2.99765e-05
3.39246e-05
3.12901e-05
3.0953e-05
3.13192e-05
3.27637e-05
3.2594e-05
3.03449e-05
2.93591e-05
3.27891e-05
3.18944e-05
2.64217e-05
3.0391e-05
2.66819e-05
3.34182e-05
3.11365e-05
3.34379e-05
2.447e-05
2.43554e-05
3.05901e-05
3.22034e-05
3.19172e-05
3.33419e-05
3.28044e-05
3.01586e-05
3.195e-05
2.50855e-05
2.99848e-05
3.01825e-05
3.32917e-05
3.28532e-05
3.34387e-05
2.99674e-05
3.37432e-05
2.60831e-05
3.33146e-05
2.6949e-05
2.97156e-05
2.84596e-05
3.07505e-05
2.98843e-05
3.21913e-05
2.35838e-05
3.29946e-05
3.23243e-05
2.92554e-05
2.45475e-05
3.32758e-05
3.17859e-05
3.26646e-05
2.99414e-05
3.04549e-05
3.23249e-05
2.40032e-05
3.33912e-05
2.93917e-05
3.06541e-05
2.64618e-05
2.72583e-05
2.68686e-05
2.34958e-05
2.80973e-05
3.42311e-05
3.06754e-05
2.24404e-05
3.02366e-05
2.35818e-05
3.08298e-05
3.1229e-05
2.23564e-05
2.34333e-05
2.72625e-05
3.05459e-05
3.22915e-05
2.81479e-05
3.23546e-05
2.95137e-05
2.72371e-05
2.76952e-05
3.34783e-05
3.29468e-05
3.3013e-05
3.22887e-05
3.14513e-05
2.42165e-05
2.52487e-05
3.37889e-05
2.90763e-05
3.05796e-05
3.21406e-05
3.40204e-05
3.08091e-05
3.16647e-05
2.26538e-05
3.24433e-05
3.30848e-05
2.79715e-05
3.3299e-05
3.28845e-05
3.11419e-05
2.83988e-05
3.18092e-05
2.83846e-05
2.2034e-05
3.08031e-05
2.52707e-05
2.35626e-05
3.0546e-05
3.03574e-05
3.18666e-05
3.19985e-05
3.10453e-05
3.36107e-05
2.09801e-05
2.79405e-05
3.33044e-05
3.32712e-05
2.25061e-05
3.07177e-05
2.56584e-05
2.82396e-05
3.3607e-05
2.71002e-05
3.14749e-05
3.3945e-05
3.1955e-05
2.24052e-05
3.22145e-05
2.44171e-05
3.32259e-05
3.2133e-05
3.16004e-05
3.34936e-05
3.11006e-05
3.30746e-05
2.41273e-05
3.26806e-05
3.28965e-05
2.54908e-05
3.15792e-05
3.0277e-05
2.82792e-05
3.25301e-05
2.87362e-05
3.29065e-05
3.35823e-05
3.39643e-05
3.01082e-05
3.26737e-05
3.04336e-05
3.21177e-05
2.64281e-05
2.80299e-05
2.37375e-05
2.31364e-05
3.10754e-05
3.18661e-05
3.03115e-05
3.35856e-05
2.92941e-05
3.36473e-05
2.28424e-05
3.37073e-05
3.38891e-05
3.18258e-05
3.38425e-05
2.59269e-05
2.23893e-05
2.9819e-05
2.37298e-05
3.33115e-05
3.04086e-05
2.25507e-05
2.90517e-05
3.40759e-05
3.1019e-05
2.37511e-05
2.6476e-05
2.24323e-05
3.42835e-05
2.34617e-05
3.25831e-05
2.79707e-05
2.46065e-05
3.29942e-05
3.3174e-05
3.32071e-05
3.22759e-05
2.38196e-05
3.11047e-05
3.32226e-05
2.54113e-05
3.34249e-05
3.05807e-05
3.36038e-05
2.219e-05
3.2374e-05
2.79071e-05
3.12049e-05
2.77789e-05
2.97241e-05
2.84432e-05
2.74449e-05
2.87394e-05
2.91052e-05
3.1791e-05
2.98138e-05
3.38651e-05
2.53225e-05
3.00359e-05
3.02486e-05
3.22507e-05
3.32001e-05
2.42525e-05
3.28528e-05
2.50075e-05
3.00773e-05
3.31801e-05
3.29265e-05
2.88216e-05
3.13547e-05
3.16354e-05
2.79808e-05
3.04026e-05
2.91715e-05
2.36586e-05
2.37968e-05
3.14738e-05
3.25155e-05
2.99447e-05
2.84874e-05
3.2612e-05
2.46657e-05
3.11335e-05
2.49259e-05
3.19896e-05
3.36674e-05
3.04991e-05
2.40679e-05
3.25609e-05
2.32751e-05
3.12919e-05
3.31837e-05
2.25061e-05
3.41733e-05
2.52372e-05
2.81055e-05
2.87189e-05
2.41746e-05
2.82872e-05
2.86701e-05
2.2249e-05
3.26034e-05
3.30112e-05
2.06008e-05
2.7896e-05
3.19073e-05
3.00425e-05
3.12561e-05
3.3961e-05
3.25472e-05
2.94126e-05
2.67282e-05
2.27554e-05
2.19136e-05
2.61549e-05
3.38058e-05
3.27209e-05
3.18462e-05
3.2144e-05
2.43503e-05
2.37954e-05
2.98685e-05
3.24115e-05
2.25332e-05
3.19429e-05
3.05113e-05
2.90196e-05
3.196e-05
2.83969e-05
3.22354e-05
2.7333e-05
2.96212e-05
3.32774e-05
2.01297e-05
3.13132e-05
3.24808e-05
3.289e-05
3.15982e-05
3.28252e-05
3.04899e-05
2.41255e-05
3.37966e-05
3.47662e-05
3.06612e-05
3.02372e-05
2.81568e-05
3.00219e-05
3.16217e-05
3.25044e-05
3.04458e-05
2.95815e-05
2.93606e-05
2.28689e-05
2.83003e-05
3.3669e-05
3.14728e-05
3.48319e-05
3.0348e-05
2.88444e-05
3.34372e-05
2.41897e-05
3.21415e-05
2.40226e-05
3.32022e-05
3.15836e-05
2.84478e-05
3.43463e-05
2.79965e-05
2.98207e-05
3.34143e-05
2.89586e-05
3.3401e-05
3.20362e-05
3.20734e-05
2.37002e-05
3.03261e-05
3.01048e-05
2.58688e-05
3.27321e-05
2.9113e-05
2.90512e-05
3.34652e-05
2.44273e-05
3.34485e-05
3.02322e-05
3.30102e-05
2.75621e-05
3.08601e-05
2.38015e-05
2.4669e-05
3.38636e-05
2.46122e-05
3.00961e-05
3.22904e-05
2.33072e-05
2.93822e-05
3.26429e-05
2.77987e-05
2.48553e-05
2.6892e-05
2.90281e-05
2.86493e-05
3.22035e-05
2.89804e-05
3.26414e-05
3.06436e-05
3.27399e-05
2.19504e-05
2.59542e-05
3.3499e-05
2.9582e-05
2.30249e-05
2.47905e-05
2.99902e-05
2.4741e-05
2.39814e-05
3.03128e-05
2.98027e-05
3.42591e-05
2.88172e-05
3.28904e-05
3.26953e-05
3.22089e-05
3.29748e-05
3.30381e-05
2.86742e-05
2.79363e-05
3.28245e-05
2.95234e-05
2.87704e-05
3.29323e-05
3.01435e-05
2.28396e-05
2.36821e-05
2.92051e-05
2.57606e-05
3.15151e-05
3.24884e-05
2.93592e-05
3.29213e-05
3.27212e-05
3.2166e-05
3.46498e-05
2.90744e-05
2.3989e-05
2.88373e-05
2.88507e-05
3.24193e-05
2.92132e-05
3.16564e-05
3.3068e-05
2.91394e-05
2.79126e-05
3.06331e-05
3.35202e-05
3.19314e-05
3.47533e-05
3.1972e-05
2.86655e-05
2.93272e-05
2.58788e-05
2.77561e-05
3.35835e-05
2.62451e-05
3.39009e-05
2.86779e-05
3.2776e-05
2.36268e-05
3.18139e-05
3.04709e-05
3.24365e-05
2.98315e-05
3.15317e-05
3.00343e-05
3.29084e-05
2.30916e-05
2.549e-05
3.0407e-05
2.83146e-05
3.08181e-05
3.0265e-05
3.05484e-05
3.31387e-05
3.03899e-05
2.25288e-05
2.68796e-05
2.38876e-05
3.07078e-05
2.99866e-05
2.44846e-05
3.46177e-05
3.03955e-05
2.9598e-05
3.24283e-05
2.61939e-05
2.47179e-05
3.39255e-05
2.47508e-05
2.3404e-05
2.94325e-05
2.87013e-05
2.47005e-05
2.71865e-05
3.35527e-05
3.29836e-05
2.84237e-05
3.07705e-05
3.25816e-05
3.00972e-05
3.20929e-05
2.28967e-05
3.31738e-05
1.71766e-05
3.25319e-05
2.43316e-05
2.35974e-05
3.26082e-05
2.35579e-05
2.98801e-05
3.0988e-05
3.26617e-05
2.7996e-05
3.20009e-05
2.91379e-05
3.00515e-05
2.86948e-05
3.19675e-05
3.09215e-05
3.29574e-05
3.05666e-05
2.45906e-05
3.20064e-05
3.0222e-05
2.98648e-05
2.9734e-05
2.57977e-05
2.77604e-05
2.30385e-05
2.38771e-05
3.03681e-05
2.91263e-05
2.52766e-05
2.80636e-05
3.24139e-05
3.35883e-05
3.3163e-05
1.71176e-05
2.26696e-05
3.31639e-05
2.34611e-05
3.17283e-05
2.29169e-05
3.31724e-05
3.23492e-05
3.26078e-05
2.43412e-05
2.93707e-05
3.34621e-05
3.33023e-05
3.09257e-05
3.33529e-05
3.00313e-05
3.06263e-05
2.99901e-05
2.39122e-05
3.0459e-05
2.73291e-05
3.0159e-05
2.97906e-05
2.55135e-05
2.96423e-05
3.33363e-05
2.66603e-05
2.71955e-05
2.38142e-05
3.26321e-05
3.23191e-05
2.20295e-05
2.97874e-05
3.02791e-05
3.12069e-05
2.41374e-05
3.03892e-05
2.99526e-05
3.42714e-05
2.35759e-05
2.96451e-05
2.97022e-05
2.23196e-05
3.29955e-05
2.49857e-05
2.49072e-05
3.07997e-05
3.36554e-05
2.3005e-05
3.27368e-05
3.13662e-05
3.04487e-05
2.25749e-05
3.33992e-05
3.3649e-05
2.26745e-05
3.05122e-05
2.19426e-05
2.51803e-05
3.33891e-05
2.8438e-05
3.06915e-05
3.22657e-05
3.39531e-05
2.92021e-05
2.80212e-05
2.95188e-05
2.92079e-05
3.05066e-05
2.80114e-05
3.32762e-05
2.45308e-05
2.85117e-05
3.0068e-05
2.87191e-05
3.24026e-05
2.96353e-05
3.17847e-05
3.17791e-05
3.05733e-05
3.34292e-05
3.18139e-05
2.87039e-05
2.68588e-05
3.21609e-05
2.93742e-05
2.85625e-05
3.15232e-05
3.36957e-05
3.19819e-05
3.20531e-05
2.81779e-05
3.18844e-05
2.70512e-05
2.37731e-05
2.99436e-05
3.09274e-05
2.3415e-05
3.13103e-05
2.96381e-05
2.07726e-05
2.38423e-05
3.18825e-05
2.37739e-05
2.90658e-05
3.21194e-05
3.10351e-05
2.36795e-05
3.08051e-05
3.42702e-05
2.47197e-05
2.39015e-05
2.45828e-05
3.30584e-05
3.01763e-05
2.94423e-05
3.27178e-05
2.3705e-05
3.18226e-05
3.05613e-05
3.36303e-05
3.35324e-05
1.84136e-05
3.05308e-05
3.13693e-05
3.1774e-05
3.02314e-05
2.99007e-05
2.56572e-05
3.07504e-05
3.38248e-05
2.72415e-05
2.24161e-05
2.83239e-05
3.29258e-05
3.16655e-05
2.31317e-05
2.91617e-05
3.2554e-05
3.32982e-05
2.98883e-05
2.95081e-05
2.19024e-05
2.41247e-05
2.40041e-05
3.03025e-05
2.91943e-05
3.08503e-05
3.40432e-05
3.29069e-05
2.66463e-05
3.28996e-05
3.30405e-05
3.19104e-05
2.79686e-05
3.29448e-05
2.92105e-05
2.51138e-05
2.78825e-05
2.99286e-05
3.11582e-05
2.76331e-05
3.13289e-05
2.80231e-05
3.2847e-05
2.47832e-05
2.22763e-05
2.90073e-05
3.33476e-05
3.18583e-05
2.77726e-05
2.8499e-05
3.21438e-05
3.30558e-05
2.80848e-05
2.88642e-05
3.27758e-05
3.37891e-05
3.1954e-05
3.36533e-05
3.22084e-05
3.23354e-05
2.27257e-05
2.89587e-05
2.39217e-05
3.15812e-05
3.29775e-05
2.77982e-05
2.37172e-05
3.34497e-05
2.35833e-05
2.71182e-05
2.49367e-05
2.9561e-05
2.3188e-05
3.13747e-05
3.00418e-05
2.96976e-05
2.98977e-05
2.57787e-05
3.32767e-05
2.44546e-05
3.16098e-05
3.00203e-05
2.9411e-05
2.35601e-05
3.24018e-05
3.13433e-05
2.53054e-05
2.6226e-05
2.9058e-05
2.8569e-05
2.96661e-05
2.336e-05
3.09037e-05
2.83706e-05
3.04633e-05
2.71036e-05
2.7394e-05
2.71839e-05
2.38986e-05
3.22715e-05
3.0002e-05
9.39613e-06
2.48301e-05
3.07338e-05
3.30448e-05
3.23074e-05
2.5524e-05
2.5338e-05
3.31948e-05
2.42047e-05
3.25736e-05
3.35576e-05
3.04294e-05
2.48088e-05
3.31638e-05
2.34532e-05
2.20502e-05
2.19266e-05
3.15007e-05
2.96498e-05
2.74958e-05
3.36844e-05
3.18972e-05
3.06765e-05
2.50451e-05
2.11813e-05
3.39706e-05
3.0438e-05
3.40526e-05
3.31006e-05
2.37089e-05
2.94812e-05
2.87145e-05
2.91476e-05
2.98931e-05
2.77591e-05
2.89057e-05
3.49339e-05
3.04543e-05
2.84372e-05
2.44698e-05
3.09191e-05
2.95931e-05
3.14821e-05
2.83735e-05
2.3463e-05
2.45031e-05
3.10265e-05
3.16469e-05
2.79521e-05