/*--------------------------------*- C++ -*----------------------------------*\
| =========                 |                                                 |
| \\      /  F ield         | OpenFOAM: The Open Source CFD Toolbox           |
|  \\    /   O peration     | Version:  2212                                  |
|   \\  /    A nd           | Website:  www.openfoam.com                      |
|    \\/     M anipulation  |                                                 |
\*---------------------------------------------------------------------------*/
FoamFile
{
    version     2.0;
    format      ascii;
    arch        "LSB;label=32;scalar=64";
    class       volScalarField;
    location    "0.056";
    object      p;
}
// * * * * * * * * * * * * * * * * * * * * * * * * * * * * * * * * * * * * * //

dimensions      [0 2 -2 0 0 0 0];

internalField   nonuniform List<scalar> 
31639
(
0.0112532
0.00782414
0.0128712
0.00572089
0.00791131
0.0110165
0.0123635
0.0117661
0.0083566
0.00713365
0.0122427
0.00796717
0.00828182
0.0107733
0.00937656
0.0131654
0.015273
0.0156062
0.00255501
0.0119795
0.00872624
0.00673594
0.00916356
0.00566459
0.00983611
0.0116393
0.0113217
0.0357789
0.0118384
0.0118113
0.00633365
0.0168619
0.00841995
0.00455148
0.0205015
0.011748
0.00675359
0.0122838
0.0122642
0.0100307
0.00800931
0.0114858
0.00897373
0.0124553
0.0128419
0.00534942
0.00804853
0.00634446
0.0137947
0.00577988
0.00533009
0.00426628
0.0209006
0.0127461
0.00416946
0.0155835
0.00684055
0.0114047
0.00783346
0.00546118
0.00598946
0.0114827
0.00953725
0.0117456
0.020723
0.00337724
0.00206991
0.0065643
0.00814579
0.00508453
0.00721951
0.0153885
0.00705424
0.00304594
0.0209966
0.0166968
0.00724353
0.00670396
0.0077652
0.0073829
0.0112182
0.0107753
0.0106122
0.00589644
0.0104926
0.00971424
0.00897811
0.00634783
0.00208295
0.00844232
0.00480427
0.0153215
0.00560086
0.00746635
0.00357921
0.011332
0.00608939
0.00430834
0.00818666
0.0108614
0.0193556
0.019319
0.00987746
0.00750519
0.00416157
0.00519046
0.0110527
0.00548895
0.006383
0.00993602
0.0123227
0.0107176
0.0114777
0.00675277
0.00299891
0.0119789
0.0206039
0.0127139
0.0194613
0.00602424
0.0170201
0.00520508
0.0027074
0.00574767
0.0109686
0.0107898
0.00774198
0.00584026
0.00712562
0.00862858
0.0203687
0.000897383
0.0130337
0.00305794
0.00367206
0.00653207
0.00683374
0.00746759
0.00536678
0.0059852
0.00592655
0.00882519
0.00962649
0.005511
0.0080289
0.010485
0.0195921
0.00683327
0.010127
0.0209042
0.00611912
0.0140721
0.0043766
0.00394511
0.00511871
0.00389834
0.00288006
0.00717827
0.0136787
0.00649212
0.00356604
0.0154399
0.00693929
0.0114553
0.0163523
0.0164247
0.0127982
0.014318
0.00450091
0.00313848
0.0148168
0.0107638
0.0145869
0.00837169
0.0104099
0.00698306
0.00943176
0.0169371
0.00655451
0.00989619
0.0081843
0.0135184
0.0115247
0.0119878
0.0120327
0.0117783
0.0140702
0.00990625
0.0107791
0.013376
0.0136161
0.00708724
0.0138461
0.0041995
0.0048013
0.00498129
0.00480055
0.00762606
0.004902
0.0121549
0.0101862
0.0154534
0.0135536
0.0144371
0.00698245
0.00579235
0.0024204
0.004096
0.0172451
0.00469469
0.0047004
0.0100073
0.0194378
0.0104037
0.0125281
0.0104993
0.0105035
0.0104764
0.0147171
0.00785244
0.00812368
0.0100232
0.0106028
0.0147177
0.0127988
0.00729076
0.0131881
0.0129279
0.00914898
0.0167306
0.00441073
0.0121612
0.0154479
0.0133793
0.0137094
0.00231173
0.0021262
0.0139695
0.0115242
0.00415893
0.0058931
0.0125875
0.0146166
0.0137833
0.00608299
0.0157877
0.00464607
0.0162958
0.0133423
0.00234545
0.000675019
0.00534524
0.0136712
0.0156725
0.00761255
0.00813596
0.0114221
0.00349335
0.0112744
0.0130179
0.00544861
0.0043743
0.0076285
0.0107755
0.00768914
0.0104495
0.00171621
0.0198341
0.0124601
0.0111091
0.0253932
0.00520478
0.0113343
0.0140474
0.006747
0.0132192
0.00481949
0.0147582
0.00655965
0.00536016
0.016528
0.0169726
0.0168575
0.0224046
0.0120919
0.01216
0.0147687
0.0140793
0.00266777
0.0136505
0.0151921
0.0012165
0.00436759
0.00436856
0.0128119
0.00377548
0.015348
0.0020405
0.00599809
0.00695773
0.00646357
0.0147402
0.00466254
0.00417191
0.00933445
0.00375355
0.0106641
0.00246303
0.00899943
0.0147782
0.00623634
0.0247444
0.0197908
0.00877464
0.0080504
0.0113483
0.0021749
0.017037
0.0132558
0.0130461
0.0125138
0.00522307
0.0191168
0.00384419
0.0102986
0.013939
0.0125278
0.014085
0.00454167
0.00524979
0.0054434
0.00571131
0.0150527
0.00428081
0.0154807
0.0205695
0.0210732
0.00652661
0.0142796
0.0161725
0.00364596
0.00178359
0.0157256
0.00328277
0.0046987
0.0145946
0.00394297
0.0128979
0.0127443
0.0191927
0.00722864
0.0147219
0.00717507
0.0136074
0.004146
0.00542129
0.00464886
0.00937922
0.00951258
0.0142042
0.0155067
0.00950216
0.0246537
0.00264853
0.00658823
0.00593127
0.00317762
0.00945752
0.0101237
0.0141078
0.00917893
0.0172311
0.0107715
0.00507235
0.0034133
0.00568492
0.0198426
0.0165937
0.0138243
0.0174038
0.0131201
0.00427301
0.00642797
0.00425121
0.0039351
0.00373394
0.00459424
0.00791814
0.000351805
0.0158331
0.00231439
0.0175276
0.00465368
0.0146625
0.00403838
0.0150365
0.015972
0.012005
0.00573495
0.0232412
0.0156216
0.0122987
0.0117249
0.00389119
0.0138407
0.00210317
0.0060855
0.00614952
0.00639098
0.012029
0.00525922
0.00620034
0.0137927
0.0255353
0.012606
0.0138511
0.0101514
0.0108331
0.00969864
0.00806008
0.00778102
0.0191259
0.00925771
0.000815145
0.013774
0.0251543
0.00890746
0.0186758
0.0107725
0.012899
0.00562296
0.00466737
0.0147116
0.00530712
0.011702
0.0117198
0.0142811
0.00347815
0.00429022
0.0152876
0.0064676
0.00226636
0.00273798
0.0105395
0.00364867
0.00656404
0.00692202
0.0160762
0.0157162
0.0169942
0.0159769
0.0139135
0.00676658
0.0142862
0.00642174
0.0151806
0.0170538
0.00527284
0.0139526
0.00584569
0.0114682
0.0163822
0.0108479
0.00293805
0.0134442
0.0376092
0.00289822
0.00871174
0.005929
0.0130751
0.00169964
0.00449433
0.00538506
0.00448244
0.0142442
0.00114708
0.00900065
0.0183922
0.00811795
0.00940815
0.00543578
0.020089
0.00349506
0.00741536
0.0191445
0.0246166
0.00891224
0.0127846
0.0103879
0.00694001
0.00535686
0.00406924
0.016889
0.00191568
0.0110585
0.0106473
0.0100866
0.00303052
0.00459285
0.0161616
0.0182454
0.0022799
0.00265674
0.00299207
0.00174715
0.0214974
0.00615147
0.00254435
0.0171631
0.0191674
0.0170934
0.00358176
0.0154677
0.0143294
0.0163098
0.00183824
0.0191469
0.0191812
-0.000360943
0.0166159
0.0160638
0.0167275
0.0106214
0.0178243
0.000745551
0.00289631
0.0163028
0.00238562
0.00291224
0.00494932
0.0120589
0.00815646
0.0150044
0.000997714
0.005298
0.00857198
0.0179626
0.00115619
0.0142915
0.00219034
0.024921
0.0251723
0.0059173
0.0360624
0.00609723
0.00606098
0.00987221
0.0101815
0.00705817
0.00964785
0.0258902
0.00707394
0.0139693
0.000566114
0.00632782
0.00982336
0.00552559
0.0159929
0.00123865
0.00381169
0.00962294
0.0034284
0.00868567
0.00885543
0.00478567
0.0202008
0.00350293
0.0024417
0.000341294
0.0112208
0.0184035
0.00275677
0.00055072
0.00339499
0.00374313
0.00294086
0.017066
-6.07758e-05
0.00112383
0.000762174
0.0153969
0.0019079
0.0160866
0.0164253
0.0171302
0.00500459
3.6841e-05
0.00018205
0.00260509
0.00073462
0.0105255
0.000904996
0.0105226
0.0166655
0.00140238
0.0061069
0.00819888
0.0201049
0.0185402
0.0145405
0.00691881
0.00333564
0.0192956
0.0165949
0.00155136
0.0017059
0.00713969
0.0121299
0.00497021
0.00102704
7.34174e-05
0.000830629
0.0159967
0.0134177
0.00613047
0.0370252
0.0131605
0.0102893
0.00708082
0.0111127
0.0142467
0.0141118
0.00986775
0.00629309
0.00787687
0.00815323
0.0133688
0.00309109
0.00959582
0.00112677
0.010451
0.024428
0.0170062
0.0156953
0.0116742
0.0091836
0.0221745
0.0103379
0.0123937
0.00549668
0.0197197
0.0185754
0.00269282
0.0102155
0.0115673
0.000193636
0.0225939
0.0062264
0.00105066
0.00303345
0.00171969
0.0200802
0.0183289
0.0187281
0.00282616
9.34932e-05
0.0158545
0.0106499
0.0167221
0.0172106
0.0173054
0.00112523
-1.86895e-05
0.016341
0.0142854
0.0147739
0.0172823
0.000960617
0.00615678
0.0253744
0.00357549
0.00204288
0.0177511
0.0100687
0.00421648
0.0161751
0.015923
0.0130045
0.00747421
0.00499682
0.0117861
0.00680562
0.000320166
0.000639835
0.00130971
0.00500295
0.00188178
0.0200833
0.00711716
0.000536571
0.000627178
0.0153891
0.00541781
0.000652318
0.0373258
0.00504452
0.00600257
0.00809902
0.00914068
0.00773362
0.00990521
0.00933773
0.00628199
0.00722207
0.0104052
0.00665103
0.00620293
0.00703173
0.00928291
0.01771
0.0100337
0.00948386
0.0155419
0.0201005
0.0169182
0.0047326
0.00933794
0.00267378
0.0105444
0.0209437
0.000791973
0.00193141
0.00176915
0.00536715
0.00622733
0.0154374
0.0148108
0.00438033
0.00178961
0.0120505
0.0200147
0.000477378
0.0164344
0.00654887
0.0152144
0.0139214
0.0147475
0.0189356
0.0175764
0.0227599
0.0161473
0.0134875
0.0167413
0.0151431
0.0156615
0.0056329
0.0197376
0.00553028
0.00144694
0.00367741
0.015345
5.64215e-05
0.0126582
0.00299388
0.00416334
0.0127338
0.0076181
0.0190649
0.0035292
0.0133162
0.0043047
0.0219071
0.00631254
0.000519221
0.000904903
0.0178723
0.011953
0.000811121
0.00195258
0.00110921
0.00377187
0.000517318
0.000244612
0.0150519
0.0145863
0.000142829
0.0146232
0.0129217
0.0156513
0.00855699
0.00845053
0.00683502
0.0109818
0.0115301
0.00533527
0.000860507
0.0100821
0.0137927
0.0102054
0.0188532
0.0169157
0.0101066
0.0165039
0.00623431
0.0254114
0.00297172
0.016571
0.00992165
6.16565e-05
0.0112916
0.00289099
0.00605954
0.00248671
0.00248007
0.0126711
0.0180059
0.00439694
0.0158936
0.000766468
0.000734414
0.000811653
0.020942
0.021119
0.0200699
0.0216026
0.0177865
0.0164301
0.0055113
0.00351321
0.00608395
0.0016062
0.0117426
0.00525965
0.0138297
0.00764406
0.00611982
0.00189301
-0.000121711
0.00447051
0.00238274
0.0187388
0.00812667
0.00438419
0.00421664
0.00780048
0.000740999
0.0131803
0.00425855
0.0164717
0.00315125
0.002127
0.0108078
0.0107574
0.0168273
0.0199507
0.0174499
0.0132797
0.007451
0.00809519
0.015832
9.93155e-05
0.000884853
0.015571
0.015923
-0.000126859
0.000327068
0.00222267
0.0156882
0.00410131
0.00953338
0.0201815
0.0197665
0.0100798
0.023621
0.00760288
0.00656585
0.00677458
0.00436666
0.00270731
0.0165668
0.002797
0.0100877
0.012229
0.0186479
0.00587372
0.00680271
0.00644946
0.0150239
0.0152239
0.0152312
0.0216421
0.00200779
0.0175776
0.0172889
0.0176717
0.00957456
0.000339235
0.0208121
0.0214206
0.0197216
0.0116336
0.0123283
0.0134165
0.0125246
0.0149754
0.0114911
0.000475443
0.0157191
0.00730097
0.00499084
0.0159858
0.00120538
0.000703827
0.002787
0.00262745
0.0191199
0.00768808
0.00279789
0.00391029
0.00695513
0.0141658
0.0066305
0.00608423
0.0127718
0.00892058
0.000255372
0.0164639
0.0104196
0.0173201
0.00869274
0.00180692
0.0133887
0.0133216
0.000660468
0.00768442
0.00714306
0.000505123
0.000629889
0.016316
0.0187246
0.00754045
0.00978477
0.0011176
0.0173419
0.0216101
0.0181246
0.0125098
0.00583084
0.0170737
0.0128598
0.00675719
0.00944332
0.00522987
0.00532696
0.00841384
0.0160649
0.00288732
0.0105175
0.00661823
0.00597369
0.000186682
0.0179785
0.00702697
0.0185373
0.00509588
0.0151857
0.0175254
0.00871583
0.00873104
0.0182804
0.0147925
0.0166519
0.00643626
0.00745567
0.0146887
0.0140104
0.0111244
0.0118087
0.0170966
0.017534
0.0230812
0.0135584
0.0153094
0.000956253
0.000612538
0.0157043
0.0143327
0.00736646
0.0170452
0.00243328
0.0119701
0.0133565
0.0167864
0.00206294
0.0172091
0.0156343
0.0186183
0.017722
0.0185153
0.00871591
0.0159272
0.0070606
0.0122683
0.0118762
0.0112875
0.0192739
0.0178513
0.0172916
0.0146131
0.00790969
0.0103071
0.0113777
0.0175405
0.0112518
2.9729e-05
0.0182592
0.0201154
0.00948692
0.0079896
0.00335472
0.00235842
0.00666736
0.0177122
0.00553535
0.00592101
0.0218568
0.0088758
0.00328356
0.00453272
0.000373218
0.00847687
0.00958852
0.00872405
0.0163786
0.000566774
0.0189247
0.00169175
0.0183831
0.0177639
0.0217123
0.0083491
0.00860824
0.0073127
0.0137524
0.012231
0.0142685
0.0220871
0.0160742
0.0170074
0.0112784
0.0137085
0.008105
0.0144051
0.0124977
0.00274172
0.00249279
0.0100557
0.000784798
0.0071575
0.0190921
0.0201205
0.00363882
0.0184653
0.0119803
0.0193992
0.0106631
0.010916
0.00145589
0.000802649
0.0140916
0.0127459
0.00613238
0.00807625
0.00763381
0.0118332
0.00817571
0.0160024
0.0171373
0.0219872
0.0169103
0.0182355
0.0110417
0.00776675
0.00907527
0.000804255
0.0015598
0.00297493
0.00799008
0.00721553
0.0126763
0.00746185
0.0133449
0.0151443
0.0167796
0.00772061
0.00479543
0.0224019
0.0117308
0.0200794
0.019864
0.00881227
0.0202763
0.00204394
0.0171516
0.0051127
0.00960401
0.00381317
0.00745837
0.00837085
0.0191969
0.0195577
0.00061899
0.0175791
0.0210207
0.0239987
0.00779348
0.0148093
0.0169657
0.0172224
0.00693843
0.00748225
0.0160145
0.0241977
0.0159336
0.00293525
0.0140652
0.0236632
0.0137198
0.0134565
0.0130905
0.00652048
0.0198536
0.0171833
0.0200231
0.00172763
0.0143889
0.00114318
0.0118265
0.016782
0.00359078
0.0169577
0.00524313
0.0160709
0.0218556
0.00943998
0.000456425
0.0107101
0.0114319
0.000659393
0.00707989
0.00715717
0.0112694
0.00826122
0.0227854
0.0184292
0.00724639
0.00714523
0.0178155
0.0100274
0.0169537
0.0221329
0.0172364
0.000576413
0.000567287
0.0182614
0.0158684
0.0110962
0.0123837
0.0141896
0.011758
0.0122243
0.0200029
0.0175189
0.0210315
0.0158045
0.0138374
0.00193936
0.0202388
0.00267045
0.00765029
0.0189071
0.0202515
0.016361
0.00855005
0.00764888
0.000408039
0.017719
0.0109343
0.0187885
0.01031
0.0198935
0.0210296
0.0132801
0.014188
0.00846212
0.00411931
0.0229676
0.0109412
0.014049
0.0109294
0.0100801
0.0146477
0.0232341
0.0134631
0.0125819
0.0249432
0.00216457
0.0196547
0.012123
0.0241602
0.0125301
0.0100721
0.0195047
0.019998
0.00357503
0.00744521
0.00414119
0.00512073
0.0172843
0.00914632
0.0099406
0.000394234
0.00794063
0.0288822
0.00816158
0.00853514
0.0117881
0.0121621
0.0114926
0.0181735
0.0186992
0.0134941
0.00722736
0.0184513
0.0103585
0.0191246
0.0170953
0.0172627
0.0190478
0.0194646
0.0178457
0.00680653
0.000520771
0.0204961
0.00617707
0.0214957
0.0239652
0.0224889
0.00816916
0.0205183
0.013769
0.00216358
0.00177338
0.00298807
0.018286
0.018957
0.0188389
0.0174615
0.0209892
0.00858416
0.00706672
0.0192037
0.0212551
0.010114
0.0188922
0.0202967
0.0134545
0.00778419
0.0230784
0.0206383
0.017734
0.0143677
0.0183733
0.0150741
0.0197811
0.0016357
0.0150901
0.0177805
0.0202833
0.0144419
0.0193153
0.00965536
0.024288
0.0151504
0.00199369
0.0184001
0.0044001
0.000114763
0.00415788
0.0144844
0.0123296
0.0143326
0.0184493
0.0200213
0.00753865
0.0158112
0.00901304
0.0122758
0.0116411
0.0114502
0.00705185
0.0188277
0.0126078
0.0131183
0.0186517
0.013082
0.00649636
0.00623852
0.0131332
0.0138096
0.0125564
0.0175098
0.0179308
0.00102535
0.0123926
0.0186715
0.0177828
0.0128471
0.0131453
0.0108145
0.0134458
0.0234664
0.00116594
0.0064318
0.0195769
0.00301071
0.00862811
0.00934027
0.00889762
0.0217894
0.0230735
0.00288377
0.0236345
0.0210428
0.0150967
0.0150428
0.0213423
0.015601
0.0197455
0.0185365
0.00367251
0.008226
0.022446
0.000403261
0.000665739
0.0215039
0.0200471
0.00352706
0.0212971
0.0156565
0.013654
0.00889937
0.020209
0.0197038
0.00714027
0.018683
0.0173148
0.015243
0.013627
0.000812897
0.00141925
0.00104293
0.0157135
0.0180341
0.0116098
0.0204592
0.0232948
0.0112248
0.00996407
0.00696257
0.00416919
0.0248513
9.81429e-05
0.00284988
0.00892466
0.00107192
0.000229621
0.000425297
0.00954621
0.00698285
0.000842013
0.0308259
0.0195471
0.0147263
0.0228387
0.0127573
0.0245609
0.00400241
0.00789274
0.00824823
0.0237109
0.0236957
0.012834
0.00670943
0.0134273
0.0121234
0.0158547
0.0147263
0.0153174
0.017983
0.00132872
0.0191895
0.0193728
0.01952
0.0189592
0.0159068
0.0156685
0.012072
0.0111191
0.0203756
0.0176889
0.00568166
0.00443833
0.0119736
0.0171865
0.0227673
0.00552996
0.00643116
0.00664763
0.0170949
0.0215894
0.0226633
0.0226051
0.00177949
0.00104972
0.0212503
0.000678509
0.0209354
0.0217816
0.0043883
0.00610806
0.00274663
0.0203207
0.00772435
0.0178591
0.0140033
0.0140618
0.0219381
0.0223928
0.0100566
0.0245751
0.0243332
0.016576
0.0152115
3.92967e-05
0.000589406
0.0169091
0.0152945
0.0184528
0.0240291
0.0367647
0.0244864
0.0193052
0.0245065
0.0194474
0.00238626
0.017872
0.0206101
0.00277282
0.019451
0.00472295
0.000499849
0.0190548
0.000651399
0.00882729
0.00959241
0.00949827
0.00873944
0.000406711
0.00186895
0.00599557
0.0232626
0.0217652
0.0157212
0.00932494
0.0118177
0.00745859
0.00935327
0.0069366
0.0090771
0.00890867
0.00801469
0.0166479
0.0142762
0.0191185
0.014131
0.0191734
0.00130802
0.0187322
0.000946161
0.0247591
0.0193222
0.0126584
0.0159058
0.00769649
0.0101177
0.00352706
0.00257048
0.00619995
0.00416139
0.0114156
0.0187662
0.00875773
0.014678
0.0133969
0.00523977
0.0131653
0.0232172
0.00135232
0.00298604
0.00124128
0.015295
0.0218279
0.0176519
0.00570873
0.00445577
0.0216025
0.00274536
0.0215822
0.0203826
0.0373279
0.0216669
0.0214169
0.0244516
0.0229856
0.021956
0.0171956
0.00440442
0.017778
0.00421317
0.0182078
0.018842
-2.10835e-05
0.0230612
0.0107641
0.00215018
0.0180552
0.0212479
0.0177596
0.0204122
0.0178011
0.00901292
0.0110196
0.0171618
0.0193587
0.0211853
0.0227345
0.000678477
0.00298829
0.0144871
0.0192255
0.018057
0.015987
0.0169013
0.00124276
0.0159847
0.00861134
0.00899595
0.00880162
0.00768364
0.0101438
0.0122785
0.000509637
0.019582
0.0204327
0.017241
0.00114315
0.0203045
0.01233
0.0129723
0.0146278
0.0153045
0.0178544
0.0139303
0.0313892
0.00356292
0.0127305
0.0198219
0.0152707
0.0152575
0.00295342
0.0138524
0.0218124
0.0242224
0.0178992
0.00820175
0.0211075
0.00750073
0.0140991
0.0224784
0.0236846
0.0140629
0.0239561
0.0237307
0.0235871
0.0219591
0.0148873
0.0228659
0.0216699
0.0190033
0.00847897
0.0170741
0.00672457
0.00184502
0.0174767
0.00553888
0.0223197
0.0227489
0.0221207
0.0205837
0.0130379
0.0207398
0.023508
0.0072828
0.00513532
0.0101272
0.0251055
0.0170809
0.0164724
0.00420701
0.00365749
0.019773
0.00125506
0.0119834
0.024594
0.0211343
0.0179561
0.018589
0.0111434
0.00985804
0.00257205
0.0191488
0.000277566
0.00697947
0.0214568
0.000904435
0.00265682
0.0041609
0.00542543
0.00318757
0.0150806
0.0170363
0.0197976
0.0129712
0.00797324
0.0286164
0.00793915
0.00915348
0.0097922
0.0206633
0.018613
0.0234458
0.0210901
0.00658001
0.0117538
0.0113942
0.0113908
0.01329
0.0161754
0.016214
0.0188756
0.0179214
0.0168403
0.0123531
0.00915832
0.00928515
0.00224656
0.0177492
0.0211379
0.00755578
0.00311707
0.0316491
0.0119389
0.021574
0.014587
0.0219614
0.0262991
0.0170436
0.0076309
0.00647498
0.0140056
0.0231203
0.0221598
0.005764
0.0247436
0.000197636
-0.000231855
0.0214071
0.023843
0.0118932
0.00984727
0.0199837
0.00507901
0.0222882
0.0241289
0.00971693
0.0197304
0.0204784
0.0304129
0.00551181
0.0231454
0.0135153
0.0141153
0.0194196
0.0231951
0.00256015
0.0180544
0.0247747
0.0241094
0.0257964
0.00550638
0.02022
0.0197303
0.00284435
0.0160084
0.0232124
0.0165249
0.00230016
0.00717907
0.0151928
0.00498134
0.0167679
0.00706794
0.00059772
0.000779498
0.0101833
0.00292629
0.0219813
0.0128579
0.00561094
0.00980496
0.0228161
0.0228514
0.0202297
0.0212043
0.0224905
0.0129664
0.00232624
0.00484194
0.0112187
0.019195
0.0192621
0.0197909
0.0200077
0.0136263
0.0133847
0.01211
0.0166487
0.014754
0.0148722
0.0160443
0.0242544
0.0174786
0.0192805
0.0164233
0.0182153
0.0180007
0.00907967
0.0176758
0.0138052
0.00852688
0.012407
0.0279978
0.0139889
0.0312044
0.0185332
0.00534486
0.00828184
0.0162998
0.0265372
0.0149311
0.0140879
0.00631407
0.0185875
0.00056432
0.00157133
0.000302729
0.0229482
0.0226378
0.0232382
0.011957
0.025101
0.00446502
0.0237996
0.0241585
0.0232279
0.00238949
0.0264817
0.0234279
0.00176916
0.0248164
0.0141241
0.0148307
0.0138852
0.0193555
0.0210047
0.0172657
0.0181354
0.0192176
0.0118742
0.0114397
0.00295052
0.0241163
0.0189993
0.0216939
0.0166284
0.0211194
0.0235837
0.00875804
0.022769
0.00232179
0.0169774
0.00806001
0.000908056
0.000144297
0.0102164
0.0212556
0.00801062
0.0194091
0.0197661
0.00666389
0.0208022
0.00773167
0.0249182
0.0197632
0.0245946
0.0185207
0.0100418
0.0195276
0.0204603
0.0226795
0.00521909
0.0201399
0.0201427
0.0211001
0.0226315
0.0161728
0.0213972
0.0172427
0.00231276
0.0205345
0.00514548
0.015295
0.016158
0.0110818
0.0177166
0.0267726
0.0135032
0.0124652
0.0131779
0.00913107
0.0171814
0.00636988
0.0114019
0.0210368
0.00995099
0.0198786
0.0059489
0.0212313
0.01772
0.0055179
0.0150185
0.0219723
0.00582121
0.0174187
0.0114564
0.00154641
0.000102052
0.00155364
0.0222213
0.0145977
0.0166476
0.0126858
0.0124159
0.0222788
0.0241486
0.0234074
0.0177248
0.0230446
0.018865
0.024375
0.0128315
0.0248274
0.0246523
0.0246704
0.0239149
0.0232119
0.00280515
0.0195185
0.0232962
0.0177259
0.0160492
0.0259142
0.0233562
0.0117331
0.0242231
0.00243246
0.0219958
0.0230504
0.0160731
0.0153683
0.0207943
0.0217925
0.0207504
0.00102682
0.0242362
0.0183323
0.00691425
0.000346157
0.0239948
0.00736545
0.00307583
0.00200418
0.000263638
0.0172203
0.00545433
0.0288418
0.00877166
0.0207057
0.0110597
0.00840546
0.0120929
0.0202452
0.00865242
0.0240321
0.0199969
0.0117335
0.0224449
0.020091
0.0172241
0.0268835
0.0181895
0.0231202
0.0148425
0.024924
0.0147778
0.0147004
0.00312062
0.0187818
0.0176872
0.0187501
0.0216149
0.015814
0.0249902
0.0187174
0.0181988
0.00252783
0.00556689
0.025086
0.0131959
0.00488789
0.0132773
0.0330833
0.00802804
0.0259214
0.0060152
0.00118613
0.00999029
0.0103687
0.0091857
0.0171618
0.0052608
0.0160071
0.0201011
0.014285
0.00474862
0.0051369
0.02352
0.00144558
0.0175123
0.0162843
0.0107836
0.0219411
0.0261733
0.0113709
0.021912
0.0205281
0.0181259
0.00035823
0.0177091
0.0197965
0.0234221
0.0239011
0.0269568
0.0250767
0.00310536
0.00205009
0.0253003
0.00299624
0.0226773
0.0242656
0.0225395
0.00488307
0.0276816
0.0106366
0.0200815
0.0241361
0.0217862
0.0224695
0.0215623
0.0205304
0.01878
0.0110302
0.0205927
0.0155978
0.00181537
0.0102363
0.0226027
0.0205424
0.0265371
0.0279719
0.00142463
0.014601
0.00237751
0.00456039
0.0235873
0.00449257
0.00384849
0.0247805
0.00570786
0.00970061
0.014255
0.0239841
0.00025088
0.0234058
0.0201589
0.0110698
0.0230024
0.0244896
0.0126928
0.0230843
0.0186942
0.0247681
0.0230312
0.022669
0.0167513
0.0256872
0.0178672
0.0051744
0.00544847
0.0249297
0.0185918
0.0227848
0.0276391
0.0205286
0.0218694
0.0272518
0.00543717
0.0247432
0.0241853
0.024879
0.0136193
0.0359599
0.00418764
0.00700877
0.0110101
0.0101777
0.0269024
0.00812379
0.0197258
0.0156619
0.0163568
0.0152973
0.00554249
0.0100008
0.00651293
0.0234169
0.00107059
0.0249268
0.0254141
0.0256956
0.0121559
0.0213275
0.0317902
0.019818
0.00176682
0.0228845
0.00763896
0.00957916
0.0261916
0.0122885
0.0258664
0.0263035
0.0176322
0.00276999
0.0233806
0.022413
0.0232379
0.0172772
0.0229823
0.0229941
0.0221823
0.0195909
0.0201668
0.0207566
0.0208545
0.0171417
0.0159243
0.00160048
0.0238634
0.0144581
0.0155262
0.0169137
0.00859506
0.00720562
0.0288143
0.0224605
0.0205725
0.0261199
0.027024
0.0100976
0.00412251
0.00698307
0.028316
0.0145745
0.00742408
0.0242505
0.00628639
0.0211279
0.0120945
0.00528622
0.00506206
0.0197873
0.0114874
0.0217015
0.000898649
0.0190988
0.00198048
0.0206892
0.0118277
0.0172777
0.0177334
0.0168384
0.0217885
0.0211099
0.0238048
0.0073193
0.0324445
0.03131
0.0275772
0.0190225
0.0187769
0.0146066
0.0198883
0.0221896
0.023355
0.0266394
6.93359e-05
0.0103637
0.0114552
0.0352851
0.0238903
0.00295486
0.024603
0.00299221
0.014017
0.0160869
0.00980868
0.00714283
0.0277136
0.0225536
0.00763162
0.0151156
0.0285816
0.00973033
0.00597964
0.000490811
0.0139585
0.00207111
0.0257227
0.00609743
0.0273006
0.0323783
0.00834849
0.0227662
0.000303319
0.000326188
0.00790298
0.0263385
0.0263372
0.025059
0.022288
0.00164916
0.0172191
0.0370241
0.0164634
0.0221873
0.0211404
0.0219636
0.0222417
0.0176405
0.0243685
0.0216542
0.00757325
0.00185271
0.00210254
0.00212121
0.0207543
0.0232011
0.0129792
0.0231552
0.00543706
0.00564156
0.00641722
0.0199712
0.0270115
0.0266192
0.0279508
0.0158342
0.0078324
0.02455
0.00742478
0.0198819
0.0215634
0.022296
0.0121682
0.0245025
0.0110848
0.0203322
0.0211221
0.0201864
0.0106593
0.0151173
0.0375233
0.00942833
0.00239913
0.0192652
0.0164615
0.0205783
0.0132369
0.0154637
0.0167126
0.0178459
0.0147466
0.0215202
0.0310793
0.0159673
0.0241612
0.0111105
0.0198485
0.015072
0.0191439
0.0208125
0.0195973
0.0263882
0.00368256
0.0259087
0.0171885
0.000804162
0.0112452
0.0271705
0.0243686
0.0143739
0.0034282
0.0220538
0.00795717
0.0279363
0.00801191
0.0227976
0.0216055
0.0253188
0.0192847
0.0233958
0.0160212
0.00267509
0.0210058
0.0023646
0.025509
0.000245306
0.000881579
0.00530109
0.00190857
0.0174452
0.000891491
0.0281902
0.0283958
0.0238634
0.0245885
0.0267114
0.0267735
0.02586
0.0261961
0.00731153
0.0285329
0.0258201
0.00566501
0.0244635
0.030078
0.0168229
9.34838e-05
0.02358
0.0255773
0.0220358
0.0205585
0.0231729
0.0275215
0.00259861
0.0242175
0.00119742
0.000636263
4.21502e-05
0.0211117
0.0149488
0.00651842
0.0122456
0.0239365
0.0354615
0.0168489
0.0219703
0.0225334
0.0273461
0.00224246
0.0373774
0.0252726
0.00733622
0.0179484
0.00870618
0.0188784
0.0231361
0.00885846
0.0249222
0.019388
0.0105129
0.0165432
0.0101285
0.0204749
0.0164304
0.0262499
0.0270029
0.00766949
0.0140149
0.0170401
0.0166135
0.0225134
0.0316433
0.0114896
0.0224123
0.017192
0.011301
0.0145534
0.0286048
0.0161173
0.014735
-0.000165639
0.0304056
0.0297371
0.000970064
0.0245451
0.00185593
0.0184787
0.0280672
0.00415897
0.0260773
0.0259963
0.027693
0.0265787
0.0213679
0.0219662
0.0238993
0.00649827
0.0231348
0.0080971
0.00214112
0.012235
0.00328086
0.0219702
0.0237938
0.010127
0.0100862
0.0123455
0.0277891
0.00311668
0.0237705
0.0141431
0.0274734
0.0194874
0.0268353
0.0259034
0.0289509
0.025716
0.00120429
0.0171118
0.0255854
0.0178952
0.0233302
0.0225016
0.00472356
0.0270079
0.0204945
0.0282692
2.66628e-05
0.0257443
0.00652529
0.0138652
0.00185427
0.0219728
0.0212551
0.0332633
0.0203531
0.00680346
0.0251926
0.0240155
0.000739899
0.000521358
0.0327451
0.0224917
0.00781007
0.036467
0.00898735
0.0141685
0.024569
0.000314111
0.00283351
0.0374169
0.00714465
0.0107582
0.0106081
0.0174996
0.0240134
0.0138365
0.01006
0.0245984
0.0276184
0.0255091
0.0238223
0.0140061
0.0240152
0.0169058
0.0103733
0.0211921
0.0208382
0.0169373
0.0191638
0.0139074
0.0130598
0.0242559
0.0248709
0.0252835
0.0210384
0.0298655
0.0203306
0.0210884
0.0198441
0.0208094
0.0251728
0.0180924
0.00402842
0.0273819
0.0264959
0.0247456
0.00419175
0.0235375
0.0205531
0.0229838
0.0209528
0.0280354
0.0246059
0.00320897
0.0099109
0.0277446
0.0279512
0.0301838
0.00272399
0.013521
0.00949784
0.025879
0.0250636
0.0268174
0.0299732
0.0302839
0.0260435
0.0297517
0.0256274
0.0251828
0.0162126
0.0268688
0.0227258
0.029676
0.0358699
0.0225194
0.0210362
0.0371194
0.0185649
0.0132253
0.0276455
0.0152767
0.0297339
0.000837968
0.0230783
0.014291
0.0341601
0.0223065
0.0212847
0.0282966
0.0136036
0.000895425
0.012493
0.0344631
0.000204843
-0.000167211
0.0228098
0.0088699
0.00959194
0.00944154
0.00677775
0.00575047
0.00642917
0.00516851
0.0101529
0.0264016
0.0295362
0.00297524
0.0266539
0.0236231
0.00233102
0.0224383
0.0273257
0.0276788
0.0156347
0.0192715
0.0146794
0.0271766
0.015311
0.0235274
0.0210121
0.0156203
0.0217597
0.0265254
0.015046
0.0147115
0.0215802
0.0212144
0.0180075
0.0289042
0.00336792
0.0304172
0.018556
0.015847
0.0174211
0.0273731
0.0119521
0.00921479
0.0274762
0.0243815
0.0250603
0.0267257
0.0341473
0.0308509
0.0275825
0.0249753
0.0272134
0.0286497
0.0277702
0.0172293
0.029202
0.0278593
0.00812691
0.0249344
0.0184819
0.0291229
0.024201
0.0286742
0.0144058
0.0258244
0.0182523
0.0212311
0.0268344
0.0290127
0.00782072
0.0236924
0.0188892
0.0182076
0.0192642
0.0296452
0.0243231
0.0256184
0.000494585
0.0217829
3.76173e-05
0.0254837
0.00210127
0.0350543
0.00882877
0.0181378
0.00710406
0.006843
0.00617831
0.0235527
0.0255934
0.017569
0.0180072
0.0234929
0.016034
0.0268201
0.0275788
0.0200393
0.0302089
0.0261763
0.0303883
0.0263127
0.0246087
0.0283088
0.0160153
0.0207657
0.0214135
0.0170196
0.00379266
0.0285304
0.0279786
0.0332059
0.00866897
0.026209
0.0233895
0.00929208
0.021327
0.0260205
0.0227582
0.029588
0.0280584
0.0268201
0.0292311
0.0217722
0.0279449
0.029157
0.0282223
0.0276731
0.0231517
0.0259068
0.0204957
0.0299108
0.0251056
0.037401
0.036747
0.0242134
0.0296167
0.0237753
0.0233925
0.0227693
0.0195044
0.0274565
0.0243501
0.0262673
0.0273861
0.0299963
0.0264153
0.0225006
0.0250765
0.025135
0.0292627
0.0242984
0.0258935
0.027543
0.0286231
0.00202538
0.026515
0.00280263
0.00321103
0.00356438
0.00181147
0.026091
0.00555666
0.000648239
0.019231
0.0258446
0.0353834
0.0360452
0.0298568
0.0239442
0.0292942
0.0159406
0.0329958
0.0211558
0.0232647
0.0253035
0.0273691
0.017984
0.027051
0.0282953
0.0205067
0.0220149
0.0281289
0.0221782
0.0324079
0.0282577
0.0313855
0.00970701
0.00178711
0.0261927
0.0259843
0.0255563
0.0315498
0.0267796
0.0321279
0.0268709
0.0288986
0.0169054
0.0300281
0.0216919
0.0289425
0.0230303
0.0292936
0.030163
0.0183913
0.0266717
0.0197895
0.0276297
0.0197769
0.0279329
0.0242566
0.0233752
0.0278602
0.0269972
0.0242312
0.0270433
0.0184534
0.0321684
0.0251742
0.0266686
0.0275483
0.0287229
0.00783849
0.0194864
0.0291156
0.00286722
0.00376278
0.0296261
0.0261235
0.000446457
0.0354531
0.0236123
0.0326749
0.0257148
0.0224098
0.0223864
0.0308887
0.0258857
0.0222229
0.0234229
0.0252013
0.0258113
0.025572
0.0332081
0.0284028
0.0285275
0.0192198
0.0192751
0.0300238
0.0243017
0.0284321
0.0283903
0.0320766
0.0354736
0.0337362
0.0226262
0.0300925
0.0237731
0.0278851
0.027325
0.0233799
0.0106636
0.0295599
0.0357725
0.0290091
0.0223188
0.0257283
0.0223233
0.0368151
0.0206065
0.0264574
0.0223874
0.0234305
0.0280311
0.0295766
0.0236122
0.0283019
0.0277401
0.0251958
0.0287522
0.0279273
0.0278468
0.0249664
0.0300881
0.0301999
0.0296841
0.0254746
0.0293096
0.0293684
0.029066
0.00933241
0.0297577
0.0211276
0.0218555
0.0268403
0.0320496
0.0213087
0.0259668
0.0300924
0.0254719
0.0260684
0.0225609
0.0337086
0.0251288
0.0294853
0.0213604
0.0214604
0.0258134
0.0298308
0.021285
0.025393
0.0252295
0.0293388
0.029802
0.0254549
0.0257098
0.0319754
0.0318559
0.0262751
0.0314918
0.0308453
0.0277705
0.0317372
0.0129706
0.0315786
0.0298492
0.029398
0.0296675
0.0282904
0.0296051
0.0327105
0.0267526
0.0294348
0.0236282
0.0269978
0.0243255
0.0278966
0.0278825
0.0338043
0.0283215