/*--------------------------------*- C++ -*----------------------------------*\
| =========                 |                                                 |
| \\      /  F ield         | OpenFOAM: The Open Source CFD Toolbox           |
|  \\    /   O peration     | Version:  2212                                  |
|   \\  /    A nd           | Website:  www.openfoam.com                      |
|    \\/     M anipulation  |                                                 |
\*---------------------------------------------------------------------------*/
FoamFile
{
    version     2.0;
    format      ascii;
    arch        "LSB;label=32;scalar=64";
    class       surfaceScalarField;
    location    "0.056";
    object      phi;
}
// * * * * * * * * * * * * * * * * * * * * * * * * * * * * * * * * * * * * * //

dimensions      [0 3 -1 0 0 0 0];

oriented        oriented;

internalField   nonuniform List<scalar> 
68568
(
-1.52623e-07
1.57413e-07
-2.96691e-08
2.48797e-08
1.46684e-07
-7.49874e-08
-7.77488e-08
6.05269e-09
1.77863e-07
-1.35836e-07
-6.01855e-08
1.81586e-08
-4.56462e-09
2.2188e-09
-1.7078e-07
1.73126e-07
-1.29654e-09
1.43129e-07
1.02776e-09
-1.4286e-07
1.40538e-07
-4.54202e-10
-1.29441e-07
-1.06425e-08
8.44011e-08
-8.94579e-08
1.31586e-07
-1.26529e-07
-3.99815e-08
-2.74019e-08
1.51784e-07
1.32648e-07
-1.58637e-08
-1.11843e-07
-4.9409e-09
1.50675e-07
5.41616e-08
-5.81529e-08
1.01904e-07
1.38831e-07
-6.28729e-08
-6.47471e-08
-2.04242e-07
1.94001e-07
-1.41375e-07
6.93382e-08
-5.71211e-09
1.85089e-07
-1.90572e-07
1.36838e-08
-8.20046e-09
-7.08931e-08
-5.19898e-08
1.21734e-07
1.14934e-09
1.29761e-07
8.88878e-08
-1.32135e-07
-8.65129e-08
-5.17749e-08
-7.98141e-08
1.16426e-07
1.51628e-08
1.13563e-07
-1.18819e-07
-4.65184e-08
1.13227e-07
-4.403e-09
-6.91007e-10
-1.08133e-07
8.65566e-08
-1.56799e-07
7.85851e-08
-8.34228e-09
1.14201e-07
-4.37816e-10
-1.1371e-07
-5.31938e-11
-1.81817e-08
9.15522e-09
1.4282e-07
-1.33794e-07
-4.65103e-08
1.92692e-07
-2.77772e-08
-1.18404e-07
-7.96669e-10
-5.39017e-10
-1.38239e-07
1.39574e-07
-7.58131e-08
-4.95529e-08
1.18314e-07
7.05195e-09
-9.88112e-08
-4.06741e-08
-1.31382e-08
-6.6071e-08
1.44011e-07
8.6167e-09
7.86952e-08
4.61442e-08
-3.14965e-08
-9.33428e-08
-6.9635e-08
-1.01088e-07
1.30742e-07
4.9876e-08
-1.22818e-07
3.30703e-09
1.56382e-07
-8.3186e-08
-1.47283e-07
7.40871e-08
-1.34364e-08
2.49098e-09
1.19167e-07
-1.08221e-07
1.59797e-07
-3.33995e-08
-1.14394e-08
-1.14958e-07
1.21679e-07
-9.32439e-08
-6.00262e-08
3.15911e-08
-6.20344e-10
1.11418e-07
-1.10853e-07
5.55287e-11
1.24378e-07
8.65243e-08
-8.666e-08
6.13653e-10
-4.77958e-10
4.40618e-08
-1.63132e-07
9.49279e-08
2.41421e-08
-1.65015e-07
1.43416e-07
6.56606e-08
-7.53137e-08
-1.78931e-10
-3.20464e-10
-8.67081e-10
1.16187e-07
-1.11885e-09
1.15135e-07
-1.14655e-07
-6.56644e-10
1.75939e-10
-2.69818e-08
-1.60903e-07
1.22405e-07
1.98408e-07
-1.50909e-07
-1.69904e-07
-6.32551e-08
-1.06099e-07
2.99115e-07
-1.49549e-07
1.67018e-07
-1.40204e-07
1.22736e-07
-1.2633e-07
6.69446e-08
-5.36182e-09
1.17754e-07
-1.14966e-07
-3.67669e-09
8.87967e-10
1.00173e-07
2.57494e-08
1.20133e-08
-1.37936e-07
2.26785e-09
-1.55429e-07
1.50734e-07
3.46974e-08
-3.00032e-08
-8.77331e-09
-9.54269e-08
1.03873e-07
3.27556e-10
-1.23338e-07
1.40817e-07
1.77806e-07
-1.92758e-07
-3.89693e-10
-1.80472e-10
2.13108e-09
-1.68839e-09
1.11409e-07
-1.11851e-07
4.02289e-08
-1.1806e-07
-1.98315e-09
9.37299e-08
-1.0011e-07
3.77382e-09
2.60664e-09
-8.75718e-08
1.45189e-07
-6.37854e-08
6.16866e-09
1.50089e-07
-7.77127e-08
-7.58223e-08
3.44578e-09
9.25106e-08
-9.28039e-08
-5.03329e-10
-1.14677e-07
-1.74913e-09
1.18645e-07
7.77732e-08
7.3229e-08
-7.90895e-09
-1.43093e-07
-6.16216e-09
1.38567e-07
-1.33281e-07
8.76667e-10
9.05316e-08
-1.53548e-07
-3.05481e-09
1.10834e-07
-1.80823e-08
3.44042e-08
-1.27156e-07
1.53296e-07
-2.40244e-08
-1.73766e-07
4.44949e-08
4.15705e-08
8.4117e-08
-1.24605e-08
6.58329e-08
-1.30473e-07
7.14849e-08
-6.84476e-09
1.37663e-07
-1.38821e-07
-1.39147e-10
-1.02969e-07
1.4701e-07
-3.25135e-08
-1.15274e-08
-2.10012e-07
-1.53844e-07
2.94137e-07
6.97188e-08
-1.27465e-07
-1.7322e-09
1.33423e-07
-6.45393e-09
1.37798e-07
-1.4622e-07
-5.51076e-08
6.35297e-08
-1.28523e-07
6.63869e-08
6.81176e-08
-5.9818e-09
-8.54967e-09
-5.53611e-08
-4.97863e-08
-1.0303e-07
1.03182e-07
-4.89792e-10
3.3739e-10
4.1005e-08
1.77771e-07
-6.86866e-08
1.07134e-07
-6.47148e-08
5.13103e-08
-7.46177e-08
-8.16428e-08
1.52317e-07
3.94344e-09
-5.93858e-10
-2.24238e-07
-4.69973e-10
2.25302e-07
7.57659e-08
-4.76481e-08
8.70175e-08
-2.81407e-10
6.59443e-08
-6.57445e-08
8.15869e-11
-1.97028e-08
1.43144e-07
6.91102e-08
-1.92551e-07
1.74065e-07
-8.79763e-08
-9.12645e-08
5.17576e-09
1.21832e-07
3.8866e-08
-3.7075e-08
-1.23623e-07
1.67449e-07
-7.87995e-08
7.8032e-08
-1.66681e-07
3.60379e-08
1.35966e-08
1.17814e-07
-9.04e-08
8.59696e-08
-1.66349e-07
1.26899e-07
1.09931e-09
-1.24234e-07
-3.76373e-09
-4.05585e-08
-2.85876e-07
2.00105e-07
8.54962e-08
8.82402e-08
-6.71872e-09
-3.73291e-10
5.08199e-10
9.58653e-08
-9.60002e-08
-1.26292e-07
1.26156e-07
-4.03043e-10
-6.09883e-08
1.2179e-07
6.14257e-09
7.53502e-09
8.95073e-08
-5.12923e-09
-9.19131e-08
-1.30806e-07
5.78576e-08
9.13854e-08
-1.84367e-08
-4.5064e-08
-8.28618e-08
-1.03129e-08
-8.5094e-08
1.65039e-07
5.55118e-09
7.38044e-08
7.68581e-08
-1.45407e-07
-5.25553e-09
1.15898e-07
1.11189e-09
-1.16857e-07
-1.5293e-10
-5.87389e-09
-2.23756e-07
-1.4716e-08
2.33962e-07
-7.3578e-09
1.27299e-07
-1.27928e-07
5.86121e-08
-7.67338e-09
9.94327e-08
-4.0553e-10
-9.79617e-08
-1.06545e-09
1.24639e-07
-8.28793e-10
1.38657e-07
-4.7388e-08
8.27958e-08
1.70743e-10
-1.05792e-07
-3.44845e-09
1.13644e-07
-4.404e-09
9.26545e-08
-5.11942e-08
-9.17918e-08
-9.7923e-11
9.17949e-08
9.48094e-11
-3.56984e-08
-1.39069e-07
1.4771e-07
2.70568e-08
-2.28198e-09
1.33198e-07
-1.30484e-07
-4.31831e-10
-9.01816e-08
-3.74873e-08
1.27776e-07
-1.06678e-10
-4.27037e-09
2.0947e-09
-1.12502e-07
-1.66902e-07
8.88852e-08
8.32366e-08
-5.21938e-09
3.40831e-10
-1.02628e-07
1.02583e-07
-2.96152e-10
1.41036e-07
-8.4021e-10
-3.27974e-10
-1.13242e-07
2.91647e-10
1.13278e-07
-8.19172e-09
2.22329e-08
-6.80548e-09
1.34238e-07
-7.34226e-08
5.01758e-09
1.43852e-07
-1.43064e-07
-1.4224e-08
-1.2616e-07
1.42622e-07
1.93872e-08
-3.58498e-08
7.3513e-08
-7.48927e-08
1.54676e-07
3.93237e-09
1.1609e-07
1.55913e-07
-1.29227e-09
-1.56902e-07
7.03144e-08
-1.46559e-07
-4.62455e-09
8.08693e-08
1.46317e-07
-8.0472e-08
7.95919e-09
1.01849e-07
-9.9666e-08
-1.14697e-07
5.95381e-08
-3.15011e-08
-1.53157e-07
1.45994e-07
-1.96894e-08
2.68521e-08
1.60182e-07
4.82633e-08
-5.57214e-08
-1.51064e-07
-7.5361e-08
-3.11677e-08
8.24038e-08
2.41249e-08
-1.33378e-07
7.02222e-08
-5.5853e-08
1.19009e-07
-1.55953e-07
-3.41834e-09
1.62479e-07
-3.10774e-09
-1.1171e-07
2.11929e-08
-6.54359e-08
-1.67183e-07
-6.40319e-09
9.65414e-08
-1.37899e-09
-1.14687e-07
-6.04075e-10
-1.11654e-07
1.42922e-07
-7.55439e-08
6.08484e-09
1.59319e-07
-8.51083e-08
-8.06367e-08
6.42654e-09
-1.37593e-07
1.84647e-07
-4.75521e-08
4.98625e-10
8.40782e-08
-8.48644e-08
-1.36807e-07
9.66972e-08
7.49173e-09
-2.33965e-09
7.09611e-10
1.06666e-07
-1.06169e-07
-1.2061e-09
1.94639e-07
-4.93683e-08
-1.06405e-07
-1.11285e-07
5.0664e-08
1.17273e-07
-1.1263e-07
-2.54848e-09
-1.87786e-09
1.03769e-07
-1.02244e-07
3.52252e-10
-1.00917e-08
-1.38042e-07
1.3524e-07
1.28932e-08
-1.42164e-07
1.59141e-07
-1.00542e-08
-6.92259e-09
1.23612e-07
-9.66255e-08
-2.09701e-08
2.676e-09
-8.23969e-09
-1.0018e-07
9.96463e-08
3.37554e-08
-6.98975e-09
-1.38475e-07
-2.04744e-08
1.12747e-07
-8.60698e-08
-6.2026e-09
1.6446e-07
-7.03074e-09
-1.41292e-08
-1.433e-07
1.60748e-07
2.12772e-10
-2.80788e-09
-1.58153e-07
1.39181e-07
-1.38241e-09
-1.35687e-10
1.31827e-07
-1.32141e-07
3.54916e-10
-4.16256e-11
-1.28473e-07
-8.32537e-08
1.28865e-07
2.16807e-08
-1.74228e-07
-1.12831e-07
1.1254e-07
1.66026e-10
1.24577e-10
-1.36813e-07
-7.26454e-09
1.91319e-09
-1.04058e-07
4.77218e-12
1.0401e-07
4.37782e-11
-1.24586e-07
-2.73e-10
1.25069e-07
-2.10385e-10
-7.00677e-09
1.19078e-07
-1.04545e-07
-7.22949e-09
-1.05097e-07
1.04507e-07
2.62191e-10
1.0299e-08
2.9184e-08
9.16704e-08
-1.29199e-07
7.42276e-08
-7.45702e-08
1.47671e-07
-1.47328e-07
1.05302e-07
-8.27819e-08
-2.46702e-08
2.15008e-09
1.45399e-07
-4.74336e-08
-1.11975e-07
1.599e-08
5.61194e-09
-1.10968e-07
1.25454e-07
-2.00973e-08
-5.93514e-10
1.04144e-07
-1.03028e-07
-5.22904e-10
-1.43813e-07
-8.5179e-09
1.69004e-07
2.10724e-07
-8.96523e-08
1.90195e-07
1.56212e-07
-7.77938e-08
5.65968e-09
-2.36226e-08
2.63153e-08
-1.09143e-07
1.09672e-07
9.00873e-08
9.52159e-08
-7.53229e-09
9.48641e-08
7.36743e-08
-1.62371e-07
-6.16767e-09
8.3353e-08
8.07138e-08
-7.85455e-09
1.23581e-07
-7.67412e-08
8.49879e-08
7.48857e-08
-1.27053e-07
6.06311e-08
-8.46364e-09
6.50474e-10
-1.00541e-07
-1.19798e-09
2.37214e-10
-3.16978e-07
1.89479e-07
2.18144e-07
-1.32665e-07
5.294e-08
9.70744e-09
4.43819e-08
4.62676e-08
-1.00357e-07
-1.30498e-07
2.0434e-09
1.29607e-07
-1.15265e-09
-9.97939e-08
9.92891e-08
1.4852e-12
5.03284e-10
1.31354e-07
-1.70057e-07
2.0101e-07
-1.62308e-07
1.58129e-08
-1.33426e-09
1.2865e-07
-3.20617e-08
7.54426e-09
-7.49458e-08
9.94632e-08
-7.3e-08
1.42003e-07
5.22479e-09
-1.48373e-07
7.72643e-08
7.63552e-08
-5.24635e-09
-1.12847e-07
-2.52144e-08
1.17587e-07
5.49349e-10
7.84198e-08
-1.52297e-10
-7.88169e-08
1.48694e-07
-6.73345e-08
7.84372e-08
1.39162e-09
-1.21249e-10
1.0319e-10
-9.85736e-08
1.81487e-07
-4.83985e-08
-3.01735e-08
-1.02915e-07
-6.38922e-09
3.04213e-08
-1.01438e-07
8.17661e-08
-3.40576e-08
2.29878e-08
2.23688e-07
-4.75505e-08
1.69008e-07
-1.72366e-07
-6.34428e-08
-6.80328e-08
5.31584e-09
1.33624e-07
6.27547e-09
-7.1729e-08
-7.30021e-08
1.37443e-07
7.28783e-09
1.55781e-08
1.19021e-07
-1.59009e-07
-1.84017e-10
7.09736e-08
-6.88672e-09
-6.72508e-10
-1.36959e-07
1.42238e-10
1.37489e-07
-1.42832e-07
1.74758e-07
-4.54611e-08
1.13011e-08
-9.81401e-09
5.21093e-08
1.13617e-07
-1.31236e-07
7.66583e-08
-2.76e-08
8.21778e-08
-1.43796e-07
9.69067e-08
-1.30699e-07
1.29211e-07
1.95721e-10
9.44205e-08
2.22093e-08
-1.69772e-07
-2.20555e-08
1.69619e-07
-1.86357e-07
1.02172e-07
-1.40054e-07
-1.73279e-09
1.68859e-07
2.44367e-08
6.75207e-08
-9.66874e-08
4.72999e-09
4.30426e-08
-9.64222e-09
9.69582e-10
-1.01604e-07
6.73225e-10
-2.39085e-07
2.39192e-07
-5.76183e-10
-9.70924e-08
-1.01998e-07
-9.47916e-08
1.03337e-07
-1.13643e-07
8.54804e-08
-1.08398e-07
1.74348e-08
5.48257e-09
1.28126e-07
-9.23654e-08
-9.4456e-09
-1.58223e-07
-1.10177e-08
2.13196e-08
1.47921e-07
-3.16484e-07
-2.56838e-10
-1.33656e-07
1.32817e-07
4.6553e-10
-9.51441e-08
-9.4348e-12
3.61992e-10
-1.44485e-08
-9.63268e-08
1.54283e-07
-4.35077e-08
1.10747e-07
5.44982e-09
4.45512e-08
-1.37277e-07
1.36497e-07
-3.62309e-09
-5.29648e-08
1.39956e-07
-1.00043e-07
2.46787e-10
-1.30561e-07
-1.8403e-10
9.33707e-08
-9.53003e-08
2.41282e-10
-6.75164e-08
-6.70894e-08
1.26757e-07
7.84865e-09
1.15629e-07
1.78928e-08
-9.90408e-08
-3.44813e-08
8.25227e-08
1.55328e-07
-2.16531e-07
-2.2843e-08
-1.12027e-07
-1.98289e-08
1.29844e-07
5.51233e-11
-1.30276e-07
3.76467e-10
2.46122e-08
7.95666e-09
5.54597e-08
-8.80286e-08
-1.44154e-07
7.77128e-08
-5.28732e-09
-1.21127e-07
1.19082e-07
-6.73774e-09
-4.23861e-10
1.23687e-07
3.17313e-10
-8.15423e-08
-7.33665e-08
1.47818e-07
7.09034e-09
1.3175e-07
-7.09385e-08
-6.77897e-08
6.97786e-09
1.32272e-07
-2.42882e-09
1.45212e-12
-1.03156e-07
-9.37075e-08
1.01719e-07
-1.35122e-07
-4.81097e-08
1.50055e-08
1.69889e-07
-1.08333e-07
3.02472e-08
-1.31926e-07
3.02362e-10
-1.07926e-07
7.20783e-10
-6.78469e-10
1.37239e-07
2.62393e-08
-2.80695e-08
-1.35409e-07
4.70397e-08
-1.32978e-07
6.4523e-12
1.11923e-10
3.98828e-08
-1.98924e-07
-8.00271e-08
1.35558e-07
9.14793e-08
2.12392e-08
-1.49178e-07
-1.88643e-08
1.46803e-07
-8.31278e-08
6.14206e-09
1.35939e-07
-1.34461e-07
9.35005e-08
4.24408e-08
-1.48058e-09
-7.0148e-10
2.50818e-10
-9.95164e-08
6.83229e-08
-4.5048e-09
-1.69741e-09
-3.1463e-09
-2.39093e-09
9.79695e-08
-9.24323e-08
8.43562e-08
1.06967e-07
-1.05929e-07
-8.53944e-08
1.52752e-07
-1.70551e-07
3.14765e-10
1.7993e-10
1.61058e-07
-1.03733e-08
-1.41529e-07
-4.36867e-08
1.56195e-07
1.11036e-08
1.21318e-07
-1.14412e-07
-5.98174e-09
-9.24116e-10
-1.15781e-09
1.1699e-07
1.67813e-07
-5.83249e-08
-2.35411e-09
9.63595e-08
-8.54141e-08
-5.31075e-10
1.52154e-10
1.44231e-07
-1.65797e-07
8.47309e-09
1.53581e-07
1.12377e-09
-1.20885e-08
1.83497e-07
-2.30327e-07
5.00841e-08
9.92758e-10
9.28227e-08
-8.8979e-10
-9.29257e-08
-1.19733e-07
1.20018e-07
-1.81206e-10
1.18673e-09
-1.61181e-10
-1.14129e-07
1.13021e-07
-4.9716e-11
-1.12e-07
-2.35776e-10
2.09068e-10
7.29926e-08
-1.05265e-07
-7.81406e-08
1.10413e-07
2.54649e-11
-1.17635e-07
1.17715e-07
-1.05993e-10
-3.36761e-08
4.85017e-08
1.6075e-08
-2.01077e-08
-1.44275e-07
7.50533e-08
-6.13944e-09
2.88151e-08
-1.63278e-08
1.08831e-07
-1.38257e-07
6.67829e-08
6.42229e-08
7.25074e-09
-1.62566e-07
-1.13807e-07
1.13892e-07
-1.29023e-07
-4.42005e-08
5.93313e-08
1.32723e-07
-1.33572e-07
2.68954e-10
5.80572e-10
-1.8013e-09
-1.88684e-07
1.4617e-10
1.9034e-07
-1.08196e-07
3.84235e-11
1.08213e-07
-1.30669e-07
-1.69352e-10
5.62627e-10
7.40261e-08
-1.30491e-07
-6.97759e-09
3.14377e-10
-1.32372e-07
-8.32222e-11
7.77256e-08
7.86141e-08
-5.6052e-09
-7.51381e-08
-7.53938e-08
1.44265e-07
6.26735e-09
-1.19101e-07
8.63143e-10
1.18029e-07
2.0869e-10
1.26928e-07
3.14668e-08
1.13092e-07
-1.60949e-08
1.10258e-07
-5.64741e-09
-1.00815e-07
4.75683e-08
4.59806e-08
7.26631e-09
2.47054e-09
1.31491e-07
-1.57312e-09
-1.27708e-07
7.52912e-08
-7.31802e-08
-1.34618e-07
-1.08725e-07
1.19527e-07
1.23817e-07
1.10824e-07
-1.07579e-10
1.17938e-07
-1.19452e-07
1.465e-09
4.88711e-11
-1.3434e-07
-1.31386e-07
8.45575e-10
5.64886e-11
1.73682e-08
3.27766e-08
-1.5469e-07
1.53218e-08
-4.45236e-08
2.01847e-07
1.3786e-07
-1.38053e-07
2.01714e-09
-8.74989e-10
1.9784e-08
-2.19132e-08
1.36542e-07
-3.38366e-08
-8.07918e-08
1.08308e-07
-7.29631e-10
-1.07357e-07
-2.21341e-10
-4.32836e-08
-1.47872e-07
2.94019e-07
-1.02863e-07
1.06342e-07
-8.11956e-08
-7.09827e-10
-5.05119e-11
1.04646e-07
-4.51351e-10
7.5404e-08
-7.60079e-08
1.41954e-07
-1.87327e-07
-1.33431e-07
8.12146e-08
1.29481e-07
-2.37434e-09
-3.0854e-08
-8.43676e-08
7.27431e-08
8.68992e-08
8.17119e-09
2.0017e-07
-1.28714e-07
6.28536e-09
1.51118e-07
-8.17538e-08
6.99125e-09
1.27254e-07
-1.69704e-07
1.25132e-07
-7.1411e-08
-3.70011e-08
-1.42107e-08
1.80681e-09
1.07016e-07
-1.18915e-07
6.96858e-08
-1.31927e-07
-5.27518e-09
1.52026e-07
8.87051e-10
-4.79445e-08
1.45786e-07
-9.91608e-08
-1.94317e-09
-2.60022e-08
1.42514e-07
-1.60082e-07
4.35706e-08
1.19417e-07
2.15134e-08
-5.68138e-08
-2.72444e-09
-1.51778e-07
1.52159e-07
-9.48321e-10
-3.07623e-08
2.32169e-08
-9.95989e-08
1.07144e-07
7.68888e-08
-1.44761e-07
-5.13003e-09
-1.38997e-07
1.39437e-07
-1.25862e-10
-7.78237e-08
1.60739e-07
-1.26199e-07
-7.37495e-08
-8.09053e-08
1.55858e-08
-1.02219e-07
-1.16633e-10
2.06599e-07
6.23145e-08
-1.62708e-07
-1.08823e-07
-7.53744e-08
1.34353e-07
2.35159e-07
-1.35623e-11
-9.17e-08
-1.62003e-10
9.18755e-08
3.31479e-08
1.08241e-07
-7.24326e-10
1.52614e-07
6.32572e-09
9.87981e-08
5.76534e-08
2.68941e-09
7.50829e-08
-1.44594e-07
-5.62727e-09
-7.43299e-08
-8.37391e-08
1.49453e-07
8.6161e-09
-9.21743e-08
-4.50747e-09
-4.13351e-09
-1.01953e-07
-1.16819e-07
1.17193e-07
-5.78383e-11
-1.27188e-07
-3.4087e-09
1.24435e-07
-9.21596e-08
-1.39813e-07
1.00262e-07
1.31711e-07
-1.14386e-07
3.97192e-08
7.79289e-08
-3.26185e-09
7.20518e-08
7.16696e-08
-1.36791e-07
-6.92993e-09
-7.28632e-08
-7.02734e-08
1.36745e-07
6.39137e-09
5.29324e-08
4.89819e-08
-1.11937e-07
1.00225e-08
-6.89993e-08
1.15236e-07
-3.74747e-08
-8.76238e-09
1.07654e-07
-1.08151e-07
-1.75169e-10
-9.67021e-08
7.30192e-10
8.4274e-08
1.08923e-07
-2.91089e-08
-1.64089e-07
-3.19901e-08
9.14029e-08
3.93378e-08
-9.87507e-08
-9.99768e-08
-6.19695e-11
1.01811e-07
-1.77238e-09
-7.58072e-08
-4.36974e-08
9.75914e-08
1.26823e-07
-3.31348e-09
7.20331e-08
-1.34342e-07
6.73672e-08
-5.05821e-09
-6.26437e-08
4.66211e-08
-1.29361e-07
1.16435e-08
1.28998e-07
-1.06724e-07
-3.20706e-08
4.73755e-08
8.53215e-08
-7.66039e-08
9.31299e-10
-1.25338e-07
-1.79694e-10
-7.11256e-09
1.37298e-08
1.06042e-07
-1.19981e-07
5.80345e-08
5.48352e-08
7.1108e-09
7.56339e-08
-4.92572e-09
4.05007e-08
6.48769e-08
7.36925e-09
9.03016e-09
1.31344e-07
-1.08933e-08
-6.75442e-09
-8.44709e-08
8.26526e-08
1.3836e-07
-7.64377e-08
-1.61614e-07
1.62229e-07
1.70158e-07
5.94623e-08
-5.71018e-08
-1.72518e-07
1.47153e-08
-1.3294e-07
1.42837e-07
-8.06873e-08
-7.30797e-08
1.46964e-07
6.80315e-09
-5.01811e-08
-1.20329e-07
2.07199e-09
6.97398e-08
-6.84481e-09
1.33488e-07
-6.90109e-10
-7.58806e-11
2.30085e-08
-8.86368e-08
9.44434e-08
2.54015e-10
2.50137e-10
-1.39501e-07
-3.8119e-09
8.00252e-08
-7.69776e-08
1.17176e-08
-8.64003e-08
1.47741e-07
-7.30584e-08
-2.87578e-08
-1.39245e-07
1.14573e-09
1.66858e-07
9.62968e-08
-1.85038e-07
7.22978e-08
1.64432e-08
-1.25873e-07
9.28961e-08
-1.00679e-07
1.03176e-07
-6.85708e-10
-1.02252e-07
-2.38287e-10
-4.67278e-08
-1.31653e-07
4.73727e-08
1.31009e-07
-7.441e-08
-1.2647e-07
1.52544e-07
4.8336e-08
-2.9368e-09
-1.46108e-07
1.46692e-07
2.3528e-09
-1.28527e-07
1.28375e-07
-1.6492e-09
-1.48249e-07
1.3101e-07
-6.58201e-08
1.4177e-07
7.25388e-08
-6.21902e-09
7.87396e-08
-1.40199e-07
-6.55934e-08
-1.29351e-07
9.04891e-08
-1.05293e-07
-1.38188e-08
1.46585e-07
-9.02457e-08
-3.5588e-08
1.23409e-07
-1.2152e-07
-3.33297e-09
1.44426e-09
-1.00476e-07
-2.41235e-09
4.31434e-09
9.24511e-11
-1.53735e-07
1.50706e-07
-9.26959e-08
-2.23065e-10
7.4466e-10
-9.55932e-08
8.03502e-08
1.58986e-08
-6.55588e-10
-5.7296e-08
-1.36921e-07
1.84424e-07
9.79333e-09
1.18696e-07
-4.55747e-10
5.77203e-08
4.93783e-08
-1.15789e-07
8.69092e-09
-1.11411e-07
-5.28711e-10
1.11675e-07
2.64105e-10
-1.08951e-07
1.57332e-08
-2.6234e-08
6.49497e-08
-1.2378e-07
5.23522e-08
6.47841e-09
-4.84462e-09
-9.65607e-08
4.3129e-09
1.62327e-09
-1.37715e-07
1.47359e-09
5.50001e-08
7.68422e-08
-7.42502e-08
1.8374e-08
4.37746e-08
2.12694e-08
1.30181e-07
-1.30717e-07
6.57971e-10
-1.22382e-10
-2.11592e-07
1.99463e-07
8.76171e-08
-7.54876e-08
5.86955e-08
-1.51179e-07
1.16244e-07
-2.37604e-08
7.63883e-08
-6.766e-09
-6.98995e-10
-1.37754e-10
5.91868e-08
-6.29609e-08
-1.18784e-07
1.69702e-07
-1.41099e-07
1.1664e-07
-1.52957e-08
6.82974e-10
-1.56659e-07
1.55926e-07
1.34185e-07
-1.63461e-07
-1.4855e-09
-8.94974e-08
-8.50842e-08
1.67652e-07
6.92955e-09
9.6473e-08
2.59323e-10
-9.6769e-08
3.66668e-11
-1.51407e-07
8.09953e-08
7.51323e-08
-4.7204e-09
-2.05718e-07
1.27769e-07
-1.42782e-07
2.20732e-07
-1.98376e-07
2.59062e-08
-4.68041e-08
-1.16061e-07
-1.68578e-07
1.03821e-07
3.87542e-08
-1.50622e-08
-1.31742e-07
1.43511e-07
3.29272e-09
-3.42966e-09
-1.15127e-07
-9.91639e-09
1.11015e-07
-1.15835e-07
1.2414e-07
-4.01056e-08
1.68402e-07
1.64276e-07
1.00534e-07
-1.31165e-07
-1.26749e-07
4.26078e-10
1.22252e-07
-1.22707e-07
2.85639e-11
1.05954e-07
-1.14801e-07
4.00161e-09
-8.20262e-08
-6.13903e-10
7.23951e-08
1.07871e-07
-4.6778e-08
6.51479e-08
-1.26215e-07
-4.75261e-09
-4.16984e-10
1.19043e-07
-1.18714e-07
8.77366e-11
-1.22821e-07
-4.36516e-10
1.23912e-07
-6.54233e-10
-1.25521e-07
4.61879e-08
-3.5079e-08
-1.22499e-08
1.03798e-07
8.29508e-08
-1.28304e-09
-1.85466e-07
3.2528e-09
-5.40515e-11
-1.76074e-08
8.56657e-08
-1.53986e-07
8.59282e-08
-1.33075e-07
1.35056e-07
6.87207e-08
-6.37428e-09
2.88928e-08
-1.37805e-07
-3.89586e-08
1.47871e-07
4.28134e-08
1.18088e-08
3.48906e-08
-8.95129e-08
7.22493e-08
7.9256e-08
-1.45033e-07
-6.47177e-09
-1.08005e-07
1.0628e-07
1.74784e-09
-2.31269e-11
-7.14411e-08
7.23821e-09
5.84901e-08
-5.62784e-08
1.32224e-07
-1.34436e-07
-1.10221e-07
2.33938e-07
-4.90424e-08
-7.46749e-08
9.05266e-08
-7.54685e-08
-7.93509e-08
6.42929e-08
7.18942e-08
-5.91659e-08
-1.42958e-07
5.67111e-08
8.42367e-09
6.11833e-08
8.49912e-08
7.89614e-08
8.16489e-08
-1.54431e-07
-6.17973e-09
1.41784e-07
8.40644e-09
-6.531e-09
-1.4366e-07
1.07954e-07
7.19701e-10
-3.65756e-10
1.01657e-07
-1.03693e-07
2.41707e-09
-3.81245e-10
-6.92198e-08
-8.14432e-08
1.43788e-07
6.87543e-09
-1.27417e-07
1.47772e-09
4.18029e-10
-1.11738e-07
-2.93136e-11
3.56453e-10
1.19691e-08
1.30906e-07
1.17689e-07
2.0201e-09
-1.01304e-09
1.27891e-10
-1.09098e-07
1.08442e-07
1.02599e-07
1.80076e-08
2.8018e-09
-1.27762e-08
3.84035e-08
-1.2734e-07
1.01713e-07
1.31958e-07
-1.3168e-07
-1.23101e-10
-1.54766e-10
-3.13978e-08
-1.2575e-07
1.83054e-07
-1.25549e-07
-2.03052e-08
1.51336e-07
-5.48202e-09
1.63301e-07
-1.38442e-07
-2.38864e-08
-2.18961e-08
1.36309e-07
1.33648e-07
-1.34883e-07
4.67134e-10
7.68291e-10
1.58826e-07
-4.90928e-08
-1.5647e-07
4.67365e-08
1.32308e-07
-1.32406e-07
1.56486e-07
-1.56388e-07
9.57847e-09
-1.33767e-08
-1.04433e-07
1.08231e-07
2.83606e-08
-1.09065e-07
-4.62521e-08
1.26956e-07
9.20552e-08
8.33442e-08
-1.68131e-07
-7.26831e-09
2.16771e-07
-2.29379e-07
-1.47055e-07
-9.29907e-08
1.08571e-07
-1.39107e-08
1.32941e-08
-1.98244e-07
1.72038e-07
-9.1388e-08
1.43044e-07
-2.42861e-07
1.91205e-07
8.39907e-08
-1.69314e-07
-6.06504e-09
2.1685e-08
9.52624e-08
-1.63911e-08
-1.00556e-07
-1.6346e-09
1.18758e-07
-1.54015e-08
-9.75559e-08
-6.28205e-08
1.63533e-07
-1.13874e-07
1.31614e-08
-2.90251e-08
8.36539e-08
-4.71816e-08
-7.44713e-09
3.11806e-10
-1.05344e-07
1.05509e-07
-4.77065e-10
2.93812e-09
1.32251e-07
-1.34001e-07
-1.18751e-09
-1.23529e-08
-1.34809e-07
1.44372e-07
9.31257e-09
-7.59455e-08
1.82176e-07
1.20847e-08
-5.09914e-08
-4.7165e-08
1.34111e-07
-2.33104e-07
-5.10918e-08
-1.60935e-07
1.27056e-07
-7.63418e-08
1.31079e-07
-1.27617e-07
-5.24099e-10
-1.04782e-07
1.51247e-09
-2.21102e-09
1.05481e-07
6.5798e-08
-2.02792e-07
-1.54542e-07
-3.21146e-11
1.33617e-07
-1.3332e-07
-2.65153e-10
-1.34716e-07
-4.73236e-08
1.72473e-07
6.14902e-09
-9.7104e-09
1.17844e-07
-1.05643e-07
-1.22488e-08
1.54135e-07
-1.23274e-07
6.00366e-10
-1.47111e-10
6.84016e-08
-1.6155e-07
8.79211e-08
5.22723e-09
-1.49155e-09
-1.31823e-07
-1.58006e-09
1.34867e-07
6.10286e-09
-1.11015e-07
5.65969e-08
5.25452e-08
1.8729e-09
-1.13262e-07
3.07995e-08
1.54357e-07
-6.34008e-11
1.44185e-07
-8.34256e-10
-1.43287e-07
7.92287e-09
1.27285e-07
-2.7125e-08
-1.08083e-07
1.53194e-07
-1.74572e-07
9.02571e-08
-6.88791e-08
4.81893e-08
1.21589e-07
-5.97771e-08
-6.81164e-09
8.95976e-08
1.08792e-07
-1.88478e-07
-1.35354e-08
-6.96217e-09
1.16256e-07
-1.40462e-07
1.22868e-07
3.88688e-10
-1.23292e-07
3.4983e-11
7.87986e-09
1.06887e-07
-4.01938e-09
8.467e-08
-2.10333e-07
3.35034e-08
-1.40179e-07
1.98869e-09
-7.888e-08
-6.73389e-08
1.39286e-07
6.93301e-09
-1.11911e-07
-5.09884e-08
3.44689e-08
1.28431e-07
-1.26163e-07
-6.04381e-10
-6.48852e-10
-7.40099e-08
1.56354e-07
-8.84057e-08
6.06196e-09
7.89729e-08
-1.56966e-07
8.18898e-08
-3.89639e-09
-1.18708e-07
-2.50602e-10
1.08248e-07
-1.11349e-07
4.965e-09
-1.86449e-09
1.60198e-07
-8.98159e-08
8.59129e-09
-1.21367e-07
2.05997e-08
-2.07523e-08
6.29674e-08
-1.04123e-07
-2.35588e-08
1.32717e-07
-1.31823e-07
-2.11055e-10
7.20912e-08
6.47065e-08
-6.44789e-08
-7.23188e-08
8.48085e-08
1.58061e-07
-1.70818e-07
8.35752e-08
7.10417e-08
-1.49242e-07
-5.37463e-09
-1.2218e-07
6.45568e-08
5.02651e-08
7.35815e-09
1.93561e-10
1.33002e-07
4.5223e-10
8.41725e-08
7.83705e-08
-1.57115e-07
-5.42793e-09
1.12612e-07
1.23185e-07
-1.01354e-08
-1.09427e-07
-3.62257e-09
1.0083e-07
7.56825e-11
1.56258e-07
-1.57759e-07
-8.66577e-08
8.81581e-08
5.27813e-08
6.30883e-08
7.3156e-09
-6.25396e-09
-2.67647e-07
1.98864e-08
1.76767e-07
-3.6015e-09
6.29236e-09
1.61992e-07
1.38969e-07
-2.36011e-07
-1.30264e-07
1.05411e-09
-1.71079e-09
1.3092e-07
7.2038e-10
1.04793e-07
-1.05466e-07
-4.74314e-11
-8.41252e-08
1.91863e-07
-1.88425e-07
5.49001e-08
1.30518e-07
-6.85523e-08
-1.16866e-07
4.86264e-08
6.15314e-08
-1.17737e-07
7.57963e-09
1.57819e-07
-1.21725e-08
2.20057e-08
-1.40884e-07
-5.56257e-09
5.56136e-08
-1.60128e-07
-1.93675e-08
-1.00932e-07
-1.17676e-07
1.10897e-07
2.11755e-08
-5.17336e-09
-2.18421e-08
1.01809e-07
3.09299e-08
1.71883e-08
-8.46297e-08
-2.0151e-09
1.32236e-07
4.01896e-09
1.36154e-10
4.02482e-10
-2.14811e-07
-1.55966e-08
-5.4664e-10
8.58045e-08
1.51158e-08
-9.27462e-08
-1.57229e-08
2.89656e-07
-1.27376e-07
-1.46558e-07
-1.79088e-07
1.46453e-07
1.21644e-07
-1.54174e-07
-7.24769e-08
7.81468e-08
-8.01163e-08
7.44464e-08
1.25761e-07
-1.30414e-07
-3.92275e-09
8.57606e-09
-4.26143e-09
-6.74675e-08
8.4494e-08
-1.96114e-07
-8.53507e-08
6.88405e-08
-7.04057e-08
-1.26476e-07
2.8653e-07
-4.3757e-08
-1.03928e-07
-1.38654e-08
-8.11118e-08
1.63621e-07
2.2996e-09
-3.52793e-08
-7.56286e-08
9.46847e-08
1.62232e-08
4.2377e-08
-1.89869e-07
8.59938e-08
6.14979e-08
-1.12243e-07
1.12064e-07
-2.33304e-10
4.11755e-10
9.6626e-08
-1.66511e-10
1.47983e-08
1.32561e-07
1.18873e-07
-7.83421e-09
-8.78217e-08
-1.52016e-07
1.87284e-08
7.41562e-10
1.34922e-07
-1.12253e-07
1.65085e-07
-5.07998e-08
-6.01254e-09
3.08181e-09
1.32247e-07
-3.09252e-09
1.11068e-07
4.14263e-08
-1.61451e-07
-3.13824e-08
-1.32574e-07
-1.14946e-07
-8.97042e-08
4.64269e-08
-1.16098e-08
1.14006e-07
-8.89621e-09
-9.97011e-08
-1.1478e-07
-3.4833e-09
1.00179e-07
-1.28983e-07
1.03854e-07
-6.27881e-10
-1.02547e-07
-6.79004e-10
-2.718e-08
-1.5552e-07
-1.86692e-07
1.86367e-07
1.17463e-07
-4.96177e-08
1.1404e-08
-7.92496e-08
1.18913e-07
-5.80902e-10
-1.18162e-07
-1.70236e-10
8.99911e-10
1.07185e-07
-1.08421e-07
3.36647e-10
3.04306e-08
1.25804e-07
-3.85456e-08
-8.15558e-08
-8.61842e-08
1.07737e-08
8.17929e-09
1.14849e-07
-1.19075e-07
-3.95259e-09
-1.31193e-07
1.41645e-07
-2.2727e-09
-1.39709e-07
-3.84117e-09
-1.5661e-07
1.58726e-07
-5.83778e-08
-8.97125e-08
1.54149e-07
-6.05847e-09
1.12815e-07
-1.49347e-08
7.29426e-10
-1.48238e-10
4.92943e-08
1.24133e-08
-1.00225e-09
-2.94805e-10
7.86893e-08
8.62349e-08
-6.09814e-09
-3.53306e-08
1.04778e-07
8.24916e-08
-2.99625e-07
-1.89971e-07
3.18704e-07
1.69012e-07
1.4854e-07
-6.20748e-08
-9.55267e-08
6.12409e-09
-7.43116e-10
-1.29598e-07
-3.76044e-10
5.67339e-08
6.53287e-08
-1.21025e-07
-1.03795e-09
-1.19556e-07
1.19414e-07
1.76046e-10
-3.43164e-11
1.09757e-07
3.38332e-08
-1.43791e-08
1.43816e-09
2.02662e-07
-4.63705e-09
-5.53087e-08
-8.40107e-08
-3.63904e-09
-7.76653e-08
-2.43595e-08
6.56892e-10
1.12635e-07
-1.12572e-07
8.1368e-08
-2.00356e-07
1.11402e-07
-1.02527e-09
-6.19709e-10
7.261e-08
6.7718e-08
-1.36509e-07
-3.81875e-09
-1.68022e-07
8.39175e-08
-2.38247e-08
-2.81266e-08
-3.88373e-08
1.33136e-07
-6.61726e-08
-3.0734e-08
7.37644e-08
3.21018e-08
-1.4623e-07
-9.26325e-08
9.79816e-08
1.40881e-07
7.94568e-08
-5.76321e-09
6.75095e-08
1.33988e-07
-5.4942e-08
-1.46555e-07
-3.8114e-09
1.21907e-07
1.53448e-08
-1.33441e-07
1.16213e-07
-9.86208e-08
-2.16878e-08
4.09573e-09
1.47267e-07
-1.99098e-07
1.84082e-07
1.46715e-07
-7.12013e-08
-6.86649e-08
-6.84886e-09
4.41992e-08
-1.76122e-07
-1.26131e-07
-1.25408e-07
-3.84989e-11
-1.95035e-07
1.64255e-07
-1.70422e-07
2.01203e-07
8.38506e-08
-1.72307e-07
-2.66232e-08
1.23617e-07
-1.22535e-07
-4.49509e-10
-6.32233e-10
6.23407e-08
-1.24552e-07
-5.25624e-09
-7.15836e-09
7.62845e-08
-1.74618e-07
8.23137e-08
-1.41133e-07
5.70916e-11
1.81796e-10
1.40894e-07
-1.01374e-07
1.43016e-07
-1.79682e-07
-9.31561e-08
-2.72839e-08
-7.29703e-09
6.14786e-08
7.16101e-08
-6.03275e-09
-5.43933e-08
-6.19133e-08
-5.87347e-09
-3.86684e-09
-1.08005e-07
-1.04233e-07
-1.08157e-09
-5.70077e-09
7.16633e-08
-7.13783e-08
7.57403e-10
-1.04243e-09
1.10528e-07
-1.08364e-07
-1.3313e-09
-8.33008e-10
-1.32173e-09
1.31628e-07
-1.3045e-07
1.43621e-10
-1.36326e-07
1.4707e-08
1.16014e-07
5.60574e-09
1.31645e-07
-1.24954e-07
-4.65787e-09
-2.03337e-09
-1.11145e-07
-1.21169e-09
1.13022e-07
-6.64634e-10
-1.07554e-07
-6.57115e-08
1.00441e-07
3.52331e-08
-9.92181e-09
-1.25752e-07
7.80054e-08
-8.29416e-08
4.06718e-09
8.69033e-10
4.68063e-08
3.86671e-08
-1.32201e-07
1.12815e-07
-1.09811e-07
-7.41569e-09
4.4122e-09
-5.25741e-08
5.30517e-08
1.57739e-07
5.71606e-09
1.33383e-07
-9.96216e-08
1.24262e-08
-2.84759e-08
-1.21361e-08
-1.05618e-07
-3.01789e-08
2.0165e-07
6.05323e-09
-1.76657e-07
1.34855e-07
-3.47053e-08
-2.0123e-08
2.17592e-08
-8.31255e-08
6.25949e-09
-1.29653e-07
1.29495e-07
6.01321e-08
-7.26317e-08
-3.11978e-08
7.95373e-08
2.14844e-09
6.20325e-08
5.69641e-08
-7.61833e-08
-8.59359e-08
1.18509e-07
-1.31856e-08
-7.2768e-08
5.99536e-09
9.76386e-08
1.17236e-08
2.32858e-08
2.57472e-08
-1.09567e-08
5.31278e-08
6.15352e-08
6.92588e-09
-5.1042e-08
1.67058e-07
-1.73312e-07
-1.81205e-07
8.98203e-08
2.28873e-07
-1.54262e-07
1.09769e-07
-3.368e-08
6.31072e-08
-1.39196e-07
-1.27151e-07
-4.39558e-08
-1.49475e-07
-5.64635e-09
-1.05199e-07
8.25432e-08
-9.10398e-08
1.13695e-07
8.98018e-09
-1.24164e-07
-1.45951e-07
-7.75031e-09
-4.05737e-09
-1.31734e-07
1.19336e-07
1.2861e-07
2.02625e-08
1.05867e-07
2.1266e-09
-1.37173e-07
1.26806e-07
-8.86595e-08
9.90261e-08
-1.04436e-07
1.3827e-08
-2.11282e-08
-3.58437e-08
4.0593e-08
5.22226e-08
-4.59342e-08
-1.15301e-07
-4.51764e-08
1.26057e-08
-7.31603e-08
-8.77772e-08
7.78061e-09
-7.24501e-08
8.31442e-08
8.30549e-08
2.43247e-08
4.38259e-08
-1.51206e-07
2.83436e-08
5.80024e-08
-8.27245e-08
2.84286e-09
-8.25041e-08
-9.29676e-08
7.45013e-09
6.43533e-08
-7.50349e-08
-4.95015e-08
6.01831e-08
-5.02811e-08
-9.14593e-09
1.5219e-07
-1.91973e-07
4.03755e-08
-5.92552e-10
-8.6277e-09
2.82815e-08
8.20071e-08
-1.01661e-07
5.55014e-10
-9.72123e-08
-1.00146e-09
9.76587e-08
-1.03845e-07
1.03161e-07
3.61195e-10
3.22785e-10
1.34654e-07
-7.36825e-08
-1.36365e-07
-6.26831e-08
-3.93684e-08
1.03704e-07
-1.65225e-09
1.5878e-07
1.1978e-08
-1.20572e-07
6.1437e-09
-1.4456e-07
1.69858e-08
-5.04561e-10
-1.09626e-07
-1.17108e-07
1.17481e-07
-3.16188e-10
1.42385e-07
1.77634e-08
-1.48563e-07
-1.01484e-08
-1.47699e-08
2.24153e-07
-7.5955e-10
-4.68855e-08
-6.79501e-10
1.00319e-07
-9.95231e-08
1.96696e-10
1.24716e-10
9.40907e-09
2.71948e-08
1.26364e-07
-3.01161e-08
1.22223e-07
-9.09318e-09
-3.37004e-09
1.31669e-07
-1.269e-07
-1.39877e-09
-1.06798e-07
1.10591e-07
-5.43309e-09
1.25733e-07
5.63188e-09
-3.27591e-08
-9.86054e-08
1.2256e-07
1.81756e-09
-1.22362e-07
-2.01528e-09
-7.30482e-08
-5.5504e-08
7.32435e-08
9.18288e-08
1.51957e-09
1.61398e-07
2.00109e-08
-3.71442e-08
-1.50491e-08
3.66707e-09
-8.0318e-08
1.25948e-07