/*--------------------------------*- C++ -*----------------------------------*\
| =========                 |                                                 |
| \\      /  F ield         | OpenFOAM: The Open Source CFD Toolbox           |
|  \\    /   O peration     | Version:  2212                                  |
|   \\  /    A nd           | Website:  www.openfoam.com                      |
|    \\/     M anipulation  |                                                 |
\*---------------------------------------------------------------------------*/
FoamFile
{
    version     2.0;
    format      ascii;
    arch        "LSB;label=32;scalar=64";
    class       volVectorField;
    location    "0.056";
    object      U;
}
// * * * * * * * * * * * * * * * * * * * * * * * * * * * * * * * * * * * * * //

dimensions      [0 1 -1 0 0 0 0];

internalField   nonuniform List<vector> 
31639
(
(0.124753 0.0005864 -0.000628569)
(0.12119 -0.00048262 9.47169e-06)
(0.123331 -0.000290745 0.00088943)
(0.127149 4.04338e-05 -0.000272893)
(0.123427 -0.000792858 -0.00030931)
(0.121937 -0.000150103 -4.71034e-05)
(0.121553 -4.25857e-05 -0.000220435)
(0.124377 -0.000113478 3.04189e-05)
(0.124147 0.000262618 -0.000255381)
(0.125036 -0.000502181 -0.00046681)
(0.125892 0.000462831 -2.82997e-05)
(0.124864 -0.000574562 -0.000811356)
(0.121988 -0.000514015 4.55672e-05)
(0.12495 -2.51598e-05 0.000208473)
(0.120396 -0.000367139 0.00013439)
(0.121999 -0.000443629 0.000833233)
(0.123761 0.000471259 0.000122793)
(0.120824 6.65392e-05 0.000399474)
(0.12215 -6.84593e-05 -0.000382414)
(0.122902 -9.42825e-05 -0.000210448)
(0.115944 -0.000271791 -0.000414862)
(0.126081 -0.000337396 -0.000611532)
(0.125493 0.000712748 -0.000194297)
(0.12177 0.000201383 -0.00034144)
(0.12024 -0.000216678 -0.000160527)
(0.123673 -0.000303021 0.000109946)
(0.122582 -1.72746e-05 -0.000212444)
(0.124248 0.00158995 -0.000149691)
(0.121272 0.000391673 0.000717083)
(0.125555 -0.000203525 0.000659713)
(0.125812 -0.000174119 -6.94216e-05)
(0.120854 -1.60068e-05 -0.000235442)
(0.125735 0.000372666 -0.000480517)
(0.121659 -0.000179556 -5.15763e-05)
(0.117824 0.000177416 0.000289099)
(0.125952 0.000414359 0.000210368)
(0.114715 -0.000436856 -0.000118715)
(0.126799 -0.000594022 0.000294089)
(0.125381 -0.000393038 0.000263648)
(0.114627 3.5e-05 -0.000159052)
(0.118757 -8.23805e-05 -0.00033075)
(0.117353 -0.000536307 1.75018e-05)
(0.124568 4.64543e-05 -4.04149e-06)
(0.12649 -0.000805119 -0.000900011)
(0.125127 -0.000739124 0.000759166)
(0.126282 -0.000888613 -0.000388075)
(0.119128 0.000358504 -0.000281287)
(0.123081 0.000538595 -0.000325323)
(0.123121 -5.19731e-05 0.000239833)
(0.126704 -0.000458649 -0.000204776)
(0.125889 -0.000280902 -0.00056808)
(0.116483 8.87781e-05 -0.000266936)
(0.125302 0.000677477 0.000214885)
(0.115707 -0.000339024 0.00050482)
(0.123467 -0.000464146 -0.000191767)
(0.123254 0.000201961 -6.66638e-07)
(0.116992 -0.000100825 -0.00062789)
(0.122765 6.15023e-05 0.000346484)
(0.122103 0.000155775 0.000413036)
(0.117637 0.000312169 -0.000218868)
(0.124687 -0.000243356 -0.000517627)
(0.12532 0.000355088 -0.000240206)
(0.120805 -0.000317652 -0.000307784)
(0.122149 -8.38809e-05 -0.000251081)
(0.124092 0.000443825 0.000393624)
(0.126678 -0.00033337 -0.000527901)
(0.124148 -9.78903e-06 -0.00103803)
(0.122477 -0.000309606 0.000140366)
(0.118991 4.27207e-05 -0.000438542)
(0.126667 0.000333614 -0.000194586)
(0.124421 0.000136097 0.000122032)
(0.119107 0.00045493 -0.00126643)
(0.124759 -0.000411349 -0.000844218)
(0.12299 -0.000268381 -0.000196966)
(0.124317 0.000671922 4.48267e-05)
(0.115972 0.000420266 -0.000591093)
(0.125868 -0.000643647 0.00031859)
(0.122372 0.000194609 -0.00066377)
(0.121305 -0.000284892 0.000428466)
(0.124669 0.000221407 4.51628e-05)
(0.120877 -5.01795e-05 6.29604e-05)
(0.113103 -0.000379655 1.9615e-05)
(0.126098 -0.000461342 0.00015666)
(0.123016 -0.000219768 -0.000313655)
(0.123426 -0.000134626 -0.000103956)
(0.125888 -0.00054362 -0.00033739)
(0.126801 -0.000136072 0.000134576)
(0.126017 -0.000210103 -0.000502591)
(0.117008 0.000880166 -0.00150273)
(0.125152 -0.000176707 -0.000512102)
(0.123325 -0.000409901 0.000243155)
(0.122111 -0.000531405 -0.000185228)
(0.11792 -0.000518002 -0.000509464)
(0.120146 0.000714341 -0.000835708)
(0.120956 -0.000873629 -0.000451909)
(0.121585 0.000867796 0.000503205)
(0.123475 0.000176467 -0.000542329)
(0.122757 -0.000246769 0.00013651)
(0.122131 0.000163344 0.000385749)
(0.116901 -0.00126855 -0.000190921)
(0.124239 0.000375876 4.75836e-05)
(0.123712 0.000276366 0.00106196)
(0.120744 -0.000372824 -0.000128655)
(0.116232 8.44098e-05 -0.000181695)
(0.117446 -5.74335e-05 -0.000392448)
(0.126311 -0.000671504 -0.00032998)
(0.115679 0.000345381 -0.000496645)
(0.116758 -0.00100484 -0.000914774)
(0.119541 0.00036954 -6.8802e-05)
(0.114945 -0.000545154 0.000695578)
(0.124094 -0.00150545 0.000428274)
(0.118032 -0.00011395 -0.000266321)
(0.122077 0.000177757 -0.000135372)
(0.122017 -0.000760799 -0.000664785)
(0.12233 9.08105e-05 -0.000982565)
(0.115763 -0.000524386 0.000284184)
(0.122082 0.000722593 8.65047e-05)
(0.121481 -0.000852325 -0.000210605)
(0.123998 0.000135102 0.000223655)
(0.121936 -0.000396357 3.27087e-05)
(0.124122 -0.000302178 -0.000238314)
(0.124541 -0.000462493 0.000297654)
(0.125504 -4.10147e-05 -0.000614425)
(0.124679 0.00038522 -0.000728743)
(0.12452 -0.000321091 -0.000878235)
(0.125358 -0.000463219 0.00016671)
(0.121905 -4.10915e-05 0.000468356)
(0.120837 0.000170834 -0.000277925)
(0.120587 -0.000680152 -0.00040415)
(0.125107 -0.000263651 0.000253351)
(0.124593 0.000273629 -0.000152097)
(0.12532 6.31671e-05 -0.000559583)
(0.124276 -0.000701966 -1.21247e-05)
(0.123228 -0.000169605 0.000116069)
(0.125749 -0.000125958 -0.00011333)
(0.122753 -0.000111473 7.66882e-05)
(0.117838 -0.000160289 -0.000284865)
(0.116781 -0.000772673 -0.000512351)
(0.125609 0.00038672 0.00062436)
(0.122178 -0.000499883 -0.000519302)
(0.121848 -0.000275579 -0.000415392)
(0.126341 0.000274934 0.00118724)
(0.125214 0.000407243 0.000312828)
(0.116192 -0.000367553 -0.000496814)
(0.116609 -0.000131612 -0.000711599)
(0.124994 -0.000287291 3.82378e-05)
(0.124631 -1.32184e-05 -0.000122824)
(0.117351 -0.00027699 -0.000435504)
(0.117938 -9.88731e-05 0.000209509)
(0.125543 -0.000510524 0.000185752)
(0.120126 -0.000116498 -0.00125955)
(0.121929 -0.000142974 0.000121488)
(0.122784 -0.000571494 -0.000904685)
(0.125312 -9.00576e-05 9.46178e-05)
(0.118404 0.000621629 -0.00131216)
(0.127169 2.41093e-06 -1.3631e-05)
(0.124478 -0.000421704 -0.000271051)
(0.11871 -0.00127529 -0.000214584)
(0.117119 -0.000756109 0.00106411)
(0.121646 -0.000399312 -0.000107911)
(0.126341 -0.00019175 -0.000473991)
(0.115861 0.000290995 5.33739e-05)
(0.117784 0.000305752 -0.0010689)
(0.117085 -0.00046496 0.000180046)
(0.116048 -0.00110784 4.49922e-05)
(0.120853 0.00051227 -0.000364234)
(0.117227 0.000334294 0.000213532)
(0.125989 -0.000650026 0.000175422)
(0.125788 -0.00050228 0.00024236)
(0.117279 0.000258699 -0.00087011)
(0.118275 -0.000936492 0.000324342)
(0.121452 0.000736626 -0.000538845)
(0.1176 -2.95881e-05 -3.76148e-05)
(0.122916 -0.000106134 0.000531476)
(0.126531 -0.000310232 -0.000208538)
(0.124406 -0.000722995 -0.000498693)
(0.1225 0.000623225 0.000254756)
(0.125104 0.000310793 0.00035236)
(0.123099 -0.000536654 -6.11237e-05)
(0.121174 -0.000523178 -5.22831e-05)
(0.12138 0.000146662 -4.7298e-05)
(0.121876 -0.000587905 0.000765518)
(0.120536 -3.29954e-05 0.00023028)
(0.115001 0.00102386 -0.000653626)
(0.123834 -0.00024403 9.22413e-05)
(0.126285 4.43167e-06 -0.000216173)
(0.121735 0.000263769 0.000798063)
(0.125619 0.000185351 -0.000164804)
(0.118035 -0.000274339 0.000105269)
(0.115481 -0.000147521 0.000447174)
(0.126717 -0.00022198 -5.56259e-05)
(0.125335 -0.00022021 -0.000315218)
(0.12289 -0.000327245 0.000473325)
(0.121708 -0.000123029 0.000286909)
(0.122271 -0.00024655 -0.000453306)
(0.123124 -0.000266319 -0.000766157)
(0.122806 0.000711821 0.000421255)
(0.124883 0.000508358 -0.000482685)
(0.117709 -0.000197851 -0.000346172)
(0.12151 0.000104982 -0.000229984)
(0.1263 -8.62001e-05 0.000308194)
(0.124861 -0.000231577 0.000250473)
(0.124309 -0.000148637 0.000293714)
(0.122129 -0.0016367 -0.000891435)
(0.123156 -0.000610146 -0.000457964)
(0.120589 9.97596e-05 -0.000377032)
(0.122164 -0.000322829 -0.000477026)
(0.120476 0.000607425 -0.000691593)
(0.125434 7.88473e-05 -0.000689604)
(0.11586 -0.000124553 3.11526e-06)
(0.12229 -9.56926e-05 -0.000187955)
(0.122024 0.000382318 2.54169e-05)
(0.123528 0.000120534 -0.00034288)
(0.125851 -0.000174961 -0.000534596)
(0.125188 -0.000607017 -0.000412496)
(0.126103 -0.000216639 -0.000301948)
(0.117681 -0.00111542 -0.000361847)
(0.120635 -0.000800577 0.00048445)
(0.125033 -0.000411277 -0.000271756)
(0.125811 -0.000224274 0.000343575)
(0.124571 3.03089e-05 0.000367797)
(0.122951 -0.000481144 -0.000573017)
(0.114033 -0.0003931 0.000608365)
(0.121946 -0.000444702 0.000454534)
(0.117364 -0.000799385 -0.000304933)
(0.120394 0.000369576 0.000119549)
(0.125184 -0.000486701 0.00050705)
(0.12088 4.49896e-05 0.000560196)
(0.116351 0.00044944 -0.000272419)
(0.123079 0.000163493 0.000197533)
(0.12473 0.000604188 -0.000276359)
(0.126386 -0.000607507 -7.26703e-06)
(0.116883 -0.000376756 8.09064e-07)
(0.116042 -0.000823457 0.000370682)
(0.123761 -0.000267129 0.000429815)
(0.125623 -8.46932e-05 -0.000618704)
(0.117151 -5.22193e-05 0.000492095)
(0.125613 -0.000623902 0.000311249)
(0.120364 -5.5883e-05 -0.00050855)
(0.117906 -0.000517397 0.000193793)
(0.121465 0.000287403 -0.00042723)
(0.1241 -0.000371388 0.000104328)
(0.120673 -0.00101408 -0.000193556)
(0.119812 0.000214435 0.00100235)
(0.121172 0.000423648 0.000460007)
(0.123059 -0.000116401 -0.000201034)
(0.120921 0.000420863 -0.00057474)
(0.120067 0.000844476 -0.00112171)
(0.115952 -0.000451983 0.000587735)
(0.120987 0.000215903 -0.000757848)
(0.121465 7.98321e-05 -0.000716554)
(0.119155 -5.85438e-05 -3.12331e-06)
(0.121092 -0.00115838 0.000496533)
(0.125654 0.000251873 -0.000162828)
(0.125834 0.000568051 0.000220773)
(0.123136 0.00038125 -5.61551e-05)
(0.117921 0.000192326 4.39692e-05)
(0.125188 0.000322724 -0.000188056)
(0.124964 0.000320266 -0.000525156)
(0.123034 -0.000428958 -0.00027736)
(0.126733 0.000115794 0.000866157)
(0.126207 0.000127515 -0.000431606)
(0.124179 0.00018206 -0.000437297)
(0.12599 -0.000139138 5.37236e-05)
(0.120665 0.000448044 0.000286397)
(0.122835 -0.000329846 -0.000675167)
(0.116268 0.000253075 -0.00169506)
(0.120951 3.03752e-05 -2.32217e-05)
(0.125192 -0.00115366 0.000416184)
(0.12059 8.6222e-07 0.000418554)
(0.125471 0.000417338 -0.000186074)
(0.122075 0.00047444 -0.000696592)
(0.123569 -0.000245125 0.000171243)
(0.124393 0.000356698 0.00042053)
(0.126355 -7.53245e-05 -0.000726544)
(0.122937 0.000664796 0.000103079)
(0.117148 0.000318962 1.69836e-05)
(0.121988 0.000277906 0.000226631)
(0.118666 0.00173178 -0.000331801)
(0.125669 -0.000405361 -0.000999804)
(0.122144 -0.000618522 -0.000537479)
(0.125526 0.000225202 -0.000504491)
(0.123467 0.000297197 -1.35153e-06)
(0.121295 -0.000212001 -0.000457054)
(0.115945 -0.000101957 -1.54267e-05)
(0.118693 1.0047e-05 -0.000583572)
(0.117585 0.000391168 0.000323548)
(0.115829 -0.00036779 0.000109371)
(0.125999 -0.000340335 -0.000471255)
(0.116325 -0.000509431 -0.000655794)
(0.12337 -0.000429086 0.000346577)
(0.122746 0.000516496 -0.000291736)
(0.122155 6.88444e-05 -0.000219778)
(0.11803 -0.00024912 -0.000332961)
(0.125867 -0.000835236 -1.49028e-05)
(0.122328 0.000124409 -0.00080942)
(0.120063 0.000167314 0.000722013)
(0.125623 0.000100436 -0.000437034)
(0.124036 -0.000150916 -7.14333e-05)
(0.118625 0.000540732 0.000526087)
(0.120639 0.000184676 -3.97713e-05)
(0.117725 0.000192919 -4.26716e-05)
(0.122557 0.000279803 -0.000397249)
(0.121017 0.000380384 -0.000193241)
(0.117702 0.000420511 0.000954517)
(0.122712 -4.53487e-05 -0.000244182)
(0.120906 0.00112797 0.000732844)
(0.115131 5.71037e-05 -0.0013171)
(0.115074 0.000316555 0.000232028)
(0.124314 -0.000475897 0.000178851)
(0.12563 0.000126826 -8.78879e-05)
(0.126442 0.000344618 -0.000144502)
(0.116615 0.000391138 0.000356033)
(0.118245 -0.000117125 0.000616748)
(0.124792 0.000176533 0.000411425)
(0.119579 -0.000250598 -0.000279185)
(0.119844 0.00061057 -0.000891433)
(0.124701 0.000366776 0.000190535)
(0.125513 -0.000672415 -9.83311e-05)
(0.122237 -0.000869678 0.000220235)
(0.125515 -0.00112567 -0.000236231)
(0.126549 0.000146686 -0.000239813)
(0.117459 -0.000184341 -0.000251923)
(0.12618 -0.00133691 -0.0001595)
(0.11491 0.000187626 -0.000255061)
(0.11627 -3.84222e-05 -3.15844e-05)
(0.12594 -0.000452914 -0.00029651)
(0.125184 -0.000435216 -0.000202932)
(0.126041 3.30121e-05 -0.000818079)
(0.126457 0.000391227 -0.00112719)
(0.125321 -0.000248093 -0.000878065)
(0.118639 0.00136041 -0.00060623)
(0.120494 -0.00116786 0.000783445)
(0.121241 -0.000177857 -0.000326872)
(0.124137 -0.00101841 0.000183954)
(0.126096 0.000997352 0.000959149)
(0.126701 -0.00090385 0.000363339)
(0.121947 0.000201124 -0.00027142)
(0.119631 -0.00114737 0.000457309)
(0.121867 2.76668e-05 -0.000141717)
(0.125256 -0.00015489 -0.000153036)
(0.125015 -0.000182553 -0.00103826)
(0.121082 9.24965e-05 -0.000226583)
(0.123782 -0.000215841 -1.34442e-05)
(0.121365 0.000644436 -0.000694634)
(0.121781 -0.000458303 -0.000420444)
(0.12411 -0.000459441 0.000477351)
(0.119951 -0.00123121 0.00110923)
(0.117476 -0.000137424 -5.11219e-05)
(0.122968 0.000895387 -0.000402304)
(0.124064 0.000111274 0.000643461)
(0.121383 0.000371126 -0.000188347)
(0.124337 0.000397079 0.000437394)
(0.125405 -0.000411749 0.000342599)
(0.122367 0.0001289 -0.000466327)
(0.118177 7.2025e-05 -0.000562969)
(0.12162 0.00049809 -0.000422702)
(0.120761 0.000500082 0.000558306)
(0.116344 0.000216795 -0.000481907)
(0.125149 -0.000796266 0.000294177)
(0.116035 0.000637516 0.000466373)
(0.124445 -0.000150702 -0.00047353)
(0.126184 -0.000759348 -0.000360162)
(0.117061 -0.000389347 0.00021001)
(0.122443 0.000385383 6.49127e-05)
(0.120937 0.000460387 0.000423187)
(0.11687 -0.00034234 4.76281e-06)
(0.123969 -0.000194003 -0.000288494)
(0.118325 6.26589e-05 -5.54742e-05)
(0.122345 3.12604e-05 0.000772456)
(0.125783 0.00029416 8.62308e-05)
(0.124208 0.000155791 0.000148115)
(0.116075 0.000352438 8.58751e-05)
(0.124529 0.000375974 5.37517e-05)
(0.118181 0.000146067 -0.000412005)
(0.124491 -3.55384e-05 5.95774e-06)
(0.124447 0.000228032 0.000222103)
(0.124987 -0.000111453 -0.000623433)
(0.12572 -0.000149945 -0.000578518)
(0.117055 3.91932e-05 -0.00076849)
(0.124242 -0.000724847 6.66753e-05)
(0.116338 8.33305e-05 -0.000571466)
(0.121113 6.28128e-05 -0.000482663)
(0.117281 4.75959e-05 -0.000478776)
(0.126831 -3.98642e-05 -0.000618887)
(0.125415 3.7922e-05 -0.000587741)
(0.126434 1.42952e-05 -2.56584e-06)
(0.12587 -0.000392898 -0.000583626)
(0.123529 -5.48304e-05 -0.000782127)
(0.124736 -4.58813e-05 0.000164398)
(0.121278 0.000271574 -0.000120491)
(0.123347 0.000329488 -0.000335337)
(0.122129 0.000112216 -0.000400885)
(0.118334 0.000175221 9.39195e-05)
(0.124902 3.49892e-05 -0.000488118)
(0.122907 -0.000384816 -6.77254e-05)
(0.123058 -0.00012919 -0.000323327)
(0.125198 0.000190114 0.000183022)
(0.124925 -9.06831e-05 -0.000460852)
(0.1255 1.25339e-05 0.000266941)
(0.12212 -0.000725517 0.000180164)
(0.116531 -0.000174319 0.00073909)
(0.12175 0.000187356 0.000124412)
(0.124364 0.00013513 0.000484268)
(0.123447 -0.000208083 9.8698e-05)
(0.11719 -0.000652194 -0.000457062)
(0.125482 0.000130171 -0.000361292)
(0.125261 -0.000200134 -0.000890601)
(0.119953 0.000362873 -0.000374077)
(0.123952 -0.000248246 -0.000503545)
(0.124567 -0.000414649 -0.00119521)
(0.124545 -0.00040829 -0.00065548)
(0.124468 -0.000408894 -0.00012732)
(0.11674 -8.07601e-05 -6.92442e-05)
(0.123821 -0.000485699 0.000106723)
(0.124203 -0.000575483 0.000241955)
(0.114935 0.000127855 9.98117e-05)
(0.123585 -0.00100304 -1.7176e-05)
(0.123735 -0.000339124 -0.000145219)
(0.11988 8.81051e-05 0.000371879)
(0.115847 -4.11844e-06 0.000212207)
(0.11556 -0.000437297 0.000658978)
(0.121514 -0.001006 0.000254269)
(0.115291 0.000680347 -0.000615061)
(0.12175 6.10035e-05 0.000189205)
(0.122853 -1.81838e-05 -6.83264e-05)
(0.120529 0.000570666 0.000278824)
(0.124449 0.000422855 0.000212915)
(0.116557 -0.000325394 0.000148303)
(0.123771 0.000364418 7.09431e-05)
(0.126697 0.000259539 3.98461e-05)
(0.121522 -0.000131855 8.86853e-05)
(0.124342 -0.000145662 0.000667101)
(0.121871 0.000143255 4.88781e-05)
(0.125756 0.00102932 -1.29763e-06)
(0.123145 0.000426091 7.91322e-05)
(0.123743 -0.00028295 -0.00068925)
(0.126775 9.76423e-05 -0.000442405)
(0.1223 7.67028e-05 -0.0004497)
(0.117024 0.000215347 0.000169263)
(0.121735 1.5828e-05 -0.000158727)
(0.126266 0.000206444 -0.00122911)
(0.125228 0.000257299 -0.000807667)
(0.124534 -0.000239894 0.000714055)
(0.125663 3.71209e-05 6.38112e-05)
(0.121906 -0.0007281 0.000642491)
(0.12499 -0.000224078 0.000242424)
(0.123605 0.000184866 0.000202605)
(0.124767 0.000286102 -0.000157976)
(0.125252 -0.000358151 -0.000493611)
(0.115713 -0.000479801 -0.000335063)
(0.121473 -0.00031521 0.000239477)
(0.114392 -0.000203626 0.00024367)
(0.121934 0.000601068 0.000765213)
(0.120478 -0.000128923 -0.000709939)
(0.116889 -0.000324676 0.000739711)
(0.116097 -0.000514612 -0.00030308)
(0.12285 0.000376947 -0.0002563)
(0.123798 -0.00043538 -0.00026314)
(0.125544 -1.38412e-05 -0.000608691)
(0.117527 -0.000230522 0.000710707)
(0.124496 -1.73998e-05 1.26694e-06)
(0.122437 -4.4206e-05 0.000310423)
(0.12196 -0.000203195 -0.000460408)
(0.1238 5.5397e-06 -0.0006574)
(0.115307 -0.000708456 0.00176662)
(0.121946 -0.000104066 -0.000495186)
(0.116483 0.000124391 0.000345243)
(0.120185 -0.000501773 -0.000444177)
(0.124624 -0.000153573 1.42262e-05)
(0.127072 0.00134872 0.00034732)
(0.124871 0.000217127 -0.00109384)
(0.123399 0.000532912 -0.000706072)
(0.115255 0.000250801 0.00144209)
(0.124339 -0.000133901 0.000132168)
(0.123382 -0.000185826 -0.000528487)
(0.124824 -0.000213822 -0.00036555)
(0.116012 -5.16971e-05 1.44348e-05)
(0.118489 -0.000177748 0.000645817)
(0.120874 0.000479862 0.000633201)
(0.118504 0.00041494 -0.0002392)
(0.114984 -0.000709895 -0.000203116)
(0.124847 -8.72776e-05 -0.000396548)
(0.118086 -0.000131272 0.000124466)
(0.12089 0.00086795 0.000128828)
(0.116729 -0.000350549 -0.00101352)
(0.124341 0.000367608 6.87782e-05)
(0.117384 0.000141921 -0.000340617)
(0.125776 -0.000214539 0.000633651)
(0.124267 0.00010646 -0.000466007)
(0.125882 -6.88732e-05 0.000546737)
(0.125973 -0.000140625 -0.000491406)
(0.117804 4.71701e-05 0.000244639)
(0.125038 5.0888e-05 0.00023013)
(0.126275 -0.000281489 -5.12031e-05)
(0.123418 -0.000481281 0.000471654)
(0.124288 0.000570455 -0.000227286)
(0.123383 -0.00046451 -0.000254083)
(0.125638 0.000430057 -0.000136138)
(0.124592 2.45048e-05 0.000243496)
(0.120489 5.05086e-05 -0.000404699)
(0.127127 -0.000234882 -4.38217e-05)
(0.126502 -0.000373065 -0.000371447)
(0.122545 -0.00029434 -0.000325208)
(0.121986 -0.000269415 -0.000785646)
(0.125665 -0.000394753 -0.000232694)
(0.122919 0.000408885 6.42106e-05)
(0.115127 0.000711543 -0.000200995)
(0.115438 0.000447832 -5.3665e-05)
(0.122077 2.97645e-05 4.22042e-05)
(0.125028 -6.12552e-05 0.000271746)
(0.126427 -0.000200399 -0.000236543)
(0.120294 -0.000197019 -0.000133013)
(0.125363 0.000600835 0.000245438)
(0.124136 8.85939e-06 9.68357e-05)
(0.125542 0.000933104 0.000784422)
(0.122596 1.7693e-05 -0.00017247)
(0.122926 0.000550251 -0.000514055)
(0.123839 -0.00162054 0.000475287)
(0.116631 -1.49129e-05 -0.000285159)
(0.1218 0.000186143 1.55453e-05)
(0.123987 9.93738e-06 -0.000372375)
(0.125862 -3.82926e-06 4.72095e-05)
(0.118214 -0.000118224 8.81854e-05)
(0.119103 0.0006797 -0.000844103)
(0.120062 -9.13054e-05 -0.000335691)
(0.11987 -0.000312548 -7.11678e-05)
(0.121782 -0.000198879 -0.000550502)
(0.116359 -0.000121954 -0.000354029)
(0.125086 0.000124491 -0.000916512)
(0.121086 -3.37158e-05 -0.000250657)
(0.124412 0.000129496 0.00111712)
(0.121939 -0.000282541 -8.46974e-05)
(0.126338 -0.000259122 -0.000242765)
(0.122931 -0.000325169 -0.000948211)
(0.116777 0.0001885 0.000588026)
(0.123687 0.000792152 2.26253e-05)
(0.126624 -0.000346378 -0.00103314)
(0.117506 0.000420509 0.00120319)
(0.125498 -0.000196701 -0.000752079)
(0.127493 -0.00087583 -0.00070252)
(0.122742 -0.000187876 -8.41439e-05)
(0.121089 0.000227556 0.000190988)
(0.124438 0.000468093 -0.00124442)
(0.120239 -4.52044e-05 4.20779e-05)
(0.122244 -0.000470615 9.51606e-05)
(0.121982 0.000139354 0.000304449)
(0.117381 -0.000132491 -1.06834e-05)
(0.117793 -0.000180219 -0.00117284)
(0.12122 0.000187916 0.000513948)
(0.120371 0.00064716 0.000157796)
(0.125035 -0.000161498 -0.000297567)
(0.120106 -0.000434309 0.000280928)
(0.121807 0.000475375 0.000419705)
(0.126014 0.000243856 0.000408622)
(0.121043 0.000202068 -4.09675e-06)
(0.115783 0.000201396 0.000398374)
(0.120425 0.00035333 0.000254857)
(0.122289 0.000455122 -0.000345789)
(0.126425 -0.000182942 0.000287364)
(0.116525 0.000748573 0.000376898)
(0.116213 -0.000131589 0.000311779)
(0.126153 0.000322624 0.000939437)
(0.116657 0.000280114 -3.92614e-05)
(0.123335 -2.9166e-05 -9.7263e-05)
(0.125013 0.000201989 -0.000280682)
(0.118179 -0.000145954 -0.000882477)
(0.12229 2.9336e-05 -0.000452374)
(0.125798 0.00055014 -0.000843785)
(0.122346 -9.73265e-05 0.000621081)
(0.114938 7.35096e-05 0.000239935)
(0.125309 0.000273837 -0.000203654)
(0.122491 -7.72761e-05 -0.000235945)
(0.115387 0.000555323 8.04743e-05)
(0.12574 0.000286274 -0.000252972)
(0.120511 -0.000176753 -0.000340326)
(0.121431 0.000624504 -0.000387622)
(0.124119 -2.03358e-05 -0.00016422)
(0.115626 0.000842385 -0.000457269)
(0.121277 -0.0001183 -0.00106081)
(0.120692 -0.000813464 -7.61968e-05)
(0.122605 -6.7242e-05 -0.000504893)
(0.118285 -0.000128676 0.000447177)
(0.120053 -8.1801e-05 -9.231e-05)
(0.124286 0.000529653 0.000570793)
(0.126618 -0.000959159 -0.000666968)
(0.127957 -0.000351071 -0.000119789)
(0.12644 0.000558527 -0.000450904)
(0.125622 -0.000627015 -0.000209397)
(0.124745 6.02558e-05 -0.00129115)
(0.119712 -0.000262771 0.000496944)
(0.127063 0.000143041 -0.00115273)
(0.124839 -5.39425e-05 3.41943e-05)
(0.12368 0.000490671 8.36495e-05)
(0.118345 0.00080224 -0.000414231)
(0.122838 -0.000146627 -0.000215846)
(0.124168 0.000517639 0.000616612)
(0.12773 0.000923194 1.89638e-05)
(0.116451 -0.000115977 0.000347788)
(0.115112 -0.000391794 0.00042963)
(0.125683 0.000250691 -0.000646229)
(0.120367 1.83443e-05 -0.000332949)
(0.125851 0.000111491 -4.91679e-05)
(0.121129 0.00020992 -0.000530949)
(0.118177 -0.000384286 -0.000851324)
(0.123861 -0.000144852 -0.000910776)
(0.125456 0.000391221 -6.84229e-06)
(0.123472 0.000275772 0.000156559)
(0.125033 0.00102499 -0.000340615)
(0.117165 -3.09702e-05 -0.00180972)
(0.125097 0.00095694 0.000251865)
(0.12486 -0.000379287 -0.000498525)
(0.11582 0.000388224 -9.44487e-05)
(0.124418 -0.000225012 -0.000547686)
(0.124226 -0.000227311 3.60386e-05)
(0.121927 -0.000393349 0.00145576)
(0.117481 -0.000590706 -0.00096745)
(0.115915 0.000297349 -0.000863206)
(0.121979 0.000293713 -0.000271747)
(0.121748 -1.12285e-05 0.000985864)
(0.122515 -0.000168786 0.000192695)
(0.121685 0.000585494 0.000126879)
(0.121098 0.000514134 0.00078123)
(0.125244 9.81205e-05 0.000125686)
(0.122706 -3.93071e-05 0.000287394)
(0.122922 0.000476557 0.000309273)
(0.1184 -0.000272366 0.000720167)
(0.126325 -6.35783e-05 -0.00103428)
(0.116721 -0.000224432 5.44068e-05)
(0.122188 0.000663041 -2.73524e-05)
(0.12171 0.000277375 -0.000133155)
(0.122222 -0.000754657 -0.000781063)
(0.123907 0.000508138 -2.07509e-05)
(0.120398 -4.81238e-06 -0.000474988)
(0.11705 -0.000920391 -0.00054579)
(0.115886 -0.000228103 -0.000606782)
(0.117441 -0.000330923 -0.000315083)
(0.121934 -0.00053399 -0.000367231)
(0.124305 0.000708583 0.000221515)
(0.116661 0.000509792 0.00195465)
(0.125019 -0.000141657 -2.05449e-05)
(0.122543 -3.31657e-05 -0.000838112)
(0.125866 -0.000427127 -0.000389297)
(0.116372 8.37579e-05 -0.000766946)
(0.120106 0.000366951 0.000571871)
(0.124511 0.000281525 -0.000978336)
(0.126206 -0.000984716 -6.11959e-05)
(0.124399 0.000412492 -0.000405632)
(0.12553 -0.000227301 -0.000292182)
(0.122783 0.000173101 0.000162626)
(0.122032 0.000422539 0.000185384)
(0.126532 2.70702e-05 0.00021007)
(0.126226 0.000459682 -3.54767e-05)
(0.125882 0.00027162 5.17515e-05)
(0.118741 0.00101729 -0.000508464)
(0.126048 -0.000924472 -0.00074787)
(0.115895 -0.000271801 0.000474362)
(0.126137 0.000730588 0.000106261)
(0.123267 3.03192e-05 -0.000177162)
(0.12203 0.000270132 -0.000625829)
(0.117399 0.000989059 -2.70336e-05)
(0.122026 0.00115742 -0.000846771)
(0.11457 -0.000692711 -0.000933069)
(0.125193 0.000419072 -0.000676749)
(0.122576 0.00020922 -0.000279784)
(0.125241 -0.000181267 -0.000278735)
(0.121488 0.000423847 -0.000232702)
(0.120757 0.00121056 -0.000371592)
(0.116656 -0.000327221 0.000794327)
(0.126851 0.000302773 -0.000109772)
(0.118118 -0.000589289 0.000348825)
(0.114971 -0.000296014 -0.000322648)
(0.11792 -0.000176339 -2.13027e-05)
(0.118222 0.00049859 0.000238169)
(0.117116 0.000714956 -0.000108961)
(0.122142 -0.00034575 9.49221e-05)
(0.116985 0.00012211 -0.000124489)
(0.124103 -0.00123573 0.000602773)
(0.124696 3.3197e-05 -0.000436185)
(0.114888 -0.000112422 -7.47447e-05)
(0.124134 0.000231512 -0.00019988)
(0.11702 0.000272903 -0.000766548)
(0.121731 0.000604705 -0.000237037)
(0.12244 0.000297972 -0.000226721)
(0.122234 -0.000357336 -0.000985252)
(0.124876 0.000153228 -5.48644e-05)
(0.126829 0.000325863 -0.000902334)
(0.124992 -7.03074e-05 0.000292222)
(0.124024 3.77481e-05 -4.56077e-05)
(0.123745 -0.000249735 -0.00118643)
(0.124398 0.000311751 0.000142851)
(0.121388 0.000407872 -4.24009e-05)
(0.121963 0.000470114 0.000227786)
(0.115582 0.000531056 -0.000904486)
(0.111028 0.000230654 0.00349728)
(0.12544 8.28883e-05 2.06727e-05)
(0.122072 8.68492e-05 -0.000228407)
(0.124848 -0.000308627 -0.000115977)
(0.124511 -9.27618e-05 0.000278274)
(0.11617 -0.0005945 -5.30261e-05)
(0.12547 -0.000135321 -0.000250547)
(0.125756 0.000612663 0.000125938)
(0.125469 4.55822e-05 0.0001638)
(0.125375 0.000392938 0.000554787)
(0.123657 0.000358074 0.00045224)
(0.123136 -0.000558572 -0.000162159)
(0.125278 -9.08287e-05 0.000173853)
(0.126356 -0.000163287 0.000637075)
(0.123303 0.000296941 0.000327993)
(0.125924 0.000346577 -0.000270819)
(0.125406 -0.00039869 -0.000437259)
(0.118736 -0.000337095 -0.00048702)
(0.125406 -0.000116977 0.00027901)
(0.119423 -0.00024166 0.000531618)
(0.122491 0.000100161 -0.000266448)
(0.122379 -0.000934473 0.000126802)
(0.121829 -0.000511528 0.000304052)
(0.121549 0.000735029 0.000136548)
(0.124484 0.000422322 -1.10768e-05)
(0.121977 3.61497e-05 2.58535e-05)
(0.123003 0.000532937 -0.000651387)
(0.121726 0.00125696 -0.000669828)
(0.11602 0.00142016 -0.0010067)
(0.126718 0.000530347 -0.000327195)
(0.124545 0.000680856 -0.000148528)
(0.121431 4.5952e-05 0.000797692)
(0.116686 -0.000385616 1.55774e-05)
(0.124679 -0.000366247 -5.54646e-05)
(0.116295 -0.00059053 -0.000540754)
(0.125647 -0.000322975 0.000154365)
(0.125327 -8.05879e-05 0.000278591)
(0.120624 0.00127294 -0.000605241)
(0.124443 -0.000291102 0.000203992)
(0.126158 0.000113981 -0.000428129)
(0.123248 -0.00050287 -0.000234502)
(0.115678 -4.12254e-05 0.000275247)
(0.121926 0.0001731 0.000384384)
(0.119228 0.000699572 -0.000351641)
(0.12217 0.000274315 -0.000305893)
(0.116167 -0.000512009 -0.000947862)
(0.124421 -8.59611e-05 -0.000409764)
(0.124834 -0.000457347 0.000683619)
(0.120062 0.000865269 -0.000780206)
(0.121926 0.000157006 4.51296e-05)
(0.11914 0.00022891 -0.000555307)
(0.125086 2.98304e-05 -0.000436876)
(0.121588 -0.000746504 6.79182e-05)
(0.122446 0.000551874 0.000541384)
(0.116677 -0.000178542 9.59558e-05)
(0.125182 8.45414e-06 4.05788e-05)
(0.123507 -0.000345162 -0.000111106)
(0.125396 -4.27638e-05 -0.000186736)
(0.119454 0.000463986 -0.000325493)
(0.121868 -5.0942e-05 -0.000315972)
(0.123004 0.000107468 -0.000289527)
(0.120754 -0.000233166 0.000263599)
(0.1233 -6.9773e-05 0.000405154)
(0.122858 -0.000307334 0.00062928)
(0.124807 -0.000402355 0.000126855)
(0.122115 -0.000128411 -0.000125208)
(0.117275 -2.85772e-05 -0.000191888)
(0.115158 -0.000167146 -0.000731771)
(0.123607 -0.000755441 0.000198577)
(0.116091 0.000521374 -0.0013526)
(0.1204 -0.000720971 -0.00151422)
(0.122141 0.000259282 -0.000305475)
(0.122278 0.000305672 0.000165679)
(0.126197 0.000388596 -0.000396753)
(0.11595 7.508e-05 3.13783e-05)
(0.12129 -0.000121896 -0.000716312)
(0.12668 0.000122382 -0.00046416)
(0.117702 0.000794759 -0.00289593)
(0.117869 0.0013471 7.72491e-05)
(0.121447 0.000250596 -0.000862978)
(0.117627 0.000179791 2.70081e-05)
(0.124098 0.000923734 -0.00103589)
(0.117966 -0.000341752 5.76656e-05)
(0.126138 -0.000845311 -0.000404559)
(0.119855 0.000313085 0.00045286)
(0.12116 0.000627488 0.000502023)
(0.127206 0.000496283 0.000925715)
(0.115189 -9.76436e-05 0.000577835)
(0.119944 7.5329e-05 0.000385306)
(0.120035 3.46286e-05 0.000591897)
(0.125304 -3.88082e-05 -0.000781232)
(0.125433 2.15241e-05 0.000396645)
(0.125653 4.48555e-05 -0.000101451)
(0.116922 0.000797544 0.000327223)
(0.124262 0.000172689 -0.000210305)
(0.12513 6.07089e-05 0.00105126)
(0.120192 -0.000109943 -0.000308983)
(0.125295 0.000388458 -0.000120945)
(0.124767 0.000441586 0.000222346)
(0.124627 0.000392618 1.57454e-05)
(0.125858 0.00010754 -0.000654863)
(0.122022 8.63417e-05 -0.000131266)
(0.126783 -2.62395e-05 0.000479994)
(0.126324 0.000729667 0.000896376)
(0.125515 0.000101426 -0.000793398)
(0.123171 0.000469025 0.000284268)
(0.121348 -0.000255646 -0.000254424)
(0.122168 0.000453579 0.000133695)
(0.121858 0.000193297 -0.000292565)
(0.115404 -0.000945957 -0.000298789)
(0.120972 -0.000182287 0.000168959)
(0.123379 -0.000346013 0.000410909)
(0.125261 -0.000353955 -0.000281805)
(0.126153 -0.00026579 -0.000840346)
(0.121218 -0.000482812 -5.09102e-05)
(0.126702 0.00120451 -0.000270386)
(0.124329 -7.64835e-05 -7.8865e-05)
(0.120206 -0.000681581 0.000472922)
(0.125205 -0.000177144 -0.000431611)
(0.125584 -1.15213e-06 -0.000213871)
(0.124319 0.000120205 -0.000644018)
(0.124489 0.000249242 3.22109e-05)