/*--------------------------------*- C++ -*----------------------------------*\
| =========                 |                                                 |
| \\      /  F ield         | OpenFOAM: The Open Source CFD Toolbox           |
|  \\    /   O peration     | Version:  2212                                  |
|   \\  /    A nd           | Website:  www.openfoam.com                      |
|    \\/     M anipulation  |                                                 |
\*---------------------------------------------------------------------------*/
FoamFile
{
    version     2.0;
    format      ascii;
    arch        "LSB;label=32;scalar=64";
    class       surfaceVectorField;
    location    "0.056";
    object      Uf;
}
// * * * * * * * * * * * * * * * * * * * * * * * * * * * * * * * * * * * * * //

dimensions      [0 1 -1 0 0 0 0];

internalField   nonuniform List<vector> 
68568
(
(0.12389 0.000178531 -0.000138199)
(0.12309 0.000544589 -0.00023094)
(0.122757 0.000340133 -3.89901e-05)
(0.125516 0.000782042 -0.000400472)
(0.122967 -0.000478064 -0.000222187)
(0.122965 -0.000514621 -0.000489356)
(0.121606 -0.0004926 4.74321e-05)
(0.114889 -0.000262901 -0.000250471)
(0.124502 0.000205561 0.000345317)
(0.124232 -0.000508015 0.000756643)
(0.122589 -0.000265248 8.72844e-05)
(0.11835 -0.000696097 0.000795244)
(0.126916 -0.000194044 -0.000199498)
(0.1257 -7.67896e-05 -0.000472758)
(0.126666 -0.000141879 -0.000352198)
(0.127076 -0.000240217 -0.000372938)
(0.121213 -0.000205708 -0.000269688)
(0.124375 -0.00050635 -0.000312712)
(0.120529 -0.000230836 -0.000312295)
(0.123979 -0.000506773 -0.000364687)
(0.123668 -0.000227486 -2.69439e-05)
(0.122026 -0.000132129 0.000141778)
(0.123911 -0.000141431 0.000164472)
(0.116331 -0.000146433 -0.000299643)
(0.122889 -7.25203e-05 -0.000131196)
(0.117898 -0.000236073 0.000226305)
(0.119938 5.58323e-05 -0.000444815)
(0.122995 -0.000118983 -0.000209859)
(0.122736 0.00023654 0.000524006)
(0.125156 0.000105874 0.0001208)
(0.123806 -7.09288e-05 5.25692e-05)
(0.124276 -0.000161128 -0.000377288)
(0.122921 0.000137459 -0.000262824)
(0.123008 0.000350561 -0.00064127)
(0.125071 -0.000253 -7.61308e-05)
(0.12355 -0.00060908 -0.000336755)
(0.125549 -0.000162428 -0.000556754)
(0.125734 -0.000575117 -0.000401145)
(0.125903 0.000458036 0.000117947)
(0.124451 0.000288877 -1.79823e-05)
(0.125759 0.000260971 -5.56748e-05)
(0.121671 -0.000115798 -0.000532292)
(0.126121 -0.000441364 -0.000766777)
(0.125652 -0.000596702 -0.000684017)
(0.123057 -0.000314003 8.63707e-05)
(0.121878 -0.000539676 -7.98145e-06)
(0.115376 -3.00915e-05 -0.000340938)
(0.125554 -0.000195603 -0.000106919)
(0.125383 -0.000169021 0.000308504)
(0.124418 -0.000217022 0.000230368)
(0.122425 -8.626e-05 0.000212962)
(0.120589 -0.000352447 3.86934e-05)
(0.122468 -0.000292024 -8.90108e-05)
(0.121644 -0.000260907 8.4969e-06)
(0.114991 -0.000308051 -1.26857e-05)
(0.123133 -0.000467847 0.000857827)
(0.118065 -0.000423116 0.000597248)
(0.119968 -0.000424671 0.0008044)
(0.123507 -0.00034819 0.000286566)
(0.122366 0.000219506 0.000212404)
(0.123434 0.000406822 0.000223382)
(0.122879 0.000352258 0.000178032)
(0.124649 0.000166881 0.000125951)
(0.118145 0.000465471 0.000444508)
(0.1183 -0.000319526 0.000683388)
(0.122547 -4.82136e-05 0.000240912)
(0.122849 -7.461e-05 -0.000607088)
(0.119963 -0.000504925 -3.12594e-05)
(0.11868 2.00875e-05 -0.000719496)
(0.123334 -0.000293951 -0.000347568)
(0.122768 1.01843e-05 -0.00019604)
(0.124475 -0.000313169 -7.4268e-05)
(0.123979 -0.000507564 4.29437e-06)
(0.117768 -0.000121704 -0.000125834)
(0.117412 -0.000222781 -0.000373652)
(0.119287 6.22432e-05 -0.000321028)
(0.117816 0.000255283 -0.000335568)
(0.106237 -0.00017751 -0.000464356)
(0.124647 -0.000469801 -0.000559055)
(0.126214 -0.000228871 -0.000653728)
(0.125241 -0.000350937 -0.000651253)
(0.125728 -0.000382067 -0.000757896)
(0.125005 0.000359628 -0.000220157)
(0.125122 0.000472339 -0.000110404)
(0.122641 0.000479017 2.03075e-05)
(0.125931 0.000536311 -0.000240416)
(0.11934 0.00033429 -0.00031239)
(0.119782 -0.000105081 -0.000312653)
(0.122719 0.000180898 -0.000466609)
(0.123181 7.57351e-05 -0.0001045)
(0.117071 -6.71972e-05 5.25344e-05)
(0.121765 -0.000186096 -0.000122148)
(0.119123 0.000194119 -0.00053786)
(0.121791 -0.000191104 0.000249772)
(0.122405 -6.94303e-05 -7.74319e-05)
(0.122416 -0.000519516 0.000184754)
(0.124657 -0.000362757 0.0008095)
(0.122418 -0.000130136 -0.000347041)
(0.123988 -0.000209436 -0.000216473)
(0.117304 -0.000160075 0.00025012)
(0.124811 0.00130994 0.00037624)
(0.122333 0.00152897 -0.000408956)
(0.124406 0.00154024 0.000199316)
(0.122512 0.00116133 -0.000760159)
(0.123812 0.00011178 0.000509255)
(0.11717 0.00039217 -0.000255112)
(0.119207 0.000489331 0.000196314)
(0.125667 -6.81318e-06 0.000410416)
(0.124741 -0.000218962 0.000341972)
(0.125765 -0.000139897 0.000393608)
(0.126247 -0.000307663 -0.000176298)
(0.124202 -6.33119e-05 3.78284e-05)
(0.12642 -0.00024699 -0.000145042)
(0.123631 -0.000145991 -0.000164068)
(0.122377 -0.000147183 -0.000242144)
(0.12247 -8.82113e-05 -0.000393273)
(0.11844 0.000394861 -8.49267e-05)
(0.117924 -0.000272383 0.000335986)
(0.12515 0.000335992 -0.000468609)
(0.124369 3.26857e-05 -0.000266162)
(0.125439 2.43594e-05 -0.000433661)
(0.125803 1.01886e-06 -0.000246433)
(0.119484 -0.000123124 -0.000230955)
(0.118208 -0.000239929 0.000136615)
(0.123128 -0.000192592 5.65233e-05)
(0.123345 1.28635e-05 0.000153964)
(0.119759 0.000434573 0.000307131)
(0.117248 0.000297611 0.000328271)
(0.117223 0.000193329 -6.64566e-05)
(0.107202 0.00016078 0.000287846)
(0.125613 0.000453884 -1.69853e-05)
(0.116941 -7.71271e-05 -0.000115729)
(0.117233 -0.000554892 -0.000268539)
(0.114549 -0.000299608 6.83296e-05)
(0.106446 -0.000347689 -6.68372e-05)
(0.126173 -0.000513735 0.000274489)
(0.126202 -0.000663592 0.000152305)
(0.1264 -0.0002479 0.00042844)
(0.125658 -0.000660076 0.000263748)
(0.123762 -0.000302939 0.000332144)
(0.123862 -0.000372003 0.000570385)
(0.125558 -0.000424388 0.000615354)
(0.115729 0.000587889 -0.000541718)
(0.117104 -0.000347747 -0.000102985)
(0.107553 4.53268e-05 -0.000147073)
(0.120917 -0.00010791 -8.10911e-05)
(0.118044 -0.000106882 -0.000378873)
(0.107589 0.000136829 -0.000505156)
(0.119164 -0.000282167 5.53683e-05)
(0.119184 -0.000572319 -0.000179779)
(0.120284 -0.000507224 -0.000167383)
(0.106882 -0.000375866 6.98945e-05)
(0.125308 -0.000267874 0.00019563)
(0.122967 -0.000252339 8.94242e-05)
(0.124774 -0.000369679 -0.000527302)
(0.125881 -0.000903903 -0.000437837)
(0.124415 -0.000799729 -0.000789592)
(0.126103 -0.000592982 -0.000920793)
(0.125169 -0.000609284 0.00062075)
(0.125648 -0.000787494 0.000226144)
(0.124978 -0.000385443 0.000336583)
(0.126366 -0.000686029 -0.000221831)
(0.124766 -0.00076478 -2.28768e-05)
(0.124084 -0.000449249 -0.000335065)
(0.126254 -0.000311621 -0.000518668)
(0.121762 6.00377e-05 -0.000348381)
(0.119701 0.000639992 -0.000509572)
(0.113773 -1.32473e-05 -0.000374641)
(0.123636 0.000401479 -0.000450027)
(0.123993 2.24739e-05 -0.000332196)
(0.121081 0.000260286 -0.000742094)
(0.119567 0.000142691 -0.00022258)
(0.121994 -0.000217627 0.000261045)
(0.121727 1.06785e-05 5.67378e-05)
(0.12411 1.8948e-05 -0.000269608)
(0.122886 -0.000206754 0.000138555)
(0.125572 -0.000133976 -0.000331068)
(0.123994 -0.000338817 -0.00058758)
(0.124258 4.37341e-06 -0.000492139)
(0.126199 7.99121e-05 -0.000907981)
(0.126676 -0.000156189 -0.000443904)
(0.119778 -0.000360006 -0.000609695)
(0.117182 -5.81985e-06 -0.000295813)
(0.118056 -2.32677e-05 -0.000194352)
(0.105823 -2.67886e-05 -0.000383833)
(0.124603 0.000748851 0.000189969)
(0.123841 0.000642579 0.000280674)
(0.125439 0.000712308 0.00023351)
(0.125002 0.000540247 9.8685e-05)
(0.116481 -0.000534646 0.000169295)
(0.107142 -0.000192371 0.000468694)
(0.120668 -0.000223336 -0.000283374)
(0.120542 -0.000500941 -1.20321e-05)
(0.12413 -0.000288769 -0.000322155)
(0.124181 -0.000398974 -8.05549e-05)
(0.121443 0.00029444 0.000138347)
(0.122157 0.000136699 0.000109718)
(0.12427 -7.55114e-05 -0.000152702)
(0.11923 -0.000107323 -0.000719954)
(0.117728 -9.47512e-05 -0.000312275)
(0.119463 0.000118421 -9.64734e-05)
(0.106932 0.000362402 -0.000215398)
(0.124465 0.00012337 0.000484339)
(0.123935 -0.000248088 0.000125789)
(0.122679 -2.13063e-05 0.000444561)
(0.117752 -4.08241e-08 0.000369563)
(0.12403 -0.000255003 0.00019699)
(0.122551 8.90955e-05 0.000499408)
(0.124016 -6.49799e-05 -5.01866e-06)
(0.116568 9.66232e-05 0.000284245)
(0.116872 5.34346e-05 -0.000171328)
(0.117079 0.000539337 -0.000175818)
(0.107863 0.000221545 -0.000141079)
(0.123003 -0.000543842 -0.000558488)
(0.122662 -4.82196e-05 -0.000392444)
(0.122914 -0.000177487 -0.000221953)
(0.125076 0.000366452 6.53902e-05)
(0.123568 0.0004457 0.000118176)
(0.125858 0.000140598 -0.000188677)
(0.124279 0.000226009 -0.000256461)
(0.122734 -0.00022161 -0.000387178)
(0.119679 -0.000310936 -0.000516092)
(0.119713 -0.000294923 -0.000274602)
(0.107873 -0.000358919 -0.000177073)
(0.123898 -0.000165061 -0.000174048)
(0.123991 -3.50333e-05 6.06087e-05)
(0.115788 -5.24677e-05 -0.000291336)
(0.122441 0.000178189 0.000148497)
(0.122779 0.000449385 0.000294729)
(0.124401 0.000509893 0.000348801)
(0.12293 0.000480647 0.000433058)
(0.126159 -0.000188108 -0.000607551)
(0.126498 -0.000242357 -0.000500499)
(0.126367 -0.000381489 -0.000437811)
(0.125822 -0.000284801 -0.000362137)
(0.12207 0.00020956 -0.00109973)
(0.124535 7.76811e-05 -0.000932994)
(0.125232 -0.000387312 -0.000746558)
(0.122278 -0.000489462 3.16612e-05)
(0.123818 -0.000280757 4.09178e-05)
(0.122216 -0.000129442 0.000264004)
(0.116877 -3.76096e-05 -0.0002398)
(0.119545 -0.000980639 -0.000554474)
(0.120251 0.000317115 -0.000464571)
(0.107003 -7.25893e-05 -0.000471823)
(0.126033 0.000292121 7.16878e-05)
(0.126454 0.000237001 -0.00031646)
(0.126083 2.60837e-05 -8.92427e-05)
(0.126689 6.59761e-05 -0.000480581)
(0.125045 0.000287971 0.000162115)
(0.122713 0.000300361 0.000265659)
(0.124086 0.000112854 0.000308599)
(0.12414 0.000182186 -4.49082e-05)
(0.119819 0.000232454 -0.00122994)
(0.119163 0.000319873 -0.000583811)
(0.120979 0.000191679 -0.00087313)
(0.110413 -0.000588936 -0.000875441)
(0.123037 -0.00027726 -0.000669618)
(0.123133 -0.000300009 -0.000882724)
(0.125422 -0.00031351 -0.000470505)
(0.125017 -0.000267538 -0.000622739)
(0.124519 -0.000299155 -0.000196719)
(0.122654 -0.000441164 -0.000368401)
(0.12268 -2.95284e-05 -7.32521e-05)
(0.117231 3.14463e-05 -0.000624025)
(0.124753 0.000695997 0.000290821)
(0.124252 0.00076668 6.32147e-05)
(0.123198 0.000537164 -0.000119114)
(0.117387 4.96501e-05 -0.000638494)
(0.116825 0.000236226 -0.000379722)
(0.118849 0.000396871 -0.000627683)
(0.106262 0.00045266 -9.32464e-05)
(0.125122 -0.000602181 -0.000107651)
(0.124724 -0.000602399 0.000172507)
(0.126425 -0.000490348 7.76671e-05)
(0.120234 0.00108238 -0.000605292)
(0.123953 -1.27314e-05 -0.000435466)
(0.12332 0.000131519 -0.000442965)
(0.122193 -0.00033606 0.000540253)
(0.122698 -4.92778e-05 0.000284493)
(0.12316 -2.13634e-05 0.000391867)
(0.115824 -0.000169683 0.000371892)
(0.119541 -0.000251252 -0.000140291)
(0.125015 -6.52254e-05 0.000114762)
(0.122622 0.000193617 0.000117807)
(0.124957 0.000419323 -6.88978e-05)
(0.117711 0.00030116 -0.000370443)
(0.122052 -0.00017931 -0.000156401)
(0.122329 -9.30182e-05 -3.57531e-05)
(0.114311 -0.000192905 -0.000351518)
(0.115515 -0.000157541 0.000253522)
(0.115155 -0.000436821 0.000105106)
(0.107062 -0.000296876 0.000130276)
(0.126387 -0.000100875 0.000202393)
(0.124238 -0.000177352 -0.000123972)
(0.126284 -0.000395011 0.000180482)
(0.125345 -0.000596747 0.000227451)
(0.124999 -0.000500579 -0.000336262)
(0.124501 -3.20752e-05 -0.000192672)
(0.124289 -7.34481e-05 -0.000322389)
(0.116325 -0.000149362 5.41243e-06)
(0.121929 -0.000350082 -7.7746e-05)
(0.124189 -0.000370247 -0.000103064)
(0.124751 -0.000185827 -0.000166706)
(0.121895 -1.60785e-05 0.000151947)
(0.126184 -0.000279469 -0.000166297)
(0.123964 -0.000215629 -0.000319712)
(0.124163 -9.33518e-06 6.33878e-06)
(0.126146 -0.000348954 -7.19259e-05)
(0.126195 -4.5791e-05 0.000200689)
(0.125726 -0.000279585 2.54362e-05)
(0.126548 -0.000242243 -0.000160786)
(0.124222 -0.000174152 -0.000275225)
(0.123916 -0.00029306 -0.000507315)
(0.126036 -0.000124847 -0.000632301)
(0.117159 0.00141926 -0.000979872)
(0.120757 9.54218e-05 -0.00140776)
(0.119507 0.000550986 -0.000897864)
(0.104552 2.00075e-05 -0.000326859)
(0.124726 -0.000113767 -0.00027132)
(0.124686 -0.000221759 -0.000340656)
(0.126173 -0.000142726 -0.000573357)
(0.123047 -0.000318765 0.00019888)
(0.12491 -0.000248094 3.28121e-05)
(0.116275 -0.000114589 -0.000117886)
(0.119957 -0.000314404 -1.01625e-05)
(0.1194 -1.35973e-05 1.64955e-05)
(0.123183 -0.000343679 0.000265202)
(0.122982 -0.000397683 -0.000153587)
(0.118783 -0.000400121 -0.00108722)
(0.11941 -0.000580105 -0.000209861)
(0.105998 -0.000381959 -0.00021829)
(0.120107 0.000596298 -0.000861632)
(0.122158 0.000375112 -0.00100426)
(0.114814 -0.000250767 -0.000496068)
(0.118787 -0.000637386 -9.56911e-05)
(0.122437 -0.000728408 -0.000186713)
(0.118347 -0.000483115 -0.00048614)
(0.122209 -0.000482158 -0.000262043)
(0.1236 0.000362933 0.000213271)
(0.123369 0.000751426 5.00713e-05)
(0.121247 0.00105377 0.000671492)
(0.117378 0.000511483 0.000468629)
(0.121542 0.00025221 -0.000304447)
(0.122529 -8.41999e-05 -0.000288906)
(0.124776 0.000210105 -0.000158427)
(0.125023 -0.000312075 -8.52009e-05)
(0.12454 -0.000272228 -2.36676e-05)
(0.116087 -0.000244488 -1.60203e-06)
(0.122015 6.85406e-05 0.000421668)
(0.12146 0.000377565 0.000357891)
(0.123137 5.50745e-05 0.000340086)
(0.115634 4.00172e-05 -0.000111882)
(0.118395 -0.00109104 0.000114528)
(0.118859 -0.00049695 -7.05977e-05)
(0.117701 -0.00125784 -0.000450929)
(0.106402 -0.000879939 0.000148249)
(0.123884 0.000446464 0.00033845)
(0.124219 6.85047e-05 0.000304068)
(0.122257 0.000438902 -0.000140884)
(0.124427 9.61549e-05 -0.000138077)
(0.123995 0.000136961 0.000235271)
(0.122146 -9.22749e-05 0.000544809)
(0.12196 0.000520134 0.000502181)
(0.120339 -0.000482876 -0.000418269)
(0.115262 -4.63799e-05 -0.000141643)
(0.117074 -3.65807e-05 -0.000218091)
(0.119129 -0.00039014 -0.000344578)
(0.118125 0.000163692 -0.000379445)
(0.106863 -4.48204e-05 9.08298e-05)
(0.119637 -4.41935e-05 -0.00030732)
(0.106256 -1.40071e-05 -0.000330554)
(0.124347 -0.000457985 -4.0171e-05)
(0.126458 -0.000239506 0.00026637)
(0.126551 -0.000319447 -0.000129473)
(0.108227 -1.70654e-05 0.000252181)
(0.117948 -0.00073862 -0.000741609)
(0.119271 -0.000567746 -0.000293637)
(0.118729 -0.00101453 -0.000722733)
(0.105647 -0.00041933 -0.00103823)
(0.117778 0.000638649 -0.000242381)
(0.121651 0.000376006 -0.000115472)
(0.117053 -0.000580892 0.000742661)
(0.11572 -0.00019703 0.000347822)
(0.117831 3.28734e-05 0.000736112)
(0.106531 -0.000498733 0.000320294)
(0.124766 -0.00129084 0.000416959)
(0.122078 -0.00132914 0.000712773)
(0.122535 -0.00123515 0.000545497)
(0.124691 -0.00124823 0.000252526)
(0.121093 -0.000420608 -0.000683212)
(0.119809 -0.000348583 -0.000247139)
(0.118824 -0.000172759 -0.000266819)
(0.10609 0.000145679 -0.000311787)
(0.123727 0.000461668 -2.2056e-05)
(0.122571 0.000310576 -8.58608e-05)
(0.123253 -0.000356649 -2.9271e-05)
(0.117652 0.00022825 -0.000298422)
(0.119799 -0.000520555 -0.000465259)
(0.119732 -0.000528506 -0.000630292)
(0.122922 -0.000588481 -0.000596192)
(0.123823 2.83124e-05 -0.000761443)
(0.123607 0.000112487 -0.00078428)
(0.122349 2.10815e-05 -0.000786923)
(0.115419 0.000383481 -0.000876722)
(0.118754 -8.66974e-05 6.15235e-05)
(0.116829 -0.000441918 7.42639e-05)
(0.117885 -0.000620626 0.000457733)
(0.106313 -0.000454976 -6.77339e-05)
(0.123854 0.000635703 0.000434417)
(0.119558 0.000515582 -0.000299827)
(0.119317 -0.000309106 -3.87911e-05)
(0.123456 -0.000845147 -0.00012079)
(0.119433 -0.00056395 -3.9218e-05)
(0.123229 -0.000772177 0.000221381)
(0.124021 0.000138389 0.000239736)
(0.123965 0.000133251 0.000214274)
(0.124011 0.000132422 0.000206694)
(0.123622 5.65341e-05 0.000189341)
(0.123818 -0.000323659 -8.88028e-05)
(0.116707 -0.000327322 5.19709e-05)
(0.122928 -0.000334331 -0.000385725)
(0.123454 3.20812e-05 -0.00059221)
(0.124923 0.000121493 -0.000345877)
(0.122469 -0.000204866 -0.000154803)
(0.123067 -0.000304802 0.000280054)
(0.125028 -0.000137487 0.000107926)
(0.125826 -0.00031854 6.77644e-05)
(0.123742 -7.73291e-05 -0.000602289)
(0.123634 -9.87155e-05 -0.000488796)
(0.126188 -4.37456e-05 -0.000616892)
(0.122651 0.000267492 -0.000507232)
(0.12465 0.000212792 -0.000367048)
(0.12506 -0.000269676 -0.000727688)
(0.120883 -0.000844521 -0.000234055)
(0.125904 1.35134e-05 -0.000654717)
(0.123437 -0.000559832 0.000291352)
(0.125232 6.60577e-05 0.00047594)
(0.125088 -0.000132218 0.000203295)
(0.12525 -0.000386591 0.000221859)
(0.123079 7.86739e-05 0.000232735)
(0.123932 -0.000185361 0.000358012)
(0.115509 -4.40546e-05 0.000153695)
(0.11785 -0.000108214 -0.000609224)
(0.117911 -0.000364275 -0.000258782)
(0.118616 -0.000776552 -0.000394907)
(0.122183 -0.00070282 -0.000454567)
(0.122819 -0.000545473 -0.000464369)
(0.123311 -0.000401764 0.000281442)
(0.12304 -0.000327676 4.99416e-05)
(0.12568 -0.000255943 -0.000241428)
(0.12563 -0.000229237 0.000105265)
(0.124662 0.000108904 -0.000138655)
(0.123103 -0.0001394 -0.000376007)
(0.122652 0.000282741 -5.88086e-05)
(0.124674 0.000445958 8.4219e-05)
(0.12428 0.000250987 -0.000445095)
(0.125918 -0.000123087 -0.000774032)
(0.124897 6.64105e-06 -0.000300091)
(0.12579 -0.000263684 -0.000661545)
(0.124373 -0.000555297 -7.01403e-05)
(0.123182 -0.000405739 -4.33343e-05)
(0.121831 -0.00109102 0.000198224)
(0.12485 -0.000812393 8.90529e-05)
(0.124391 -0.000148106 8.7166e-05)
(0.120481 -0.000166979 -0.000343324)
(0.12524 -0.000202193 3.59969e-05)
(0.120356 9.48528e-05 -0.000716498)
(0.12544 -1.58048e-05 7.67861e-06)
(0.126242 -0.000201705 -0.00041464)
(0.12502 -3.02799e-05 -0.000228291)
(0.124362 -5.36566e-05 0.000364407)
(0.115773 -1.25988e-05 -7.28046e-05)
(0.117224 -0.000244886 -0.000422776)
(0.107771 -0.000105582 -0.000251137)
(0.117865 -0.000675914 -0.000989298)
(0.1062 -0.000292562 -0.000269243)
(0.126141 0.000207295 0.00075762)
(0.123843 0.000221438 0.00023227)
(0.122353 -0.000593915 -0.000483101)
(0.115725 -0.000369599 -0.000369489)
(0.123936 -0.000255168 -0.000811677)
(0.12361 -0.000246587 -0.000625987)
(0.122192 -0.000395171 -0.000302995)
(0.115206 -0.000382921 -0.000426154)
(0.125753 0.000295836 0.000751499)
(0.125795 0.000112165 0.000803918)
(0.125947 0.000189381 0.000671461)
(0.124886 0.000364422 0.000746729)
(0.123763 0.000606203 0.000356787)
(0.123947 0.000291798 0.000244253)
(0.125392 0.000358464 0.000299537)
(0.116902 -0.000252194 -0.000421873)
(0.118903 -9.14885e-05 -0.000219693)
(0.105791 -0.000359429 -0.000418305)
(0.119915 0.000224895 -0.000339242)
(0.118473 -0.000136546 -0.000246803)
(0.1178 0.000311284 -0.000320644)
(0.106834 -6.73902e-05 -0.000716431)
(0.125476 -0.000156137 0.000122042)
(0.123848 -0.000304098 -0.000398913)
(0.125476 -0.000470998 -9.15381e-05)
(0.122496 6.10145e-05 -0.000115795)
(0.124264 -4.27588e-05 -0.000204771)
(0.118285 -0.000368841 -0.000494927)
(0.119066 -0.000205898 -0.000618173)
(0.106625 -0.000406088 -0.00037646)
(0.119918 -0.00036812 -0.000118471)
(0.117442 -0.000100384 3.28525e-05)
(0.116968 2.77264e-05 0.00029637)
(0.107787 -0.000104196 0.000173973)
(0.126201 -0.000732831 0.000271524)
(0.124082 -0.000437661 0.000562067)
(0.123921 -0.000500536 0.000175494)
(0.126014 -0.000482975 -2.01207e-06)
(0.119436 -0.000106252 -0.00135728)
(0.119149 -2.11443e-05 -0.000909401)
(0.12245 -0.000279665 -0.000882026)
(0.106878 -0.000330615 -0.00120663)
(0.122252 0.000122264 0.000119012)
(0.122672 -0.000408659 0.000166153)
(0.123128 -0.000183461 0.00012107)
(0.116183 -0.000467551 0.000185249)
(0.119894 -0.000809586 -0.000471473)
(0.123595 -0.000462912 -0.000669127)
(0.123393 -0.000203797 -0.000877817)
(0.124016 -7.34924e-05 -8.18695e-05)
(0.125863 -0.000132643 0.000133928)
(0.124849 0.000133248 0.000416144)
(0.120767 0.000142856 -0.00123574)
(0.118058 0.000397719 -0.000908358)
(0.120132 0.000824373 -0.000912303)
(0.105177 -0.000441217 -0.000921131)
(0.127239 -8.04086e-05 6.19176e-05)
(0.12687 -0.000287351 -3.83355e-05)
(0.125281 3.98449e-05 -8.20544e-05)
(0.126961 2.5301e-05 -3.26883e-05)
(0.125109 -0.000232541 -0.000460821)
(0.12208 -0.000215705 -0.000313007)
(0.121449 -0.000122614 -0.000750295)
(0.124755 -0.000337184 -0.00020731)
(0.120719 -0.00103305 -0.000383051)
(0.121092 -0.000962094 -7.08004e-05)
(0.106672 -0.000288583 -0.000570497)
(0.11948 -0.000670603 0.000965993)
(0.118231 -0.00029083 0.00100761)
(0.120187 -0.000534559 0.000738464)
(0.105235 0.000130117 0.000196819)
(0.123134 -0.000336358 5.84354e-05)
(0.117621 -0.00029005 8.6634e-05)
(0.120175 -0.000290407 -0.000703046)
(0.126904 -0.000217388 -0.000209022)
(0.125106 -0.000193586 -0.000348319)
(0.117935 0.000301132 0.000204139)
(0.116935 0.00017294 0.000256998)
(0.119034 -0.000125174 -0.000231166)
(0.105517 -0.000156752 0.000153604)
(0.120502 -0.000141624 -0.000783121)
(0.120297 0.000453922 -0.000514408)
(0.106801 -0.000398329 -0.000891542)
(0.117468 -0.000206568 0.000334037)
(0.120188 -0.000128845 0.000304216)
(0.117824 -0.000589942 0.000136902)
(0.107442 -0.000346955 0.00010772)
(0.117461 -0.00101454 -0.000468432)
(0.12085 -0.000612007 0.000212957)
(0.118626 -0.000964968 -0.000263073)
(0.104993 -0.000491766 -0.000409857)
(0.120484 0.000686841 -0.000623168)
(0.122062 0.000384006 -0.000111568)
(0.122488 0.000222636 -0.000449345)
(0.115069 0.000503996 -0.000381164)
(0.118679 0.00028182 0.000240595)
(0.117777 0.000246129 0.000386793)
(0.107429 -3.69787e-05 0.000303832)
(0.125668 -0.000508198 -1.69947e-05)
(0.125192 -0.000330984 0.000137969)
(0.126118 -0.000478353 -2.3709e-05)
(0.125715 -0.000410889 0.000161847)
(0.123793 -0.000358776 0.00023553)
(0.124028 -0.000272543 5.88425e-06)
(0.126182 -0.000339985 0.000315739)
(0.126453 -0.000353458 0.000253282)
(0.116307 0.000162528 -0.00117899)
(0.116404 0.000122577 -0.000500809)
(0.118659 0.00023655 -0.000881611)
(0.108343 -0.000256442 -0.000600407)
(0.119423 -0.000475567 0.00056703)
(0.119375 -0.00148001 -0.000230973)
(0.11985 -0.000800993 0.00019834)
(0.111243 -0.000645774 -8.42656e-05)
(0.12117 0.000992934 -4.26304e-05)
(0.123283 0.000642794 -0.000320324)
(0.123309 0.000602443 -0.000579293)
(0.116818 0.000243686 -0.000591944)
(0.119719 0.000108225 0.000148472)
(0.116948 -2.54945e-05 -2.85755e-05)
(0.116269 -0.000182264 -0.000219842)
(0.107271 0.000227839 -7.90903e-05)
(0.124177 -6.43652e-05 0.000491249)
(0.117001 4.45666e-05 -3.77345e-05)
(0.124509 -0.000543089 -0.000377068)
(0.125752 -0.000163467 -0.000350028)
(0.124657 -0.000174181 -0.000238958)
(0.124652 -0.000187901 -0.000322629)
(0.122499 0.000421893 0.000111081)
(0.121217 0.000304835 0.000230466)
(0.116642 0.00042039 0.000321198)
(0.125252 0.000208986 -0.00011393)
(0.124138 0.000265365 0.000348999)
(0.124859 0.000190656 0.000177867)
(0.124882 0.000366687 0.000307285)
(0.124554 -0.000166302 -7.41257e-05)
(0.124539 -0.000500029 -0.000165333)
(0.116155 -0.000282685 -0.000143256)
(0.122628 -0.000327053 -0.000134613)
(0.121221 -0.000451165 0.000118445)
(0.122576 -0.000474869 0.000223422)
(0.114109 -0.000220488 -0.000218115)
(0.12263 -3.16339e-05 1.69873e-05)
(0.123014 0.000230815 0.000129668)
(0.115691 0.000176244 0.000290633)
(0.118848 -0.000469234 0.000673144)
(0.122911 -0.00051514 0.000385624)
(0.123198 -0.000741988 0.000656502)
(0.120528 -4.83254e-05 0.000271533)
(0.122147 -0.000331031 -9.28344e-05)
(0.122403 -0.000353204 0.000115225)
(0.115616 -0.000201531 0.000209555)
(0.119126 0.000321494 -0.000186886)
(0.116308 0.000171581 -0.000545592)
(0.106107 0.000845192 -0.000537343)
(0.124551 -0.000320013 -3.53755e-05)
(0.126053 -0.000361922 -8.33358e-05)
(0.126698 0.000240035 -0.000176846)
(0.122893 0.000114028 0.000468244)
(0.123663 3.86588e-05 0.000640269)
(0.115849 -0.000285142 0.00083811)
(0.124851 0.000242605 4.68256e-05)
(0.125525 -0.000129151 6.31723e-05)
(0.125363 0.000195449 -0.00011422)
(0.125619 0.000206694 -9.0652e-05)
(0.119437 -9.53511e-05 -6.37624e-05)
(0.120243 -0.000150317 0.000224307)
(0.119555 -0.000377584 4.42337e-05)
(0.106006 0.000106722 0.000152074)
(0.117038 4.74817e-05 0.000432533)
(0.116843 -0.000186005 0.00045351)
(0.118351 -7.01508e-05 0.000669441)
(0.106259 -0.000239873 0.000398297)
(0.124428 -0.000291294 -0.000222769)
(0.125251 -0.000112948 0.000262329)
(0.126138 -0.000434391 2.24407e-05)
(0.125789 -7.80731e-05 0.000224901)
(0.124268 -0.000369927 -0.000359964)
(0.125506 9.45377e-05 -0.000493044)
(0.123814 0.000218036 -0.00035409)
(0.121339 -0.000263412 0.000708416)
(0.123601 -0.000318043 0.000131688)
(0.123227 -0.000174765 0.000224302)
(0.121908 -0.00023242 0.000801099)
(0.121632 -9.30003e-05 0.0001838)
(0.123564 -0.000413061 9.92924e-05)
(0.116118 -0.0001267 0.00032296)
(0.124011 -0.000413831 -0.000716087)
(0.124177 -0.000121452 -0.000643481)
(0.121785 -0.000205218 -0.000354279)
(0.115652 0.000113068 -0.00064362)
(0.123922 -0.000229792 -0.000851037)
(0.119984 -0.000301371 -0.000793362)
(0.123789 3.89134e-06 -0.000720242)
(0.119721 0.000406019 0.000297641)
(0.123623 0.000560778 0.000448424)
(0.1208 0.000278861 0.000657243)
(0.124076 0.00038976 0.000241942)
(0.125425 0.000321301 -0.000559621)
(0.122348 0.000449005 -0.000546581)
(0.123032 1.4254e-05 -0.000797061)
(0.119914 -5.12614e-05 -5.62212e-05)
(0.106849 -0.000202694 -0.000360853)
(0.119043 -3.6032e-05 -8.39109e-05)
(0.12256 -0.000287866 -9.42349e-05)
(0.126065 0.000160359 0.000203047)
(0.125825 -0.000190292 0.00012993)
(0.125486 1.75574e-05 0.000419221)
(0.125891 -0.000132703 0.000498114)
(0.124594 -0.000497239 0.000233463)
(0.124741 -0.000594549 0.000130601)
(0.124423 -0.000415775 0.00016062)
(0.124661 -0.000479269 3.59341e-06)
(0.12503 -0.000283289 0.000275222)
(0.124596 -0.000546692 0.000229478)
(0.122893 -0.000345989 0.000582901)
(0.120749 -0.00136425 -0.000180028)
(0.123521 -0.00145314 -0.000489457)
(0.122456 -0.00102813 -0.000694045)
(0.120714 -7.62669e-05 -0.000280652)
(0.120353 0.000359714 -0.00047459)
(0.115675 0.000119303 0.000325731)
(0.124329 2.25903e-05 -0.000434457)
(0.116877 -0.000250818 -0.000328101)
(0.120736 0.000556347 -0.000557952)
(0.12096 0.000648857 -0.000793946)
(0.122297 0.000193491 -0.000609377)
(0.115088 -0.000124085 -0.000547307)
(0.125767 0.000220235 -0.000445365)
(0.124136 0.000337429 -0.000486865)
(0.124729 0.000152893 -0.000691956)
(0.106896 0.00010301 -0.000190591)
(0.122251 0.000126792 -0.000300219)
(0.11648 -0.000132464 -0.000183094)
(0.119993 0.00015633 -2.70786e-05)
(0.123066 9.05985e-05 0.000305859)
(0.119581 0.000147436 -0.000158678)
(0.12335 0.000464163 6.43785e-05)
(0.123799 9.49354e-05 -0.000173405)
(0.123227 9.59647e-05 -0.000378374)
(0.122095 0.000111843 -6.25232e-06)
(0.117701 0.000361374 -0.000178598)
(0.125984 -0.000154135 -0.000421281)
(0.124216 -0.000237013 -0.00059065)
(0.125504 -0.000330174 -0.000560206)
(0.12404 -0.000496603 -0.000375579)
(0.123681 -0.00068226 -0.000459498)
(0.125839 -0.000548889 -0.000257019)
(0.124883 -0.000560875 -0.000111844)
(0.125445 0.000107013 -0.000412472)
(0.125716 -0.00014371 -0.000275075)
(0.118414 -0.000714882 -0.000426898)
(0.11955 -0.00091025 -0.000445528)
(0.10585 7.57434e-06 -0.000404245)
(0.122129 -0.000909015 0.000296121)
(0.122549 -0.000288991 0.000116842)
(0.125829 -0.000397785 -0.000163765)
(0.123133 -0.00019409 -0.000273241)
(0.12606 -0.000411172 -0.00026474)
(0.125228 -9.67803e-05 0.000292153)
(0.125025 3.44317e-05 -5.94702e-05)
(0.124319 0.000281328 0.000294082)
(0.120603 -0.000331093 -0.000513222)
(0.124774 -0.000389273 -0.000626126)
(0.114525 6.41354e-05 8.61183e-05)
(0.116846 -0.000385821 0.000673873)
(0.116391 -0.000597374 0.000216742)
(0.104055 -0.000631591 0.000305066)
(0.124033 -0.000284348 -0.00012987)
(0.122739 -0.000426394 0.000367351)
(0.117013 -0.000306599 0.00108566)
(0.117172 -0.00119896 -0.000331747)
(0.107728 -0.000716802 -0.000179287)
(0.122263 0.000328356 -0.000115345)
(0.122583 0.000450479 0.000303022)
(0.103255 0.000138889 -0.000234714)
(0.123333 -0.000196051 0.000330051)
(0.126048 -0.000364355 0.00024217)
(0.118025 -0.000479602 0.00042494)
(0.120965 0.000328975 0.000401509)
(0.121835 -0.000475935 0.000160005)
(0.118696 0.000535682 -0.000221161)
(0.118866 0.000229004 -0.00023613)
(0.119361 0.00047992 -0.000606509)
(0.105812 1.5575e-05 -8.49432e-05)
(0.123274 -4.24047e-05 9.41609e-05)
(0.122581 1.5336e-06 6.29506e-05)
(0.122073 -1.20612e-05 0.000169306)
(0.124543 0.000846114 -0.000336493)
(0.125476 0.000917738 -0.000297893)
(0.122423 0.000188028 -0.000236127)
(0.123325 0.000152362 -0.000411768)
(0.125559 -0.000810247 -0.000135924)
(0.124968 -6.07179e-05 0.000306185)
(0.119723 -0.000575615 -4.17335e-06)
(0.119499 -0.000328484 -9.44525e-05)
(0.105078 -0.000373281 0.000172611)
(0.118192 -0.000987556 0.000354664)
(0.116693 -0.000661116 0.000773815)
(0.107202 -0.000631981 0.000278017)
(0.124754 -0.000566277 0.000417568)
(0.122923 -5.27785e-05 0.000644529)
(0.124045 -0.000413428 0.000715873)
(0.122573 -0.000212811 0.000127706)
(0.125358 4.9157e-05 -0.000632073)
(0.126118 -7.66752e-05 -0.000589426)
(0.123824 7.34656e-05 -0.000389877)
(0.118788 0.000506212 0.000141322)
(0.119752 5.61177e-05 8.24653e-05)
(0.104788 0.000274926 -0.000545811)
(0.125428 -0.000544945 0.000133986)
(0.125349 -0.000558349 0.000419556)
(0.125287 -0.000319022 0.000295812)
(0.121872 -0.000149996 -0.000180038)
(0.119446 1.3713e-06 -0.000500936)
(0.107502 -0.000133661 -0.000352795)
(0.11714 -0.000285473 0.000263291)
(0.117148 -0.00057038 8.04566e-05)
(0.107768 -0.000349793 -4.12193e-05)
(0.121776 0.000268025 -0.000496598)
(0.121348 0.000249308 -0.000354918)
(0.123067 0.000339082 -0.000203721)
(0.116091 -0.000236731 -0.000393365)
(0.122688 -0.000411994 -0.000308404)
(0.124585 -0.000603805 0.000116622)
(0.122389 -0.000303104 0.000527096)
(0.124086 -0.000444713 0.000116845)
(0.120455 -0.00124889 0.000150245)
(0.122191 -0.000908923 -6.1792e-05)
(0.122487 -0.000717314 -0.000153313)
(0.114537 -0.000880728 -0.000286722)
(0.117314 -0.000379027 0.000622124)
(0.121582 6.07708e-06 0.000594889)