/*--------------------------------*- C++ -*----------------------------------*\
| =========                 |                                                 |
| \\      /  F ield         | OpenFOAM: The Open Source CFD Toolbox           |
|  \\    /   O peration     | Version:  2212                                  |
|   \\  /    A nd           | Website:  www.openfoam.com                      |
|    \\/     M anipulation  |                                                 |
\*---------------------------------------------------------------------------*/
FoamFile
{
    version     2.0;
    format      ascii;
    arch        "LSB;label=32;scalar=64";
    class       volScalarField;
    location    "0.066";
    object      epsilon;
}
// * * * * * * * * * * * * * * * * * * * * * * * * * * * * * * * * * * * * * //

dimensions      [0 2 -3 0 0 0 0];

internalField   nonuniform List<scalar> 
31639
(
0.160248
0.162254
0.162752
0.155975
0.16474
0.166426
0.169939
0.161631
0.162081
0.157962
0.159815
0.158255
0.16069
0.156797
0.162753
0.171996
0.161163
0.16795
0.16865
0.164327
0.184108
0.158841
0.157686
0.168129
0.173113
0.163045
0.163855
0.132864
0.168704
0.15807
0.157143
0.169923
0.15612
0.172063
0.179614
0.15806
0.186198
0.157299
0.158175
0.194857
0.178173
0.182927
0.157555
0.160028
0.160783
0.157641
0.163861
0.165189
0.159805
0.156363
0.157925
0.189141
0.157241
0.188554
0.166
0.163104
0.185433
0.162981
0.161947
0.182642
0.161657
0.161309
0.174444
0.164627
0.159939
0.156059
0.161423
0.161557
0.178234
0.156215
0.158072
0.164909
0.157914
0.162129
0.157541
0.18106
0.157315
0.167003
0.162138
0.159797
0.172958
0.195207
0.15765
0.160547
0.158999
0.158236
0.156674
0.156995
0.176415
0.156497
0.16136
0.163586
0.181408
0.162885
0.171768
0.164044
0.163564
0.162193
0.161401
0.183441
0.157132
0.157899
0.162056
0.183698
0.181986
0.157122
0.185498
0.189796
0.17211
0.187993
0.158195
0.183662
0.164361
0.167533
0.16123
0.187982
0.166031
0.167456
0.160841
0.162495
0.16007
0.158243
0.158047
0.161185
0.163894
0.158268
0.162815
0.172005
0.1732
0.157672
0.155817
0.157361
0.15796
0.168144
0.159116
0.161375
0.18171
0.186056
0.157822
0.161995
0.162342
0.157633
0.157988
0.185448
0.19121
0.157633
0.158905
0.181158
0.181089
0.157515
0.177266
0.16447
0.168696
0.159975
0.180873
0.15645
0.163164
0.18041
0.180575
0.169937
0.15751
0.181792
0.176385
0.186258
0.185732
0.161945
0.182356
0.157467
0.158165
0.182481
0.163538
0.165379
0.18156
0.160701
0.15654
0.159064
0.161169
0.157885
0.160839
0.16081
0.163141
0.166685
0.163579
0.191607
0.163841
0.156949
0.161753
0.15725
0.184859
0.184978
0.159629
0.159733
0.160598
0.162782
0.162092
0.167507
0.168201
0.157625
0.182886
0.166509
0.158708
0.15757
0.158052
0.158287
0.166267
0.162539
0.163735
0.162279
0.158882
0.192265
0.162896
0.167145
0.160805
0.159134
0.163164
0.156942
0.18119
0.170644
0.160747
0.15864
0.158194
0.165595
0.183016
0.167459
0.183662
0.167897
0.15983
0.173355
0.181523
0.161185
0.159904
0.157374
0.179015
0.187082
0.161336
0.15952
0.18343
0.157015
0.176143
0.184886
0.16285
0.160968
0.163267
0.173596
0.174498
0.162144
0.162296
0.163144
0.181727
0.16235
0.163284
0.182854
0.173461
0.157939
0.159382
0.168805
0.180353
0.158608
0.159311
0.168591
0.155759
0.157234
0.163753
0.157795
0.16325
0.167691
0.183295
0.16969
0.156525
0.163513
0.150821
0.17007
0.164625
0.161839
0.15641
0.165405
0.183508
0.166784
0.174304
0.157998
0.166239
0.157952
0.15695
0.167327
0.180364
0.177783
0.180002
0.188796
0.157801
0.176806
0.162763
0.163013
0.16968
0.178772
0.157867
0.169374
0.176216
0.158796
0.163577
0.176262
0.162897
0.177032
0.162527
0.163113
0.18256
0.167222
0.164205
0.191677
0.187981
0.157808
0.156662
0.151167
0.184269
0.181068
0.158377
0.176761
0.172856
0.158183
0.160047
0.163291
0.158691
0.156463
0.180279
0.157167
0.187856
0.189179
0.160669
0.157858
0.157721
0.156578
0.159514
0.178045
0.161401
0.162628
0.158657
0.158256
0.155568
0.163037
0.164581
0.161668
0.158123
0.159831
0.162736
0.164268
0.162429
0.164729
0.160478
0.163196
0.180987
0.163617
0.15669
0.166822
0.159824
0.156964
0.16309
0.182961
0.163187
0.162881
0.184616
0.15885
0.17928
0.16302
0.152755
0.190358
0.16263
0.163227
0.182455
0.1622
0.179569
0.164727
0.158084
0.162666
0.188777
0.160902
0.178867
0.160883
0.157333
0.158776
0.160318
0.179073
0.158763
0.184193
0.163005
0.188522
0.156873
0.157936
0.157209
0.157233
0.170719
0.160088
0.162298
0.16117
0.163071
0.183452
0.163644
0.159567
0.15887
0.159233
0.163253
0.157618
0.166412
0.181838
0.167299
0.160539
0.159399
0.189456
0.157397
0.157848
0.163035
0.159554
0.158318
0.164623
0.157251
0.173692
0.16063
0.158546
0.186858
0.163061
0.161296
0.179444
0.183516
0.183226
0.170735
0.185744
0.164255
0.155554
0.169934
0.159961
0.182795
0.158533
0.156798
0.162562
0.159149
0.166644
0.158617
0.164083
0.166186
0.156526
0.161796
0.182573
0.162655
0.158209
0.157496
0.160573
0.156983
0.163963
0.160174
0.160166
0.158089
0.16048
0.180943
0.164634
0.190276
0.171513
0.163048
0.184439
0.189368
0.168753
0.159277
0.158694
0.18223
0.160325
0.171588
0.162429
0.160627
0.151451
0.163103
0.189552
0.163323
0.157473
0.157276
0.159168
0.166795
0.183573
0.161337
0.161475
0.158314
0.186907
0.183147
0.162887
0.183856
0.178226
0.161698
0.18712
0.166646
0.176299
0.161576
0.182763
0.156673
0.158497
0.158095
0.157899
0.175208
0.157661
0.157895
0.161648
0.159673
0.161554
0.157365
0.161172
0.17147
0.15859
0.157167
0.162488
0.169638
0.156341
0.162323
0.18933
0.189884
0.162385
0.158868
0.156675
0.164068
0.160415
0.161466
0.158702
0.162236
0.166896
0.16561
0.179945
0.162526
0.162888
0.157173
0.178195
0.176211
0.176914
0.163943
0.162746
0.189116
0.161394
0.171796
0.159988
0.165179
0.15777
0.166012
0.18079
0.159759
0.156186
0.176277
0.158189
0.151445
0.155297
0.163657
0.133257
0.17706
0.1626
0.162677
0.179677
0.180916
0.162294
0.161548
0.16009
0.1767
0.165692
0.157769
0.162935
0.182179
0.174027
0.161889
0.156963
0.183496
0.190831
0.159384
0.185125
0.161115
0.156952
0.183319
0.162165
0.160836
0.16647
0.186758
0.157393
0.166272
0.179185
0.157456
0.160757
0.163177
0.158907
0.189451
0.170949
0.163017
0.168954
0.176302
0.16908
0.162968
0.157675
0.159301
0.158702
0.157346
0.158697
0.172898
0.158282
0.158543
0.159003
0.175832
0.162157
0.163385
0.156497
0.179868
0.1896
0.15639
0.175177
0.155796
0.164066
0.180025
0.162738
0.158008
0.164414
0.161285
0.183319
0.158295
0.161323
0.189414
0.157886
0.158671
0.140054
0.182276
0.181717
0.170145
0.161155
0.162834
0.164369
0.161783
0.158313
0.163128
0.164261
0.182638
0.156167
0.187424
0.161613
0.167888
0.162582
0.157417
0.161208
0.175044
0.185045
0.183489
0.167215
0.157522
0.174241
0.156348
0.16726
0.157698
0.181861
0.164467
0.159984
0.155206
0.157756
0.157559
0.161203
0.163754
0.156492
0.15731
0.158361
0.175479
0.158092
0.180809
0.158945
0.16529
0.163313
0.178651
0.163988
0.189553
0.156877
0.164992
0.158164
0.162363
0.164661
0.179419
0.149025
0.183844
0.193562
0.181349
0.178776
0.181988
0.165015
0.187631
0.15728
0.162272
0.190459
0.158304
0.181032
0.169358
0.16331
0.167764
0.160658
0.156581
0.155062
0.159089
0.164534
0.160545
0.168692
0.167414
0.184574
0.166186
0.156886
0.163334
0.159074
0.158457
0.183237
0.158127
0.158324
0.15849
0.158357
0.158734
0.161191
0.15721
0.156753
0.163679
0.158737
0.158669
0.179609
0.158458
0.169139
0.162625
0.163609
0.161847
0.171353
0.158269
0.162384
0.163001
0.167291
0.18015
0.156643
0.16245
0.169853
0.183613
0.158459
0.184477
0.156668
0.160095
0.164096
0.162342
0.156494
0.160349
0.185327
0.160723
0.168588
0.165997
0.177226
0.157587
0.158385
0.164699
0.16357
0.163109
0.161389
0.168221
0.164718
0.187293
0.158106
0.161172
0.157045
0.177015
0.162077
0.160986
0.163962
0.171204
0.159286
0.158275
0.164806
0.18517
0.186179
0.16347
0.186393
0.1753
0.163104
0.161876
0.156885
0.186532
0.162793
0.157172
0.178186
0.182113
0.159935
0.178521
0.163571
0.178449
0.159874
0.173988
0.170189
0.157402
0.186162
0.164164
0.163906
0.158709
0.158621
0.156456
0.182097
0.158474
0.159273
0.169997
0.156752
0.158956
0.162129
0.15141
0.161698
0.158549
0.15695
0.158161
0.159585
0.167234
0.161497
0.161956
0.181079
0.164241
0.161862
0.158021
0.160359
0.164779
0.156943
0.158151
0.160718
0.158579
0.157503
0.158308
0.160798
0.18294
0.166564
0.158587
0.19192
0.163413
0.164354
0.167444
0.164483
0.156676
0.159068
0.157636
0.164691
0.159561
0.16148
0.159766
0.162056
0.168868
0.181867
0.158585
0.184799
0.166268
0.166621
0.164382
0.161139
0.156133
0.183001
0.159082
0.179258
0.159864
0.170338
0.163913
0.164133
0.156765
0.1824
0.158342
0.157664
0.161404
0.163763
0.163995
0.18849
0.15798
0.159844
0.161174
0.1575
0.157076
0.160381
0.164271
0.158421
0.177488
0.166558
0.156831
0.182624
0.175423
0.157965
0.157262
0.169481
0.167531
0.166592
0.171812
0.163195
0.174642
0.158262
0.159432
0.191875
0.162005
0.156424
0.160033
0.161574
0.161077
0.15781
0.178401
0.178131
0.155453
0.157756
0.161999
0.177291
0.158461
0.158678
0.176103
0.159604
0.157417
0.157874
0.161294
0.158077
0.164031
0.160106
0.161828
0.168854
0.181353
0.160881
0.161074
0.17695
0.156911
0.185545
0.164989
0.165546
0.181951
0.165423
0.168247
0.159997
0.16392
0.159769
0.184172
0.185255
0.165878
0.182081
0.16458
0.157131
0.163639
0.157801
0.168592
0.162382
0.15964
0.168928
0.165254
0.162055
0.163029
0.162972
0.179231
0.163008
0.161133
0.156188
0.156868
0.185857
0.183094
0.163199
0.156808
0.174254
0.165416
0.162785
0.162265
0.157385
0.166027
0.164003
0.162936
0.18127
0.15821
0.161109
0.180008
0.172276
0.161207
0.168757
0.157565
0.15826
0.163866
0.179672
0.157755
0.182069
0.165789
0.161328
0.172975
0.159495
0.185864
0.162216
0.159434
0.164489
0.18921
0.182675
0.156729
0.158923
0.169344
0.15653
0.162456
0.162752
0.184705
0.178719
0.164052
0.163845
0.163679
0.157582
0.155839
0.158698
0.15597
0.162174
0.163081
0.15889
0.184675
0.160525
0.159687
0.16086
0.16303
0.159407
0.167697
0.156905
0.164914
0.188279
0.157126
0.174797
0.157912
0.168686
0.156488
0.181568
0.15957
0.157059
0.16449
0.162174
0.185986
0.157598
0.158392
0.157581
0.182902
0.156065
0.164332
0.158394
0.160169
0.1591
0.159136
0.161642
0.168647
0.159493
0.180652
0.181253
0.182127
0.17335
0.161894
0.183989
0.157093
0.158847
0.161204
0.165822
0.162355
0.163029
0.159518
0.162719
0.168427
0.157965
0.163087
0.17036
0.157283
0.161307
0.164733
0.159513
0.171172
0.158378
0.157908
0.156471
0.158592
0.15918
0.170092
0.157792
0.164057
0.162889
0.163096
0.162462
0.156589
0.162334
0.159014
0.167403
0.16428
0.160657
0.179704
0.187392
0.159415
0.170843
0.159638
0.169768
0.184705
0.163207
0.158442
0.174577
0.169204
0.161974
0.156886
0.158108
0.164362
0.17784
0.163116
0.162153
0.168503
0.16245
0.162787
0.189489
0.17137
0.170467
0.161998
0.160766
0.163555
0.160021
0.161453
0.163321
0.163259
0.176279
0.171256
0.190887
0.161874
0.161996
0.158614
0.156515
0.155844
0.182584
0.161491
0.167977
0.162451
0.160852
0.158333
0.184026
0.154935
0.181032
0.161677
0.163045
0.163215
0.159426
0.168944
0.16295
0.176131
0.163822
0.167124
0.160228
0.168852
0.180416
0.157774
0.159909
0.161868
0.159013
0.159022
0.180249
0.168104
0.163866
0.177354
0.157999
0.159912
0.15674
0.156715
0.15652
0.182434
0.184781
0.179627
0.157174
0.185507
0.157876
0.16101
0.179001
0.16892
0.159494
0.158003
0.17166
0.168589
0.163607
0.161157
0.158851
0.163175
0.176936
0.163449
0.160189
0.159231
0.159989
0.157234
0.1563
0.157052
0.161079
0.181529
0.185651
0.162941
0.171099
0.160252
0.186818
0.159948
0.163867
0.156267
0.180018
0.162151
0.160241
0.162955
0.169013
0.181247
0.158542
0.174909
0.161213
0.163596
0.156439
0.155232
0.16257
0.187049
0.183327
0.164444
0.164176
0.168124
0.159163
0.185235
0.150975
0.158888
0.169757
0.159878
0.154439
0.159751
0.156744
0.158117
0.16186
0.161185
0.186551
0.168688
0.157308
0.180985
0.159809
0.165417
0.176357
0.162252
0.14324
0.163168
0.15869
0.158516
0.184853
0.16478
0.162774
0.181342
0.168501
0.163257
0.166695
0.159743
0.17917
0.180407
0.1635
0.167085
0.155622
0.156963
0.156663
0.163279
0.161954
0.161455
0.161441
0.156818
0.176232
0.162315
0.164595
0.157816
0.160834
0.168847
0.164766
0.159616
0.183257
0.163247
0.158322
0.163787
0.19425
0.163477
0.183974
0.160923
0.189265
0.159308
0.157365
0.161026
0.161507
0.176302
0.179869
0.158704
0.159563
0.159999
0.162207
0.168595
0.158045
0.159066
0.158155
0.183584
0.171527
0.158917
0.15953
0.163262
0.162904
0.183088
0.158804
0.158012
0.160774
0.16157
0.160894
0.162531
0.157282
0.159616
0.178783
0.162971
0.159879
0.163232
0.163263
0.160444
0.190182
0.174739
0.15751
0.160182
0.160196
0.158794
0.159995
0.157341
0.161897
0.164304
0.159275
0.15826
0.170564
0.165848
0.164202
0.162606
0.158373
0.187913
0.162252
0.182362
0.158197
0.183013
0.180346
0.162122
0.186358
0.168528
0.161148
0.157786
0.157447
0.169879
0.166724
0.154818
0.17496
0.177578
0.168318
0.1727
0.157569
0.159985
0.161906
0.183776
0.160541
0.158458
0.157008
0.180496
0.177825
0.16387
0.161264
0.15911
0.174612
0.179961
0.164459
0.168004
0.1566
0.159566
0.186097
0.160552
0.159489
0.179439
0.188675
0.158297
0.174843
0.175633
0.156586
0.159711
0.156947
0.156417
0.16018
0.167541
0.15804
0.17045
0.156753
0.17032
0.155774
0.158953
0.163065
0.18106
0.157222
0.156037
0.166132
0.163755
0.162574
0.175399
0.13862
0.160788
0.166609
0.155734
0.167621
0.153437
0.181884
0.159242
0.157954
0.184819
0.158195
0.163884
0.190703
0.181745
0.162645
0.161444
0.159529
0.169157
0.179053
0.157964
0.157656
0.158599
0.160539
0.155777
0.182449
0.158831
0.163384
0.181339
0.181078
0.195276
0.177526
0.158672
0.168868
0.162685
0.158673
0.17119
0.169447
0.187849
0.187347
0.156921
0.15701
0.179081
0.158999
0.160763
0.180927
0.16467
0.164369
0.176814
0.166298
0.155467
0.177471
0.187885
0.156304
0.158737
0.173793
0.160157
0.171684
0.174481
0.181012
0.159218
0.177484
0.182841
0.163334
0.157786
0.163788
0.161974
0.158944
0.163117
0.155315
0.145335
0.159585
0.180183
0.156868
0.158827
0.162687
0.169636
0.161132
0.177469
0.159866
0.163281
0.168388
0.182847
0.186102
0.191748
0.168747
0.182234
0.165399
0.17817
0.167226
0.157436
0.158919
0.16609
0.161296
0.161026
0.165413
0.157902
0.186923
0.161655
0.156648
0.156508
0.16317
0.155965
0.175302
0.16254
0.164312
0.182962
0.161392
0.156218
0.158441
0.153351
0.158618
0.162385
0.188871
0.183388
0.163719
0.156726
0.163196
0.157313
0.169631
0.166933
0.177455
0.185173
0.184628
0.187953
0.159611
0.162342
0.153731
0.163472
0.167658
0.157813
0.188019
0.158126
0.160148
0.158349
0.165172
0.162512
0.158222
0.157729
0.158649
0.148098
0.163492
0.15831
0.156186
0.159231
0.157861
0.160551
0.157322
0.159651
0.171352
0.159583
0.159615
0.158579
0.15955
0.184561
0.156974
0.158611
0.158762
0.157174
0.181747
0.190898
0.16335
0.159573
0.170596
0.158571
0.156755
0.155781
0.15635
0.169041
0.160513
0.163894
0.159157
0.186196
0.185482
0.165488
0.160847
0.178192
0.158494
0.180996
0.166405
0.163622
0.160916
0.16692
0.155687
0.16104
0.160527
0.160807
0.159864
0.162037
0.169418
0.189005
0.157633
0.19499
0.192069
0.143039
0.182528
0.186071
0.16476
0.163449
0.180196
0.169183
0.193387
0.178714
0.160499
0.160115
0.184975
0.184839
0.157868
0.184585
0.161006
0.15656
0.164889
0.158633
0.177133
0.181384
0.165723
0.158775
0.175145
0.180455
0.164436
0.171654
0.161977
0.162651
0.183548
0.158769
0.18524
0.184613
0.166214
0.158221
0.170092
0.168364
0.166763
0.15714
0.188201
0.177236
0.164679
0.151254
0.159913
0.186954
0.190748
0.167116
0.15503
0.162463
0.164655
0.163969
0.1607
0.161437
0.179291
0.15704
0.170402
0.180871
0.189934
0.157706
0.162214
0.15673
0.160657
0.158404
0.181401
0.166759
0.187722
0.196838
0.16244
0.180749
0.170625
0.162457
0.144568
0.182499
0.157534
0.159063
0.156557
0.1605
0.196668
0.161266
0.183731
0.158119
0.184556
0.157266
0.191521
0.162926
0.164692
0.171346
0.168528
0.18918
0.172097
0.161869
0.158433
0.159759
0.159053
0.157996
0.182554
0.157322
0.135311
0.162032
0.160012
0.158927
0.159583
0.152797
0.158588
0.166841
0.170136
0.170051
0.158257
0.158008
0.17008
0.173597
0.160647
0.165115
0.159057
0.152951
0.161684
0.163871
0.163396
0.157199
0.157529
0.158266
0.165844
0.15872
0.160676
0.150899
0.161534
0.168304
0.159899
0.164062
0.156083
0.177559
0.179346
0.161832
0.153059
0.154929
0.150072
0.15803
0.161597
0.158518
0.178045
0.169179
0.157781
0.158593
0.157793
0.156888
0.167898
0.155856
0.179556
0.156927
0.169869
0.162651
0.167211
0.162543
0.160754
0.158576
0.181909
0.158803
0.15538
0.163388
0.179367
0.157203
0.156653
0.158386
0.162286
0.162224
0.160878
0.181809
0.156403
0.166768
0.162195
0.173641
0.170895
0.177406
0.18511
0.169514
0.158108
0.164038
0.178834
0.165241
0.183039
0.163133
0.163079
0.189186
0.181332
0.172147
0.1627
0.160652
0.168207
0.145333
0.166099
0.145788
0.173105
0.156439
0.157455
0.158713
0.148758
0.163451
0.185692
0.178406
0.159335
0.169994
0.166335
0.158558
0.155928
0.160354
0.155077
0.185825
0.151443
0.157363
0.166004
0.154647
0.15483
0.161935
0.155798
0.156291
0.169471
0.179463
0.164177
0.183653
0.188247
0.164643
0.162948
0.162507
0.161773
0.161821
0.160536
0.191325
0.169083
0.154017
0.158446
0.185143
0.165368
0.173983
0.16328
0.157544
0.167948
0.160166
0.15823
0.159459
0.185515
0.158554
0.184277
0.155591
0.158297
0.160353
0.155523
0.161374
0.156069
0.182343
0.152187
0.157713
0.171858
0.159247
0.164397
0.168436
0.158996
0.16407
0.158625
0.157163
0.154889
0.161611
0.156679
0.165244
0.156597
0.17718
0.164436
0.182933
0.183126
0.162442
0.162272
0.162957
0.158842
0.153784
0.15763
0.184884
0.159987
0.157149
0.162348
0.156347
0.180871
0.187422
0.163546
0.186969
0.157202
0.160322
0.188789
0.165219
0.158956
0.163239
0.183337
0.174745
0.187042
0.157548
0.187315
0.159267
0.161946
0.185821
0.159237
0.15841
0.15813
0.15658
0.17514
0.157562
0.158768
0.175357
0.160071
0.157093
0.160929
0.179047
0.153085
0.162728
0.156553
0.167679
0.161516
0.166767
0.167162
0.168187
0.16729
0.151798
0.159046
0.157891
0.173309
0.163631
0.160903
0.155736
0.160122
0.187556
0.156055
0.176018
0.160537
0.157242
0.154387
0.168836
0.160839
0.160608
0.1621
0.161531
0.165525
0.182589
0.180773
0.162994
0.158309
0.146469
0.169018
0.157017
0.180257
0.161397
0.183288
0.158451
0.157507
0.159125
0.182455
0.158372
0.181354
0.160884
0.161213
0.173714
0.160219
0.174726
0.170701
0.159564
0.181833
0.170137
0.164127
0.190031
0.161937
0.158546
0.190405
0.170198
0.151494
0.165
0.163147
0.15748
0.159109
0.156655
0.171699
0.185704
0.18927
0.129582
0.156376
0.149288
0.158472
0.159524
0.179226
0.179575
0.162813
0.160676
0.188278
0.161012
0.160031
0.16962
0.158409
0.165595
0.154705
0.175957
0.165494
0.158778
0.195261
0.156377
0.148962
0.158445
0.156745
0.157556
0.162831
0.184619
0.157823
0.159518
0.159706
0.158137
0.15419
0.156202
0.160042
0.160824
0.156218
0.163631
0.160466
0.180607
0.164489
0.156278
0.147844
0.15767
0.162419
0.16242
0.15625
0.179807
0.157808
0.180948
0.158742
0.159982
0.1656
0.158857
0.168215
0.164356
0.156032
0.165283
0.148781
0.144945
0.159276
0.18574
0.162514
0.162585
0.17129
0.157562
0.162603
0.158621
0.157082
0.18271
0.158087
0.158478
0.15666
0.163852
0.162265
0.18736
0.177404
0.152307
0.181441
0.159692
0.159174
0.177402
0.162573
0.155231
0.170282
0.171277
0.173107
0.1674
0.165588
0.153152
0.168149
0.155381
0.149395
0.158077
0.185567
0.160166
0.157734
0.156848
0.179842
0.171709
0.163789
0.134366
0.180504
0.162299
0.165121
0.158147
0.15302
0.158436
0.158795
0.163413
0.158576
0.16131
0.167129
0.169527
0.157632
0.159245
0.163674
0.151639
0.155331
0.177012
0.183232
0.163837
0.140373
0.160911
0.157459
0.159609
0.156407
0.159536
0.150976
0.159118
0.155293
0.17504
0.16582
0.166837
0.154959
0.160089
0.15626
0.159001
0.162529
0.165059
0.159845
0.160442
0.161191
0.156143
0.161065
0.169908
0.169683
0.177657
0.165769
0.15971
0.178243
0.157504
0.165742
0.157847
0.163411
0.157957
0.161036
0.150429
0.150844
0.16151
0.162634
0.157303
0.170548
0.183085
0.16175
0.164343
0.160226
0.162232
0.162642
0.15727
0.162544
0.186195
0.170959
0.18206
0.160514
0.163606
0.180102
0.156627
0.165455
0.167402
0.159803
0.174454
0.177382
0.156494
0.175356
0.180794
0.132236
0.138947
0.160279
0.173106
0.158708
0.159171
0.170012
0.159832
0.154695
0.152888
0.157927
0.185388
0.15771
0.144494
0.154162
0.176849
0.174891
0.156907
0.185321
0.168542
0.164382
0.158464
0.156297
0.155681
0.166205
0.164559
0.148017
0.162631
0.16203
0.158034
0.165501
0.179271
0.15074
0.162879
0.153726
0.130263
0.177919
0.162436
0.184492
0.181713
0.162578
0.156603
0.168495
0.163527
0.156898
0.154866
0.159508
0.157651
0.188367
0.155076
0.183453
0.158193
0.181528
0.160923
0.155295
0.156901
0.18087
0.166148
0.156945
0.157418
0.160987
0.153603
0.16487
0.158126
0.163343
0.180724
0.162323
0.170269
0.151674
0.154092
0.158876
0.16505
0.15677
0.164701
0.169335
0.181446
0.155661
0.155758
0.189035
0.159046
0.162849
0.160096
0.17966
0.161699
0.166185
0.160635
0.149083
0.167281
0.16255
0.192545
0.16064
0.183535
0.180594
0.163425
0.15885
0.18681
0.159317
0.160161
0.135842
0.188613
0.152737
0.156899
0.191211
0.164216
0.19264
0.184317
0.158147
0.157408
0.164217
0.150343
0.158669
0.162464
0.168466
0.152367
0.162412
0.163213
0.16656
0.153631
0.178779
0.149516
0.165586
0.166529
0.158684
0.156261
0.162938
0.157306
0.164949
0.155387
0.158516
0.165735
0.162848
0.158675
0.164593
0.164101
0.158255
0.158496
0.160542
0.143791
0.149995
0.153942
0.164117
0.171841
0.15187
0.152783
0.172688
0.160995
0.147358
0.18158
0.179651
0.153937
0.159986
0.164893
0.158885
0.15683
0.174823
0.159514
0.159839
0.175589
0.168563
0.182309
0.151614
0.162218
0.162489
0.157049
0.182269
0.163297
0.162094
0.157887
0.154366
0.139132
0.162768
0.158766
0.157952
0.149372
0.16146
0.144835
0.154988
0.156067
0.172191
0.189345
0.16972
0.15339
0.159566
0.175741
0.171314
0.159245
0.159629
0.163487
0.167814
0.192616
0.17247
0.172421
0.162966
0.165378
0.163109
0.158101
0.154762
0.142421
0.159013
0.155528
0.162811
0.169265
0.159286
0.148626
0.179461
0.170132
0.162166
0.142041
0.146386
0.159993
0.162815
0.155834
0.185372
0.167435
0.162192
0.148894
0.149495
0.154009
0.156016
0.158386
0.156322
0.163017
0.166179
0.153684
0.156246
0.158113
0.15924
0.156578
0.155226
0.179357
0.170604
0.186789
0.164029
0.144928
0.166754
0.177941
0.159265
0.171654
0.172399
0.165616
0.154095
0.164801
0.151209
0.162292
0.164712
0.153846
0.178651
0.153761
0.176094
0.159491
0.151004
0.163918
0.163902
0.156764
0.150783
0.175382
0.17535
0.166985
0.166621
0.163774
0.139744
0.160386
0.167431
0.155628
0.164282
0.169551
0.170446
0.140303
0.156605
0.162116
0.195642
0.181469
0.167983
0.151546
0.157026
0.176798
0.140823
0.155828
0.183614
0.158404
0.159894
0.157147
0.183509
0.157887
0.176083
0.175228
0.180491
0.154519
0.164031
0.163972
0.158475
0.159446
0.16154
0.179675
0.192936
0.157992
0.164355
0.1595
0.152451
0.178069
0.156069
0.167582
0.145865
0.162595
0.169593
0.170557
0.15771
0.155544
0.172928
0.179269
0.147975
0.152691
0.154206
0.167672
0.176988
0.180551
0.156787
0.159945
0.151119
0.152787
0.168005
0.161184
0.155518
0.14991
0.164799
0.155078
0.166342
0.160743
0.150324
0.157577
0.166828
0.148887
0.161856
0.150555
0.14619
0.155098
0.156934
0.164649
0.152911
0.155717
0.141109
0.180603
0.178623
0.157368
0.176593
0.167582
0.161013
0.146182
0.157845
0.146947
0.180161
0.177892
0.157837
0.137616
0.157206
0.181415
0.172186
0.159807
0.178889
0.160068
0.171408
0.190013
0.163997
0.155883
0.157921
0.158928
0.156209
0.157642
0.157588
0.156058
0.157983
0.164194
0.153702
0.170193
0.156887
0.153163
0.160183
0.158238
0.160096
0.145329
0.159986
0.158995
0.162219
0.169758
0.164062
0.186705
0.153863
0.159749
0.159746
0.157347
0.148152
0.163981
0.185852
0.158453
0.16628
0.168061
0.143886
0.182489
0.157207
0.16513
0.157099
0.159369
0.14726
0.180675
0.165548
0.151848
0.17622
0.150851
0.154642
0.145864
0.164708
0.173346
0.170535
0.14629
0.142969
0.144713
0.176125
0.165816
0.144297
0.157019
0.181998
0.160646
0.154216
0.15233
0.147579
0.160462
0.149289
0.165328
0.162102
0.15198
0.152212
0.173193
0.171426
0.159904
0.167863
0.183604
0.139651
0.157291
0.175756
0.165587
0.177592
0.158082
0.158117
0.16209
0.136241
0.158744
0.158492
0.161357
0.157075
0.162894
0.160352
0.150702
0.164838
0.163618
0.153692
0.163812
0.169528
0.169967
0.158093
0.143272
0.172932
0.145641
0.148817
0.152402
0.14604
0.158031
0.158559
0.158319
0.163771
0.161752
0.150821
0.144427
0.128714
0.162073
0.152727
0.165729
0.169284
0.179045
0.153293
0.155951
0.159381
0.14967
0.147956
0.152839
0.155945
0.173652
0.164683
0.162893
0.144733
0.179119
0.172499
0.179393
0.149005
0.155962
0.145298
0.137458
0.16156
0.144003
0.184048
0.161148
0.181573
0.175687
0.146856
0.17249
0.173223
0.144573
0.138994
0.157184
0.18298
0.15972
0.16082
0.167517
0.152459
0.155132
0.144362
0.147649
0.181543
0.169665
0.162241
0.166383
0.156018
0.164381
0.148655
0.167235
0.161548
0.161231
0.150074
0.132847
0.133282
0.150083
0.154352
0.157537
0.163656
0.153578
0.179229
0.159332
0.164942
0.146447
0.18272
0.15405
0.150249
0.16095
0.182095
0.144731
0.157306
0.129112
0.144395
0.133463
0.158995
0.179189
0.172462
0.153274
0.172306
0.155089
0.181427
0.132865
0.158382
0.172948
0.158631
0.142786
0.189781
0.144033
0.155686
0.140045
0.160833
0.158063
0.148039
0.189426
0.1503
0.164152
0.155879
0.158227
0.161656
0.146399
0.172406
0.183815
0.152807
0.18373
0.138705
0.183409
0.174808
0.146601
0.162377
0.159299
0.16478
0.141198
0.176166
0.157255
0.145626
0.153025
0.1764
0.167691
0.154893
0.138394
0.154468
0.161372
0.1564
0.161716
0.153625
0.155466
0.176462
0.155238
0.160369
0.170943
0.135991
0.148473
0.157277
0.164593
0.159339
0.139456
0.152644
0.149562
0.149262
0.134239
0.130854
0.129837
0.158414
0.168369
0.158862
0.157985
0.17323
0.164357
0.159596
0.165087
0.158038
0.153073
0.159791
0.149358
0.159558
0.185374
0.179732
0.148209
0.159589
0.155279
0.149099
0.164143
0.153875
0.17443
0.145765
0.161456
0.14891
0.151637
0.14531
0.175496
0.145444
0.160865
0.147629
0.1518
0.141095
0.140133
0.156352
0.177245
0.141448
0.184857
0.163235
0.17376
0.134925
0.162041
0.148765
0.14926
0.14887
0.162808
0.153996
0.126879
0.150799
0.140568
0.161261
0.167653
0.162803
0.14686
0.158407
0.157462
0.155712
0.142859
0.150802
0.153655
0.150008
0.134176
0.131829
0.159136
0.141325
0.137663
0.146089
0.156042
0.157803
0.151935
0.140895
0.141572
0.165688
0.149609
0.138945
0.129127
0.153942
0.149287
0.165547
0.174342
0.15828
0.168103
0.150779
0.151023
0.144054
0.130038
0.129126
0.157435
0.170785
0.152049
0.15906
0.155472
0.154179
0.149564
0.138391
0.142937
0.178454
0.154708
0.168641
0.136326
0.158888
0.160295
0.176754
0.177809
0.148412
0.140364
0.141186
0.1677
0.152348
0.157736
0.158411
0.141741
0.14301
0.186597
0.143
0.127839
0.142092
0.151064
0.144052
0.153721
0.142787
0.15217
0.152025
0.130849
0.171524
0.17129
0.155373
0.152996
0.144319
0.1519
0.155405
0.142232
0.179665
0.144807
0.160519
0.170436
0.148914
0.149264
0.159412
0.150901
0.152148
0.157796
0.169486
0.151331
0.156816
0.144292
0.147603
0.138793
0.146748
0.158437
0.152985
0.15158
0.151585
0.164629
0.142796
0.136717
0.13932
0.159227
0.175531
0.133049
0.150008
0.166036
0.164798
0.165478
0.176161
0.137615
0.148189
0.144538
0.139216
0.162721
0.173078
0.167238
0.170762
0.15222
0.157409
0.150236
0.162787
0.146418
0.139511
0.155907
0.136309
0.177006
0.149226
0.152733
0.145598
0.14517
0.173144
0.141936
0.136557
0.142948
0.139582
0.165193
0.154434
0.14605
0.136108
0.146427
0.134519
0.155586
0.16356
0.164283
0.157679
0.146805
0.16426
0.162104
0.178462
0.149983
0.156387
0.14237
0.156831
0.148954
0.144021
0.149716
0.178421
0.14403
0.157883
0.144971
0.155171
0.128263
0.130799
0.141968
0.153717
0.144912
0.138853
0.148371
0.167628
0.156949
0.153514
0.150417
0.162756
0.156205
0.155169
0.140597
0.143517
0.15796
0.140196
0.172091
0.144852
0.133649
0.164926
0.14302
0.155559
0.146553
0.141392
0.141331
0.136808
0.171615
0.170926
0.158854
0.146628
0.144236
0.14523
0.143713
0.153632
0.142594
0.155803
0.1432
0.168069
0.13444
0.167601
0.146066
0.142935
0.160418
0.158816
0.147822
0.150867
0.13169
0.143242
0.144178
0.134283
0.144649
0.155921
0.173077
0.167584
0.162676
0.14778
0.148847
0.142012
0.140721
0.153086
0.156485
0.175014
0.152972
0.150772
0.16335
0.138027
0.143817
0.174853
0.17094
0.182478
0.157295
0.131339
0.137678
0.180644
0.156135
0.141951
0.155539
0.172677
0.17873
0.145132
0.145594
0.159291
0.139391
0.12783
0.164802
0.128169
0.167039
0.143201
0.134684
0.156574
0.141165
0.167
0.161739
0.134134
0.134034
0.158282
0.137173
0.147644
0.133408
0.140097
0.147635
0.16842
0.137731
0.147792
0.169234
0.148382
0.147373
0.136211
0.158071
0.150102
0.146722
0.138068
0.144889
0.153049
0.155226
0.146306
0.169519
0.145268
0.158944
0.135103
0.14834
0.142793
0.162599
0.147677
0.161246
0.175023
0.147209
0.171509
0.159223
0.150369
0.1572
0.137965
0.143011
0.149375
0.150665
0.159196
0.145193
0.145359
0.157846
0.143151
0.140103
0.136801
0.147188
0.147286
0.163253
0.132843
0.149142
0.160717
0.139262
0.135053
0.165425
0.136604
0.148515
0.147563
0.145759
0.12918
0.130647
0.146316
0.140859
0.15736
0.146508
0.15517
0.13448
0.149688
0.156452
0.147012
0.137652
0.149786
0.172456
0.150456
0.14647
0.165232
0.128022
0.131163
0.153024
0.125579
0.175044
0.154482
0.154529
0.155999
0.147412
0.138304
0.172663
0.158266
0.136309
0.16017
0.153513
0.144017
0.154449
0.142623
0.139319
0.144545
0.156788
0.171302
0.135202
0.166345
0.151015
0.135125
0.178893
0.137045
0.131437
0.138381
0.143638
0.146532
0.144475
0.154021
0.156149
0.158903
0.14002
0.141283
0.13707
0.163214
0.139052
0.127731
0.138546
0.138448
0.134534
0.150845
0.140465
0.155853
0.167889
0.146476
0.162906
0.15006
0.160662
0.15703
0.148104
0.170483
0.162063
0.135386
0.136054
0.150438
0.12907
0.1263
0.13322
0.155992
0.131336
0.127276
0.146349
0.156756
0.157224
0.158234
0.138873
0.131258
0.147548
0.143967
0.135481
0.154615
0.14119
0.158739
0.138722
0.133506
0.135019
0.133452
0.183579
0.143856
0.15516
0.155885
0.155312
0.145926
0.137656
0.151332
0.133511
0.143808
0.158718
0.1372
0.156712
0.12908
0.126969
0.150538
0.14186
0.143069
0.140648
0.154288
0.149336
0.168342
0.179586
0.162843
0.135436
0.12716
0.141377
0.141999
0.128604
0.128608
0.130542
0.146881
0.151909
0.160223
0.154024
0.145269
0.158991
0.126822
0.138786
0.143753
0.1572
0.152828
0.13768
0.143038
0.143139
0.154864
0.16289
0.137046
0.139035
0.157396
0.170169
0.165721
0.145361
0.158284
0.150411
0.153728
0.162208