/*--------------------------------*- C++ -*----------------------------------*\
| =========                 |                                                 |
| \\      /  F ield         | OpenFOAM: The Open Source CFD Toolbox           |
|  \\    /   O peration     | Version:  2212                                  |
|   \\  /    A nd           | Website:  www.openfoam.com                      |
|    \\/     M anipulation  |                                                 |
\*---------------------------------------------------------------------------*/
FoamFile
{
    version     2.0;
    format      ascii;
    arch        "LSB;label=32;scalar=64";
    class       volScalarField;
    location    "0.066";
    object      k;
}
// * * * * * * * * * * * * * * * * * * * * * * * * * * * * * * * * * * * * * //

dimensions      [0 2 -2 0 0 0 0];

internalField   nonuniform List<scalar> 
31639
(
0.00673301
0.00668479
0.00673752
0.0069377
0.00669927
0.00664795
0.00656094
0.00678444
0.00669059
0.00687137
0.00683807
0.00686642
0.00672802
0.00688253
0.0065764
0.00647515
0.00678959
0.00659417
0.0064111
0.0067816
0.00612283
0.00687879
0.00688588
0.00639396
0.00640529
0.00667482
0.0067394
0.00550384
0.00656601
0.00692405
0.0068676
0.00652257
0.00689322
0.00636986
0.00626696
0.00690847
0.00591128
0.00702001
0.0069108
0.00594387
0.00620982
0.00631364
0.00684456
0.00687373
0.00681312
0.00686654
0.00661221
0.00657657
0.00677449
0.0069193
0.00686897
0.00593051
0.00688019
0.00609626
0.00652086
0.00675003
0.00612148
0.00674242
0.00664927
0.0061295
0.00666327
0.00687839
0.00646877
0.00674607
0.00669393
0.0069287
0.00662704
0.00669813
0.00640277
0.00690839
0.00683646
0.00648514
0.00680315
0.00673864
0.00680473
0.00631665
0.00681909
0.00656144
0.00656455
0.00673828
0.00646525
0.0058781
0.00691373
0.00674133
0.00674094
0.00685342
0.00690346
0.00688389
0.00633959
0.00693591
0.00674877
0.00674064
0.00615073
0.00660078
0.00630591
0.00665286
0.00654423
0.0067163
0.00673335
0.00617618
0.0068504
0.00682982
0.00660036
0.00609507
0.00610955
0.00687255
0.00614428
0.00600093
0.00629603
0.00610972
0.00683007
0.00620116
0.00664251
0.00649979
0.00670412
0.0060653
0.00664717
0.00670633
0.00679186
0.00665255
0.00683873
0.00682463
0.00683446
0.00669658
0.00675151
0.00688506
0.00672028
0.00633373
0.00624218
0.00679154
0.00683673
0.00683675
0.0068837
0.00658753
0.00682244
0.00669164
0.00613628
0.00601918
0.0068219
0.00671249
0.00671041
0.00683262
0.0068603
0.00604556
0.00597969
0.00687225
0.00676515
0.00622864
0.00624751
0.00682208
0.0064339
0.00689494
0.00642515
0.00676377
0.00636968
0.00692622
0.00665734
0.00632766
0.00629231
0.00641937
0.00690102
0.00639749
0.0064584
0.00616063
0.00622845
0.00663972
0.00637621
0.00695332
0.00685704
0.00605631
0.00661762
0.00650427
0.00624392
0.00669147
0.00693663
0.00672764
0.00673056
0.0069388
0.0066896
0.0066994
0.00658584
0.00659397
0.00655247
0.00596152
0.00673206
0.00698166
0.00671494
0.00692621
0.00623108
0.00624082
0.00710831
0.00682456
0.00680251
0.00666822
0.00673362
0.00658981
0.00657465
0.00680997
0.00610208
0.00655085
0.00690501
0.0069531
0.00684483
0.00676753
0.00666439
0.0066194
0.00665462
0.00652196
0.0069158
0.00595832
0.00667788
0.00659548
0.00675802
0.00685455
0.00693538
0.00689858
0.00625335
0.00646492
0.0069169
0.00675966
0.00675273
0.00667976
0.00610181
0.00673747
0.0061554
0.0065413
0.00684881
0.00652698
0.00624785
0.00678293
0.00674117
0.00695832
0.006339
0.00626037
0.00676322
0.00677161
0.00608462
0.00692833
0.00645801
0.00611816
0.00659996
0.00677487
0.00667408
0.00652731
0.00649438
0.00680508
0.00659424
0.00655769
0.00625781
0.00664762
0.0065708
0.00630522
0.00654982
0.0069474
0.00680247
0.00655349
0.00631147
0.0067943
0.00683677
0.00682681
0.00690968
0.0068769
0.00664928
0.00688961
0.00659581
0.00661011
0.0060182
0.00639631
0.00689325
0.00656662
0.00653517
0.00652201
0.00669414
0.00704663
0.00695261
0.00684403
0.00617626
0.00661662
0.0064142
0.00688554
0.00664771
0.00696372
0.00689817
0.00657278
0.00621363
0.00648699
0.00633698
0.00619169
0.00688417
0.00635123
0.00680677
0.00663487
0.0064725
0.00631636
0.00700188
0.00654742
0.00664453
0.00686804
0.00672617
0.00649113
0.00660013
0.0064017
0.00671313
0.00662845
0.0062555
0.00648919
0.00653742
0.00581636
0.00599595
0.0068823
0.00687627
0.00659716
0.00609104
0.00637497
0.0068097
0.00637258
0.00624107
0.00691434
0.00705443
0.00664936
0.00687625
0.00691297
0.00627644
0.00681046
0.00610432
0.00610696
0.00699233
0.00689233
0.00689558
0.00694757
0.00682424
0.00630626
0.00666417
0.00664152
0.00690412
0.00696786
0.00695692
0.00663984
0.00653843
0.00686539
0.0067898
0.00669303
0.00663441
0.00659051
0.00659134
0.00666305
0.0067183
0.00664767
0.00628265
0.00673352
0.00690083
0.00655648
0.00682819
0.0069215
0.00668833
0.00625748
0.00667617
0.0066531
0.0060913
0.00708206
0.00638674
0.00674589
0.00667818
0.00607122
0.00668459
0.00667648
0.00618745
0.00668191
0.00629588
0.00667149
0.00689909
0.0068118
0.00601352
0.0067076
0.00630074
0.00672205
0.00685718
0.00694131
0.00695006
0.00637749
0.00683763
0.00614296
0.00660258
0.00615463
0.0069144
0.00682762
0.00688307
0.00685203
0.00635499
0.00694488
0.00664962
0.00682294
0.00663951
0.00648289
0.00662753
0.00676375
0.00681239
0.00679946
0.0066781
0.00676181
0.00659794
0.00633279
0.00665771
0.0067255
0.00677863
0.00603542
0.0068563
0.00687419
0.0066317
0.00673996
0.00677028
0.00672466
0.00691942
0.00596177
0.00673239
0.00686855
0.00603537
0.00664719
0.00676668
0.0063271
0.00617449
0.00614885
0.00653046
0.00620732
0.00665013
0.00642862
0.00652532
0.00692331
0.0062189
0.00682459
0.00689451
0.00667294
0.00685242
0.0065481
0.00690643
0.00665197
0.00677917
0.006937
0.00665023
0.00623113
0.00669893
0.00685917
0.00685826
0.00678808
0.00687481
0.00661288
0.00670028
0.00686343
0.0069505
0.00685419
0.00628386
0.00666198
0.00593421
0.00672718
0.00661923
0.0062395
0.00624552
0.00650852
0.00680676
0.0068235
0.00618095
0.00681172
0.006515
0.00664842
0.00681672
0.00561679
0.00663614
0.00613264
0.00657482
0.00687395
0.00690447
0.00684555
0.00663632
0.00607461
0.0067943
0.00670505
0.00674591
0.00613372
0.006321
0.00665147
0.00618613
0.00629157
0.00665183
0.00611784
0.00656784
0.00591723
0.00679667
0.00624215
0.00692653
0.00686112
0.00683265
0.00687853
0.00655162
0.00680854
0.00687142
0.00665665
0.00683637
0.00669552
0.00682959
0.00694432
0.00650137
0.00686123
0.00687601
0.00666314
0.0064248
0.00693343
0.00670254
0.00604272
0.00611313
0.00667361
0.00701027
0.00688263
0.00671325
0.00706582
0.00698381
0.00678671
0.00671301
0.00657671
0.00652044
0.00629238
0.00669042
0.0067937
0.0069084
0.00648553
0.00641076
0.00633576
0.00663492
0.00662542
0.00595486
0.00676083
0.00651366
0.00675864
0.00665723
0.0068648
0.00665233
0.00632667
0.00681096
0.00688235
0.00640976
0.00683349
0.00676366
0.00642623
0.00667194
0.00551143
0.00636411
0.00665642
0.00669445
0.00633562
0.00628046
0.00669939
0.00610224
0.0067589
0.00647283
0.00659273
0.00688675
0.00666157
0.00609329
0.00657034
0.00670091
0.00689406
0.00624442
0.00589614
0.00685949
0.0061368
0.00672692
0.00694317
0.00630301
0.00665716
0.00688127
0.00670967
0.00624509
0.00684871
0.00671624
0.00618319
0.00682246
0.0067121
0.00664308
0.00674135
0.00603614
0.00639974
0.00685479
0.00651993
0.00670601
0.00667095
0.00691905
0.00682015
0.00675318
0.00685405
0.0069108
0.00679871
0.00638368
0.00684158
0.00688725
0.00694297
0.00641207
0.00670753
0.0066848
0.00702972
0.00635561
0.00601213
0.00689838
0.00628121
0.006985
0.00662298
0.00627086
0.00669513
0.00687211
0.00681519
0.00672481
0.00602554
0.00675253
0.00664046
0.00609466
0.00688288
0.00684572
0.00563415
0.00623008
0.00643178
0.00650025
0.00675391
0.00672993
0.00668832
0.00668068
0.00688315
0.00667168
0.00665865
0.0062742
0.00694982
0.00613744
0.00664988
0.00658891
0.00635389
0.00693381
0.00666139
0.00641191
0.00615386
0.00621344
0.00656854
0.00685415
0.0063686
0.00691563
0.0067289
0.00686719
0.00628331
0.00659375
0.00681027
0.00692647
0.00692387
0.00681868
0.00668868
0.00669275
0.00690991
0.00692368
0.00686419
0.00647294
0.00685218
0.00625531
0.00691093
0.00678293
0.00669633
0.00634888
0.00663693
0.00590267
0.00690951
0.00676346
0.00696712
0.00662527
0.00649052
0.00618595
0.00665264
0.00612953
0.00607411
0.00630696
0.00657094
0.00623478
0.00666524
0.0061834
0.00686231
0.00675598
0.0060522
0.00692554
0.00634866
0.00634104
0.00659408
0.00645511
0.0067795
0.00690878
0.00693425
0.00683411
0.00664696
0.00673016
0.00657416
0.00655633
0.00615561
0.00508616
0.00691553
0.00662352
0.00678243
0.00686437
0.00619211
0.0068819
0.0068741
0.00682318
0.00683159
0.00679031
0.00673982
0.00696022
0.00696514
0.00672525
0.00685966
0.00684161
0.00635054
0.00686754
0.00644357
0.00677496
0.00652598
0.00661408
0.00643296
0.00696242
0.00665526
0.00670581
0.00665547
0.00641085
0.00694901
0.0067148
0.00654394
0.00635103
0.00681339
0.00609841
0.00687274
0.00678783
0.00649326
0.00687846
0.00698877
0.00687845
0.0061543
0.00674135
0.00665524
0.00674334
0.00630178
0.00688769
0.00686447
0.00658694
0.00669634
0.00657125
0.00680481
0.00647793
0.00660034
0.00612762
0.00682042
0.00673817
0.0067851
0.00653474
0.00666596
0.00677959
0.00670461
0.00652349
0.00685193
0.00682603
0.00664545
0.00610509
0.00606494
0.00666316
0.00591616
0.00617993
0.00672207
0.00674185
0.00686063
0.00607715
0.00664174
0.00690347
0.00639176
0.00611446
0.00671798
0.00630685
0.00679428
0.00642313
0.00684745
0.00641769
0.00649251
0.00695262
0.00607657
0.00656227
0.00662144
0.00685163
0.00691687
0.00688489
0.00634679
0.00675486
0.00690102
0.00653791
0.00692391
0.0068821
0.00672755
0.0066616
0.00670479
0.0069245
0.00699561
0.00694677
0.00678692
0.00647767
0.00680983
0.00668135
0.00609681
0.00659986
0.00687417
0.00688768
0.00693978
0.0066822
0.00688811
0.00689507
0.00655735
0.00685781
0.0068316
0.00672201
0.00684673
0.00620804
0.00654575
0.00674996
0.00602227
0.00673603
0.00663569
0.00664064
0.00661405
0.00694019
0.0067925
0.00685618
0.00654557
0.00679546
0.00666051
0.00691861
0.0067359
0.00658625
0.00631926
0.00687146
0.00643985
0.00659203
0.00663733
0.00664862
0.00672921
0.00691367
0.00625764
0.00687751
0.0063427
0.00678374
0.00654679
0.00660379
0.00664642
0.00687765
0.00620423
0.00676395
0.00688629
0.00692097
0.00677405
0.00662483
0.00597107
0.00680997
0.00685996
0.00672064
0.00680629
0.00687411
0.00677081
0.00688494
0.00662227
0.00633451
0.00659371
0.00691533
0.00611327
0.00635147
0.00700241
0.00684411
0.0064616
0.00660899
0.00665909
0.00642116
0.00665757
0.00639021
0.00686914
0.00690747
0.00600699
0.00672406
0.00689477
0.00687005
0.00700579
0.00665246
0.00686938
0.00637086
0.00634716
0.00687015
0.00683267
0.00670786
0.00639872
0.00684091
0.00685119
0.00650529
0.00695321
0.00688344
0.00689405
0.00677212
0.00681636
0.0067705
0.00674313
0.00662439
0.00646326
0.00621558
0.00668919
0.00669638
0.00632371
0.00688609
0.00618763
0.00660727
0.00661887
0.00629158
0.00662731
0.00649613
0.00668998
0.00663775
0.00683964
0.00630122
0.00628978
0.0065806
0.00618654
0.00651694
0.00684879
0.00664697
0.00687207
0.00675905
0.00660454
0.00694396
0.0065078
0.0067497
0.00661745
0.00662256
0.00671034
0.00631962
0.00669712
0.00682813
0.00689541
0.00694533
0.00636662
0.00618792
0.00671674
0.00685797
0.00636949
0.00657046
0.00684527
0.00663393
0.00704763
0.00659446
0.00660102
0.00683553
0.00625707
0.00685331
0.00697494
0.00632805
0.00644571
0.00668996
0.00653042
0.00692226
0.00697719
0.00683159
0.00636728
0.00685753
0.00621956
0.00660859
0.00689353
0.00658982
0.0070454
0.0060815
0.00672675
0.00673655
0.00675399
0.00613925
0.00619864
0.00681631
0.0069669
0.0065281
0.00691856
0.00678273
0.00668215
0.00624994
0.00648163
0.00678172
0.00662411
0.0066763
0.00695827
0.00692347
0.00697497
0.00693472
0.00675501
0.0067388
0.00680175
0.00639646
0.00687603
0.00679118
0.00676089
0.0067576
0.00694771
0.00664772
0.00690952
0.00660564
0.0059952
0.00697655
0.0064874
0.00683278
0.00646635
0.00689072
0.00639389
0.0067779
0.00695625
0.00660128
0.00668907
0.00610518
0.00683305
0.00684307
0.00671504
0.00619001
0.00698432
0.00660712
0.00672545
0.00688076
0.00692124
0.00684133
0.00666831
0.00670663
0.00698917
0.00639696
0.00642681
0.00632562
0.00637306
0.00674686
0.0062063
0.00692203
0.00691397
0.00700919
0.00658137
0.0064923
0.00669203
0.00684745
0.00669773
0.00670957
0.00689888
0.00692378
0.00669598
0.00689041
0.00677039
0.00658294
0.00672918
0.00647517
0.0068954
0.00689053
0.00694822
0.00698819
0.00685194
0.00645914
0.00697624
0.00673385
0.00667991
0.00660563
0.0067942
0.00688691
0.00667183
0.00684822
0.0065525
0.00668884
0.00673844
0.00640015
0.00616552
0.00654557
0.00659107
0.00692481
0.00647041
0.00618121
0.00671583
0.00687353
0.00649404
0.00648644
0.00670191
0.00693649
0.00682249
0.00660122
0.00653582
0.00670141
0.00688387
0.00651863
0.00661621
0.0066508
0.00617372
0.00654543
0.00659511
0.00680474
0.00684984
0.00663993
0.00687815
0.00679452
0.00665821
0.00665353
0.0062378
0.00639733
0.00619543
0.00687844
0.00677593
0.0070219
0.00709862
0.00670813
0.00617872
0.00690663
0.00651574
0.00672492
0.00674908
0.0068632
0.00619868
0.00685075
0.00628868
0.00672508
0.00665618
0.00663366
0.00702242
0.00659684
0.0068197
0.00637747
0.0066056
0.00661662
0.00689932
0.0064207
0.00652455
0.00682129
0.00682972
0.00680729
0.00683189
0.00692037
0.00635871
0.00669005
0.0065379
0.00649668
0.00678842
0.00697098
0.00693405
0.00685933
0.00696887
0.0063231
0.0063113
0.00634464
0.00683526
0.00618871
0.00687053
0.00675524
0.00626768
0.00653839
0.00686217
0.00686118
0.00647384
0.00652971
0.00654629
0.00676539
0.00695875
0.00659987
0.00629234
0.00675626
0.0070133
0.00682638
0.00701555
0.00692093
0.00703908
0.00693132
0.00690047
0.00641261
0.00616684
0.00670342
0.00644446
0.00696338
0.00632411
0.00678508
0.00660626
0.00696245
0.00646717
0.00685302
0.00683653
0.00675193
0.00665053
0.00630439
0.00687044
0.00654599
0.00698319
0.00665067
0.00692943
0.00691312
0.00672284
0.00620097
0.00627941
0.00665272
0.00682238
0.00640048
0.00705272
0.00634809
0.00675807
0.00680301
0.0064947
0.00679211
0.0067582
0.00692513
0.00693442
0.00689246
0.00672757
0.00672167
0.00617437
0.00646209
0.00697446
0.00640277
0.00680922
0.00666627
0.00637184
0.00664043
0.00643228
0.00665714
0.00677514
0.00684486
0.00638591
0.00666493
0.00671179
0.00633366
0.00646047
0.00668535
0.00674014
0.00680924
0.00627008
0.00623658
0.00667422
0.00657261
0.00697736
0.00699786
0.00693472
0.00655401
0.00658562
0.0067547
0.00650057
0.00673612
0.00620696
0.00670843
0.00661647
0.00696344
0.00684856
0.00668394
0.00675656
0.00695799
0.00628552
0.00677261
0.00698328
0.00658643
0.00592926
0.00664314
0.00638308
0.00668563
0.00613882
0.00688003
0.00703381
0.00695072
0.00671702
0.00620297
0.0062678
0.00686914
0.00693064
0.00690072
0.00674326
0.00666804
0.00681619
0.0069356
0.00683916
0.006108
0.00662994
0.00685206
0.00678446
0.00642632
0.00678842
0.00611642
0.00693644
0.0068871
0.00664859
0.00675676
0.00679074
0.00665911
0.00698126
0.00682216
0.0063493
0.0066251
0.00687688
0.00661374
0.00664464
0.00677436
0.00615527
0.00629881
0.00692011
0.00699288
0.00693848
0.00699402
0.00674073
0.0068837
0.00671179
0.00678148
0.00678789
0.00690877
0.00648786
0.00663707
0.00654965
0.00668658
0.00686512
0.00605027
0.00671729
0.00615805
0.00689652
0.00617567
0.00607744
0.00664434
0.00610786
0.00678587
0.00672937
0.00687674
0.00691886
0.00651661
0.00641821
0.00692018
0.00656651
0.00628849
0.00670079
0.0064074
0.00693877
0.00678424
0.00671147
0.00634413
0.00683895
0.0068098
0.00691755
0.00617202
0.00653786
0.00678151
0.00675769
0.00704388
0.00630348
0.00627342
0.00686882
0.00678548
0.00694216
0.00669782
0.00605014
0.00676381
0.00685353
0.0061945
0.00612883
0.00692112
0.00634051
0.006357
0.00688752
0.00697722
0.00686594
0.00701036
0.00667518
0.00656908
0.0069304
0.00639228
0.00691648
0.0064994
0.00660839
0.00687423
0.00665637
0.00619954
0.00686962
0.00686049
0.0065257
0.00668053
0.00668002
0.00649203
0.00598144
0.00668671
0.00672945
0.00682418
0.0065349
0.00665096
0.00623673
0.00684205
0.00697486
0.00610672
0.00674269
0.00679184
0.0059908
0.00621362
0.00674873
0.00667609
0.00688966
0.00658645
0.00633886
0.00683708
0.00691209
0.00686008
0.00677643
0.0069327
0.00626244
0.00694337
0.00670864
0.00634059
0.00622452
0.00588224
0.00630665
0.00674863
0.00661417
0.00679927
0.00664662
0.00636631
0.00646251
0.00614751
0.0061001
0.00693731
0.00692498
0.00640232
0.00692225
0.00693337
0.00633552
0.00668505
0.00669602
0.00647214
0.00653567
0.00690927
0.00648152
0.00609042
0.00691547
0.00690743
0.00654757
0.00696585
0.00652212
0.00637484
0.00634434
0.00652127
0.0061123
0.00634976
0.00679475
0.0067585
0.00659827
0.00687569
0.00695276
0.00664343
0.00675773
0.00466307
0.0065383
0.00626322
0.00657742
0.00684132
0.00666619
0.00644872
0.00663264
0.00635584
0.00679604
0.00666369
0.00645797
0.00628647
0.00603221
0.0060529
0.00658021
0.00630155
0.00662267
0.00629744
0.00655723
0.00688598
0.00665562
0.00655218
0.00671541
0.00681319
0.00669644
0.00682394
0.00614881
0.00670212
0.00689174
0.00693497
0.00659105
0.00701615
0.00643345
0.00678306
0.00666261
0.00619781
0.00689781
0.00691758
0.00676071
0.00667785
0.00681348
0.00673144
0.00601202
0.00608348
0.00661518
0.00696797
0.00666271
0.00690296
0.00650821
0.00658507
0.006345
0.00625207
0.00626779
0.00621396
0.00678115
0.0067744
0.00681431
0.0065576
0.00652157
0.00702414
0.00635666
0.00663565
0.00698011
0.00685322
0.00648084
0.0066063
0.00683113
0.00684854
0.00687943
0.00583258
0.00675983
0.00686566
0.00664549
0.0066257
0.00690071
0.00679445
0.0069271
0.0067811
0.00643229
0.00676573
0.0068811
0.00675636
0.00657373
0.00629901
0.00690457
0.00690855
0.00685992
0.00688922
0.00607813
0.0059124
0.00661062
0.00681178
0.00654971
0.00677791
0.00683023
0.00684985
0.00686352
0.00652797
0.00683454
0.00669131
0.00686037
0.00637229
0.00635848
0.00661947
0.00695625
0.0063517
0.00685482
0.00628687
0.00659786
0.0067065
0.00701413
0.00665658
0.00690465
0.0069721
0.00682876
0.0067067
0.00681781
0.00667967
0.00651246
0.0060566
0.00700701
0.00584007
0.00625676
0.00572897
0.00606782
0.0061493
0.00659541
0.00677692
0.00629474
0.00648538
0.00596481
0.00632735
0.00639859
0.00695236
0.00618227
0.00620355
0.0068221
0.00618124
0.00648062
0.00666086
0.00684557
0.00653108
0.00619998
0.00602094
0.00640983
0.00701496
0.00638628
0.00612258
0.00678269
0.00648566
0.00673006
0.00668596
0.00634904
0.00684133
0.00604206
0.00618027
0.00651684
0.00684029
0.00652884
0.00659251
0.00659052
0.00663667
0.00602063
0.00637745
0.0066058
0.00675588
0.006847
0.00624741
0.00593201
0.00654647
0.00696082
0.00665586
0.00672641
0.00631994
0.00662603
0.00670057
0.00623042
0.00692424
0.00647395
0.00619553
0.00596609
0.00680264
0.00667867
0.00690918
0.00667591
0.00688515
0.00626994
0.00655665
0.00606417
0.00597106
0.00684907
0.00633519
0.00666181
0.00671699
0.00636385
0.00619221
0.00692677
0.00686894
0.00695776
0.00674264
0.00580983
0.00663447
0.0060072
0.00688539
0.00632021
0.00688676
0.00596388
0.00681766
0.0067906
0.00644678
0.00648073
0.0060585
0.00644149
0.00666514
0.00677981
0.00676505
0.00696088
0.00679656
0.00634448
0.00694338
0.00592484
0.00674013
0.00678152
0.00690139
0.00683604
0.0064739
0.00694549
0.00661256
0.0064974
0.00646676
0.00668428
0.00681021
0.00642823
0.00619622
0.00691901
0.00679015
0.00657154
0.00683431
0.00676341
0.00677612
0.0067684
0.00681757
0.00680412
0.00660638
0.0066466
0.00687328
0.00681208
0.00596003
0.00667564
0.00631586
0.00695603
0.00680529
0.00691438
0.00618463
0.0061909
0.00669789
0.00667704
0.00666321
0.00672524
0.00685335
0.00660642
0.00677683
0.006305
0.00674177
0.00656621
0.00693111
0.0068408
0.00691405
0.00674564
0.00691847
0.00647062
0.00688076
0.0063829
0.00661677
0.00651898
0.00673796
0.00661208
0.00680236
0.0061312
0.00690218
0.00673355
0.0065443
0.00621808
0.00686426
0.00669873
0.00683203
0.00662799
0.00668112
0.00686859
0.00620783
0.00689189
0.00664277
0.00669552
0.00637349
0.00644624
0.00651852
0.0061735
0.00652806
0.00702289
0.00673738
0.00589574
0.00667502
0.0061764
0.00673259
0.0067902
0.00607323
0.00610421
0.00646205
0.0066932
0.00685646
0.00650504
0.0065359
0.00663681
0.00592968
0.00654513
0.00689705
0.00684275
0.00688669
0.00660468
0.00681543
0.00630706
0.00634045
0.00699948
0.00667964
0.00677458
0.00678406
0.0069154
0.00668841
0.00666201
0.00608396
0.00667389
0.00688279
0.00642968
0.00682868
0.00677938
0.00674256
0.00630735
0.00669938
0.00656118
0.00585512
0.00677449
0.00643212
0.00624287
0.00673049
0.00667963
0.00681236
0.00682813
0.00674622
0.00701588
0.00587703
0.0064884
0.00680694
0.00690906
0.00600729
0.00679052
0.00628512
0.00640359
0.00694822
0.00633607
0.00674785
0.00698211
0.00679914
0.00603446
0.00678945
0.00631661
0.00686303
0.00678935
0.0068005
0.00690409
0.00675197
0.00684788
0.00621008
0.00669357
0.0068535
0.00623841
0.0067765
0.00671109
0.0064992
0.00684722
0.00648001
0.00689628
0.00692314
0.0069295
0.00662785
0.0067777
0.00674418
0.00674309
0.0064844
0.00642306
0.00618552
0.00609405
0.00675689
0.00685258
0.00668775
0.00696336
0.00637223
0.00695018
0.00608145
0.00699664
0.00696537
0.00684468
0.00694322
0.00645517
0.00604652
0.00663136
0.00625352
0.00691529
0.00664884
0.00610873
0.00655695
0.00702388
0.00675176
0.00619512
0.00639941
0.0060715
0.00700859
0.00621943
0.00685619
0.00638965
0.00637797
0.00689322
0.00689985
0.00690257
0.00676916
0.00602402
0.00663469
0.00690257
0.00627897
0.00697272
0.00654095
0.00701302
0.00586344
0.00670759
0.0063509
0.00662331
0.00642158
0.00658696
0.0065087
0.00636234
0.0065949
0.00661701
0.00659941
0.00653547
0.00697592
0.00622061
0.006675
0.00661503
0.00674663
0.00692491
0.00634484
0.0068521
0.00623439
0.00663773
0.00687566
0.00676267
0.00659591
0.00675312
0.00676682
0.00634258
0.00666753
0.00657862
0.00616148
0.00616666
0.00682024
0.00683255
0.00628674
0.00657375
0.00681701
0.00626601
0.00674729
0.00637771
0.00678759
0.00694793
0.00662374
0.00623821
0.00683333
0.00606301
0.006744
0.0069649
0.00583335
0.0070603
0.00623838
0.00654045
0.00639363
0.00624662
0.00660123
0.00650806
0.00609889
0.00690477
0.00687979
0.00581039
0.00651665
0.00661746
0.00666634
0.00679795
0.00696262
0.00683959
0.00643471
0.00638285
0.00606847
0.00601539
0.00543032
0.00692428
0.00666238
0.00675067
0.00682731
0.00622072
0.00611355
0.00663003
0.00685226
0.00609956
0.00684796
0.00666856
0.00662931
0.00676834
0.00649664
0.0067087
0.0065683
0.00662532
0.00690269
0.00581839
0.0066815
0.00660577
0.00687809
0.00667689
0.00686198
0.00668309
0.00628338
0.00695618
0.00709967
0.00668166
0.0065558
0.00623911
0.00650986
0.00675416
0.00689667
0.00655629
0.00660486
0.00651243
0.00600006
0.00644418
0.00691712
0.00647345
0.00708838
0.00665725
0.00643787
0.00687145
0.00618493
0.00676546
0.00619164
0.00690812
0.00675165
0.00650057
0.00703002
0.0064884
0.00664842
0.00686061
0.00655943
0.00670496
0.00647524
0.00679484
0.00620725
0.00668253
0.00665954
0.00624634
0.00684834
0.00653136
0.00643873
0.00690313
0.00629257
0.00693582
0.00657315
0.0068455
0.00630083
0.00670738
0.00624899
0.00618454
0.00682869
0.00628823
0.00657787
0.00681919
0.00599446
0.00655068
0.00677447
0.00650343
0.00613073
0.00642937
0.00661253
0.00651106
0.00666666
0.00659546
0.00676257
0.00641533
0.00684033
0.00593544
0.00604426
0.00692662
0.00646376
0.00599178
0.00611546
0.0066459
0.00544032
0.00618242
0.00666122
0.0066667
0.00704393
0.0063045
0.00688729
0.00685842
0.00686742
0.0068987
0.00696154
0.00655913
0.00652199
0.00685848
0.00650212
0.00650997
0.00671297
0.00651049
0.00593717
0.00619743
0.00653847
0.00563674
0.00676265
0.00681221
0.00653089
0.00683619
0.00689069
0.0066225
0.0070916
0.00633811
0.0060726
0.00656631
0.0065753
0.006741
0.00650666
0.00667498
0.00689976
0.00651389
0.00640288
0.00665248
0.00699039
0.0068156
0.00700305
0.00678518
0.00657231
0.00664163
0.00641639
0.00637153
0.00698872
0.00645561
0.00697651
0.00654788
0.00685872
0.00582439
0.00673772
0.00666992
0.00664805
0.00637716
0.00678858
0.00664727
0.00685944
0.00589794
0.00643844
0.00666898
0.00647427
0.00667067
0.00665169
0.00670288
0.00687189
0.00664589
0.00602724
0.00638742
0.00619255
0.00666631
0.00664926
0.00623585
0.00701521
0.0067416
0.00667661
0.00685421
0.00634424
0.00621421
0.00696229
0.00618626
0.00609023
0.00586239
0.00595385
0.00589535
0.0064779
0.0069555
0.00691593
0.00658227
0.00666588
0.00675683
0.00644155
0.00676988
0.00609301
0.00689762
0.00450716
0.00674325
0.00617547
0.00600585
0.00680192
0.00620472
0.0067487
0.00677804
0.0068511
0.00626402
0.00674631
0.00660987
0.00669214
0.00619491
0.00686951
0.00672483
0.00688102
0.00677313
0.0062425
0.00661593
0.00668687
0.00645598
0.00583707
0.00639054
0.00637486
0.00612869
0.00619325
0.00668695
0.00641015
0.00614211
0.00640747
0.00677036
0.00688348
0.00692458
0.00478121
0.00609718
0.0068287
0.00612542
0.00671882
0.00600994
0.00696355
0.0067237
0.00681075
0.00622789
0.00663205
0.00690493
0.00689513
0.00670113
0.00681635
0.00668398
0.00660106
0.00665562
0.00616992
0.00664807
0.00643865
0.00642582
0.0064279
0.00596561
0.00664177
0.00689008
0.00622219
0.00639955
0.00617728
0.00681328
0.00675838
0.00603093
0.0065297
0.0066806
0.00670806
0.0061669
0.00666143
0.00669926
0.00706744
0.00563274
0.00668296
0.00660316
0.00612308
0.00694135
0.00638124
0.0062855
0.00672103
0.0069771
0.00615823
0.00687578
0.00674559
0.00609236
0.00608622
0.00680286
0.00693171
0.00617144
0.0067408
0.00606285
0.00642756
0.00691387
0.00633224
0.00672945
0.00661009
0.00701342
0.00654426
0.00650316
0.006363
0.00652515
0.00668634
0.0064637
0.00681365
0.00622405
0.0062018
0.00671095
0.00652637
0.0068513
0.00647042
0.00685116
0.00671869
0.00676249
0.00686368
0.00675129
0.00651864
0.00623163
0.00679948
0.00660823
0.00650494
0.00671258
0.00696995
0.00681559
0.0064595
0.00617882
0.00666426
0.0062684
0.00598537
0.00640519
0.00652822
0.00592381
0.00674782
0.00628122
0.00569603
0.00614417
0.00665466
0.00581194
0.00655842
0.00679676
0.00662127
0.00602087
0.00664096
0.00704517
0.0061917
0.00594931
0.00630588
0.00674266
0.00665867
0.00656547
0.00681545
0.00617013
0.00685257
0.00670467
0.00694934
0.00683863
0.00461182
0.00670538
0.00669163
0.00671434
0.00637226
0.00661905
0.00583185
0.006537
0.00693437
0.00646191
0.0060823
0.00654105
0.00677127
0.00677051
0.00594671
0.00668245
0.0068651
0.0069564
0.00665106
0.00668475
0.00604946
0.00604894
0.00603532
0.00667792
0.00659475
0.00673952
0.00701141
0.00678667
0.00578367
0.0068975
0.00682482
0.00688243
0.00649736
0.00691371
0.0062593
0.00632724
0.00649972
0.00659083
0.00632613
0.00603402
0.00672464
0.00635653
0.00681303
0.00636328
0.00568329
0.00650743
0.00670829
0.00655113
0.00615488
0.0063025
0.00677609
0.00684842
0.00637076
0.00656565
0.00674866
0.00692199
0.006761
0.00698138
0.00675884
0.00676656
0.0059511
0.00666353
0.00626285
0.0068334
0.0065766
0.00643257
0.00607869
0.00693485
0.00596851
0.00643759
0.00602737
0.00640211
0.0057868
0.00655635
0.00664309
0.00664084
0.00641617
0.00639446
0.00681636
0.00615506
0.00675496
0.00638855
0.00658153
0.00581744
0.00678235
0.00653587
0.00627271
0.00638177
0.00660577
0.00653267
0.00656321
0.0053009
0.0066835
0.00650952
0.00654215
0.00627376
0.00645757
0.00644145
0.00539459
0.00674322
0.00661482
0.00382162
0.00631349
0.0068458
0.00673179
0.00678345
0.00634642
0.00569879
0.00685646
0.00626694
0.00685218
0.00698363
0.0065369
0.00633534
0.00690502
0.00602116
0.00579968
0.00585557
0.00662704
0.00662418
0.00630905
0.00696605
0.00678983
0.00668307
0.00629892
0.00595015
0.00698526
0.0067215
0.00702638
0.0067826
0.0060711
0.00643884
0.00651789
0.00620524
0.00661755
0.00649582
0.00664818
0.00705627
0.00652832
0.0066405
0.00623934
0.00641845
0.00638979
0.00660061
0.00652238
0.00601547
0.00623552
0.00660582
0.0067759
0.00616758
0.00666182
0.00636741
0.00683894
0.0061452
0.00621441
0.00545276
0.00687254
0.00686408
0.00673376
0.00669285
0.00645177
0.0061273
0.00609174
0.00561256
0.0065359
0.00607218
0.00650263
0.00643236
0.00674707
0.00646127
0.00677353
0.00619692
0.00391699
0.00619514
0.00680379
0.00438402
0.00664837
0.00701647
0.00646788
0.00699111
0.00614397
0.00628469
0.00623527
0.00693103
0.00517084
0.00684017
0.00623151
0.00567575
0.00685075
0.00630509
0.00689291
0.00405825
0.00595728
0.0066232
0.00676601
0.00694637
0.00674829
0.00689365
0.00677315
0.00678261
0.0068787
0.00675767
0.00665795
0.00637435
0.00543792
0.00677165
0.00636378
0.00641423
0.00684491
0.00680291
0.00655751
0.00597175
0.0069604
0.00679598
0.00653433
0.0060978
0.00608464
0.00672696
0.00678224
0.00691311
0.00680349
0.00655005
0.00673895
0.00611921
0.00674411
0.00657335
0.0067955
0.00637549
0.00612317
0.00565377
0.00654765
0.00703852
0.00678279
0.00641898
0.00629791
0.00654923
0.00610708
0.00601159
0.00670136
0.00638077
0.00490033
0.00530447
0.00569189
0.00605173
0.0065629
0.0064143
0.00647575
0.0064802
0.00587997
0.00649245
0.00686021
0.00579532
0.0070577
0.0059479
0.0067853
0.00625015
0.00684741
0.00662783
0.006742
0.00675874
0.00635816
0.00613264
0.00629805
0.00633884
0.00675264
0.00657952
0.00628009
0.00622024
0.00659526
0.00597519
0.0066073
0.00629318
0.00678032
0.00634517
0.00654328
0.00492864
0.00689004
0.0069389
0.00662737
0.00681393
0.0065803
0.0065431
0.00659535
0.00670445
0.00674477
0.00682345
0.00677117
0.00596384
0.00592069
0.00704262
0.00613572
0.0059348
0.00589044
0.00651916
0.00682057
0.00652855
0.00700062
0.00700036
0.00680087
0.00683388
0.00650012
0.00613216
0.00643021
0.00548589
0.0067067
0.00651966
0.0064201
0.00647849
0.00631322
0.00646156
0.00689316
0.00586759
0.00630189
0.00648899
0.0059124
0.00677959
0.00563452
0.00580266
0.00599485
0.00657038
0.00624748
0.0060041
0.00627507
0.00610319
0.00651395
0.0055775
0.00553401
0.00645333
0.00608853
0.00580323
0.00654624
0.00606754
0.00638172
0.00644499
0.00625665
0.00600483
0.00650023
0.00616339
0.00625269
0.00596192
0.0064176
0.00627633
0.00565313
0.00677256
0.00647116
0.00649165
0.00622748
0.00622454
0.00597306
0.00659179
0.0065423
0.00685116
0.00664135
0.00662982
0.00641481
0.00668536
0.00679868
0.00663162
0.00514914
0.00542941
0.00584303
0.00672686
0.00594345
0.00671997
0.00524392
0.00631177
0.00662781
0.00618702
0.00640088
0.00640522
0.00638825
0.00643561
0.00692305
0.00622878
0.00634994
0.00687026
0.00570775