/*--------------------------------*- C++ -*----------------------------------*\
| =========                 |                                                 |
| \\      /  F ield         | OpenFOAM: The Open Source CFD Toolbox           |
|  \\    /   O peration     | Version:  2212                                  |
|   \\  /    A nd           | Website:  www.openfoam.com                      |
|    \\/     M anipulation  |                                                 |
\*---------------------------------------------------------------------------*/
FoamFile
{
    version     2.0;
    format      ascii;
    arch        "LSB;label=32;scalar=64";
    class       volScalarField;
    location    "0.066";
    object      nut;
}
// * * * * * * * * * * * * * * * * * * * * * * * * * * * * * * * * * * * * * //

dimensions      [0 2 -1 0 0 0 0];

internalField   nonuniform List<scalar> 
31639
(
2.54606e-05
2.47869e-05
2.51025e-05
2.77728e-05
2.45188e-05
2.38999e-05
2.27972e-05
2.56298e-05
2.48565e-05
2.69014e-05
2.63324e-05
2.6813e-05
2.53529e-05
2.71896e-05
2.3916e-05
2.19394e-05
2.57433e-05
2.33015e-05
2.19341e-05
2.51883e-05
1.83262e-05
2.68104e-05
2.70624e-05
2.18847e-05
2.13299e-05
2.45931e-05
2.49474e-05
2.05195e-05
2.29996e-05
2.72969e-05
2.7012e-05
2.25334e-05
2.73923e-05
2.12234e-05
1.96796e-05
2.71759e-05
1.689e-05
2.81962e-05
2.71746e-05
1.6318e-05
1.94786e-05
1.96121e-05
2.67609e-05
2.65725e-05
2.59834e-05
2.69183e-05
2.40138e-05
2.35646e-05
2.58467e-05
2.75571e-05
2.68891e-05
1.67356e-05
2.70942e-05
1.77392e-05
2.3054e-05
2.51413e-05
1.81874e-05
2.51037e-05
2.45708e-05
1.85137e-05
2.47186e-05
2.63972e-05
2.1589e-05
2.48795e-05
2.52145e-05
2.76859e-05
2.4486e-05
2.49934e-05
2.07008e-05
2.74962e-05
2.66102e-05
2.29529e-05
2.63781e-05
2.52074e-05
2.64528e-05
1.98333e-05
2.66027e-05
2.32014e-05
2.39203e-05
2.55724e-05
2.17507e-05
1.59302e-05
2.72881e-05
2.54761e-05
2.57211e-05
2.67148e-05
2.73766e-05
2.71659e-05
2.05035e-05
2.76658e-05
2.54036e-05
2.49975e-05
1.87689e-05
2.40742e-05
2.08351e-05
2.42828e-05
2.35653e-05
2.50305e-05
2.52813e-05
1.87149e-05
2.68787e-05
2.65878e-05
2.41943e-05
1.82009e-05
1.84597e-05
2.70547e-05
1.83166e-05
1.70763e-05
2.07286e-05
1.78708e-05
2.654e-05
1.88438e-05
2.41606e-05
2.26955e-05
2.50888e-05
1.76129e-05
2.39512e-05
2.4172e-05
2.58121e-05
2.4512e-05
2.62957e-05
2.64896e-05
2.65989e-05
2.50394e-05
2.50312e-05
2.69567e-05
2.49645e-05
2.09904e-05
2.02474e-05
2.63284e-05
2.69975e-05
2.67328e-05
2.69985e-05
2.32277e-05
2.63274e-05
2.49731e-05
1.86497e-05
1.75256e-05
2.6539e-05
2.50327e-05
2.49637e-05
2.66544e-05
2.68104e-05
1.77376e-05
1.68302e-05
2.69645e-05
2.59214e-05
1.9274e-05
1.93983e-05
2.65922e-05
2.10167e-05
2.60145e-05
2.20244e-05
2.57377e-05
2.01885e-05
2.75969e-05
2.44467e-05
1.99741e-05
1.97336e-05
2.18243e-05
2.7212e-05
2.02622e-05
2.12829e-05
1.83391e-05
1.87982e-05
2.45005e-05
2.00654e-05
2.76337e-05
2.6755e-05
1.80902e-05
2.41006e-05
2.30229e-05
1.93258e-05
2.50764e-05
2.76639e-05
2.56092e-05
2.52967e-05
2.74454e-05
2.5041e-05
2.51189e-05
2.39277e-05
2.34768e-05
2.36225e-05
1.66935e-05
2.48952e-05
2.79513e-05
2.50886e-05
2.74563e-05
1.89029e-05
1.89498e-05
2.84882e-05
2.62421e-05
2.59323e-05
2.45842e-05
2.51754e-05
2.33322e-05
2.31291e-05
2.64794e-05
1.83239e-05
2.31953e-05
2.70379e-05
2.76137e-05
2.66788e-05
2.6041e-05
2.40413e-05
2.42618e-05
2.43416e-05
2.35905e-05
2.70928e-05
1.66185e-05
2.46382e-05
2.34229e-05
2.55613e-05
2.65728e-05
2.65312e-05
2.72912e-05
1.94237e-05
2.20434e-05
2.67869e-05
2.59226e-05
2.59424e-05
2.42503e-05
1.83092e-05
2.43966e-05
1.85668e-05
2.29365e-05
2.64128e-05
2.21173e-05
1.93541e-05
2.56893e-05
2.55773e-05
2.76896e-05
2.02019e-05
1.88543e-05
2.55163e-05
2.58708e-05
1.81652e-05
2.75143e-05
2.13096e-05
1.82214e-05
2.40734e-05
2.56629e-05
2.45542e-05
2.20888e-05
2.17534e-05
2.57044e-05
2.41137e-05
2.37232e-05
1.9394e-05
2.44975e-05
2.37977e-05
1.95677e-05
2.22587e-05
2.75042e-05
2.61299e-05
2.28983e-05
1.98784e-05
2.61942e-05
2.64057e-05
2.48797e-05
2.7587e-05
2.70695e-05
2.42998e-05
2.70731e-05
2.39842e-05
2.34504e-05
1.77838e-05
2.16992e-05
2.73216e-05
2.37342e-05
2.54856e-05
2.251e-05
2.44984e-05
2.76136e-05
2.78146e-05
2.54869e-05
1.87085e-05
2.36244e-05
2.12432e-05
2.70064e-05
2.39251e-05
2.76312e-05
2.72865e-05
2.32367e-05
1.92656e-05
2.1303e-05
2.00785e-05
1.82755e-05
2.70293e-05
2.05334e-05
2.56194e-05
2.43045e-05
2.22207e-05
2.00852e-05
2.795e-05
2.27791e-05
2.25489e-05
2.67343e-05
2.48918e-05
2.15142e-05
2.40677e-05
2.08344e-05
2.49556e-05
2.42425e-05
1.92912e-05
2.26637e-05
2.34244e-05
1.58845e-05
1.72125e-05
2.70136e-05
2.71634e-05
2.5912e-05
1.81207e-05
2.02002e-05
2.63517e-05
2.0677e-05
2.02804e-05
2.7201e-05
2.79845e-05
2.43692e-05
2.6816e-05
2.74892e-05
1.96663e-05
2.65604e-05
1.78522e-05
1.77427e-05
2.73876e-05
2.70837e-05
2.71328e-05
2.77445e-05
2.62756e-05
2.01029e-05
2.47644e-05
2.44108e-05
2.70396e-05
2.76109e-05
2.8e-05
2.43372e-05
2.33782e-05
2.6239e-05
2.62399e-05
2.52248e-05
2.43424e-05
2.37973e-05
2.40728e-05
2.42559e-05
2.53131e-05
2.43709e-05
1.96282e-05
2.49402e-05
2.73529e-05
2.31916e-05
2.62551e-05
2.7469e-05
2.46861e-05
1.92612e-05
2.45817e-05
2.44579e-05
1.80881e-05
2.84168e-05
2.04771e-05
2.51234e-05
2.62763e-05
1.7427e-05
2.47282e-05
2.45779e-05
1.88847e-05
2.47739e-05
1.98666e-05
2.43178e-05
2.70981e-05
2.56725e-05
1.72405e-05
2.5166e-05
1.99754e-05
2.52777e-05
2.68976e-05
2.73111e-05
2.71167e-05
2.04414e-05
2.65035e-05
1.84384e-05
2.40696e-05
1.80836e-05
2.74286e-05
2.65644e-05
2.71225e-05
2.68743e-05
2.12907e-05
2.71152e-05
2.45202e-05
2.59958e-05
2.43298e-05
2.06186e-05
2.41571e-05
2.58033e-05
2.62905e-05
2.61311e-05
2.45859e-05
2.61073e-05
2.35437e-05
1.98494e-05
2.38452e-05
2.53578e-05
2.59442e-05
1.73042e-05
2.68797e-05
2.69431e-05
2.42778e-05
2.56242e-05
2.60571e-05
2.47225e-05
2.74024e-05
1.84167e-05
2.53953e-05
2.67804e-05
1.75444e-05
2.43876e-05
2.55488e-05
2.0078e-05
1.8697e-05
1.85713e-05
2.24806e-05
1.86697e-05
2.42317e-05
2.39109e-05
2.2551e-05
2.69685e-05
1.90417e-05
2.64409e-05
2.7284e-05
2.46523e-05
2.65539e-05
2.3157e-05
2.70645e-05
2.42706e-05
2.48886e-05
2.76695e-05
2.46008e-05
1.914e-05
2.48306e-05
2.67642e-05
2.68781e-05
2.58264e-05
2.70964e-05
2.40037e-05
2.52253e-05
2.647e-05
2.75026e-05
2.63472e-05
1.96405e-05
2.42622e-05
1.66565e-05
2.37471e-05
2.41848e-05
1.89973e-05
1.85384e-05
2.2592e-05
2.61801e-05
2.64056e-05
1.88683e-05
2.60469e-05
2.22631e-05
2.44914e-05
2.60361e-05
1.87476e-05
2.43002e-05
1.7857e-05
2.38212e-05
2.70054e-05
2.72798e-05
2.64974e-05
2.37637e-05
1.80914e-05
2.57512e-05
2.50578e-05
2.58705e-05
1.81161e-05
1.96342e-05
2.44451e-05
1.87328e-05
1.99889e-05
2.46275e-05
1.8002e-05
2.32966e-05
1.78743e-05
2.57311e-05
1.91877e-05
2.75599e-05
2.67308e-05
2.65768e-05
2.69684e-05
2.20489e-05
2.64623e-05
2.69134e-05
2.46708e-05
2.63428e-05
2.49743e-05
2.66762e-05
2.69285e-05
2.21853e-05
2.67159e-05
2.70741e-05
2.45912e-05
2.18997e-05
2.76737e-05
2.49082e-05
1.73575e-05
1.77126e-05
2.46841e-05
2.78404e-05
2.72115e-05
2.47221e-05
2.80106e-05
2.71861e-05
2.61204e-05
2.49995e-05
2.33245e-05
2.31052e-05
1.9803e-05
2.47872e-05
2.55014e-05
2.73287e-05
2.1244e-05
2.09908e-05
2.0421e-05
2.41669e-05
2.42749e-05
1.68756e-05
2.54891e-05
2.2227e-05
2.56964e-05
2.41477e-05
2.68827e-05
2.39912e-05
1.99259e-05
2.61333e-05
2.72944e-05
2.09763e-05
2.65676e-05
2.71863e-05
2.39327e-05
2.448e-05
2.05155e-05
2.05871e-05
2.45248e-05
2.4794e-05
2.01061e-05
1.96222e-05
2.48892e-05
2.07453e-05
2.56822e-05
2.134e-05
2.36087e-05
2.70552e-05
2.45122e-05
1.83421e-05
2.23255e-05
2.49628e-05
2.72517e-05
1.91249e-05
1.63956e-05
2.65693e-05
1.83089e-05
2.52778e-05
2.76433e-05
1.95043e-05
2.4596e-05
2.64969e-05
2.43393e-05
1.87949e-05
2.6821e-05
2.44161e-05
1.92029e-05
2.66051e-05
2.52226e-05
2.434e-05
2.57392e-05
1.73086e-05
2.15626e-05
2.59417e-05
2.26444e-05
2.29569e-05
2.36879e-05
2.64382e-05
2.65502e-05
2.57656e-05
2.66412e-05
2.73176e-05
2.62136e-05
2.12126e-05
2.66148e-05
2.69269e-05
2.72852e-05
2.10446e-05
2.49708e-05
2.46154e-05
2.84192e-05
2.02117e-05
1.71578e-05
2.7386e-05
2.02699e-05
2.81851e-05
2.4062e-05
1.96591e-05
2.47898e-05
2.68994e-05
2.54249e-05
2.52353e-05
1.78249e-05
2.59243e-05
2.46005e-05
1.76494e-05
2.70046e-05
2.65818e-05
2.03988e-05
1.91646e-05
2.04884e-05
2.23503e-05
2.54748e-05
2.50334e-05
2.44937e-05
2.48286e-05
2.69339e-05
2.45576e-05
2.4293e-05
1.93985e-05
2.78355e-05
1.80881e-05
2.4626e-05
2.32729e-05
2.23486e-05
2.74874e-05
2.47733e-05
2.11384e-05
1.84188e-05
1.89364e-05
2.32223e-05
2.68416e-05
2.09499e-05
2.75304e-05
2.43634e-05
2.69138e-05
1.9538e-05
2.3792e-05
2.60912e-05
2.782e-05
2.73498e-05
2.65583e-05
2.49776e-05
2.46184e-05
2.74597e-05
2.74258e-05
2.67776e-05
2.14893e-05
2.67295e-05
1.94769e-05
2.70438e-05
2.50514e-05
2.47112e-05
2.03063e-05
2.41749e-05
1.65428e-05
2.73891e-05
2.49526e-05
2.76211e-05
2.43312e-05
2.30256e-05
1.91949e-05
2.67282e-05
1.83928e-05
1.71549e-05
1.97408e-05
2.17364e-05
1.9224e-05
2.42299e-05
1.83397e-05
2.69469e-05
2.53148e-05
1.73088e-05
2.72682e-05
2.00379e-05
2.13677e-05
2.39629e-05
2.23539e-05
2.57475e-05
2.74351e-05
2.79085e-05
2.6422e-05
2.41675e-05
2.53919e-05
2.30584e-05
2.31085e-05
1.84763e-05
1.40097e-05
2.74352e-05
2.41737e-05
2.60264e-05
2.6763e-05
1.88324e-05
2.69558e-05
2.68612e-05
2.6437e-05
2.65246e-05
2.61427e-05
2.53628e-05
2.77337e-05
2.78539e-05
2.48694e-05
2.66791e-05
2.65502e-05
2.02086e-05
2.67873e-05
2.20929e-05
2.5402e-05
2.34275e-05
2.43263e-05
2.17357e-05
2.75655e-05
2.45488e-05
2.48288e-05
2.38301e-05
2.05324e-05
2.77445e-05
2.49798e-05
2.26907e-05
1.9771e-05
2.63666e-05
1.8144e-05
2.71345e-05
2.59016e-05
2.31243e-05
2.62298e-05
2.80896e-05
2.65556e-05
1.83933e-05
2.54484e-05
2.36452e-05
2.46543e-05
2.0167e-05
2.70937e-05
2.67758e-05
2.37093e-05
2.46725e-05
2.38265e-05
2.58226e-05
2.2451e-05
2.38031e-05
1.80429e-05
2.64799e-05
2.53535e-05
2.63835e-05
2.17115e-05
2.46744e-05
2.56957e-05
2.46745e-05
2.23712e-05
2.65272e-05
2.64951e-05
2.41167e-05
1.81157e-05
1.77813e-05
2.44436e-05
1.69002e-05
1.96078e-05
2.49336e-05
2.52707e-05
2.70016e-05
1.78192e-05
2.43877e-05
2.729e-05
2.06352e-05
1.84765e-05
2.53967e-05
2.00529e-05
2.53994e-05
2.08076e-05
2.63951e-05
2.1305e-05
2.22914e-05
2.76395e-05
1.78513e-05
2.36087e-05
2.40742e-05
2.66213e-05
2.71457e-05
2.72675e-05
1.99089e-05
2.5913e-05
2.69108e-05
2.26297e-05
2.75253e-05
2.68168e-05
2.51244e-05
2.63783e-05
2.50212e-05
2.72181e-05
2.80629e-05
2.74605e-05
2.59774e-05
2.25816e-05
2.58435e-05
2.48069e-05
1.84748e-05
2.38687e-05
2.62747e-05
2.70193e-05
2.70296e-05
2.43881e-05
2.72083e-05
2.70551e-05
2.40787e-05
2.66911e-05
2.66685e-05
2.56884e-05
2.62378e-05
1.89601e-05
2.31515e-05
2.5857e-05
1.70076e-05
2.49899e-05
2.4112e-05
2.37025e-05
2.39363e-05
2.76683e-05
2.61048e-05
2.68382e-05
2.34135e-05
2.60468e-05
2.47251e-05
2.69646e-05
2.51981e-05
2.31191e-05
1.97616e-05
2.67965e-05
2.01973e-05
2.35219e-05
2.37959e-05
2.4202e-05
2.52913e-05
2.75528e-05
1.9258e-05
2.67599e-05
2.01981e-05
2.59077e-05
2.26458e-05
2.39451e-05
2.42227e-05
2.71565e-05
1.8993e-05
2.60045e-05
2.70696e-05
2.67094e-05
2.52188e-05
2.40859e-05
1.70239e-05
2.64199e-05
2.64966e-05
2.52214e-05
2.64718e-05
2.70749e-05
2.57259e-05
2.59706e-05
2.4914e-05
2.03469e-05
2.3493e-05
2.74433e-05
1.84176e-05
2.06969e-05
2.79367e-05
2.68072e-05
2.21718e-05
2.34648e-05
2.39563e-05
2.15981e-05
2.44437e-05
2.10438e-05
2.6833e-05
2.69342e-05
1.69254e-05
2.51175e-05
2.73513e-05
2.65431e-05
2.73392e-05
2.47272e-05
2.69119e-05
2.04758e-05
2.03547e-05
2.7326e-05
2.66341e-05
2.49976e-05
2.07845e-05
2.65795e-05
2.6623e-05
2.16277e-05
2.72627e-05
2.70895e-05
2.70946e-05
2.55902e-05
2.64533e-05
2.51511e-05
2.55598e-05
2.44051e-05
2.22656e-05
1.91726e-05
2.50314e-05
2.50553e-05
2.03393e-05
2.71979e-05
1.85713e-05
2.3814e-05
2.38173e-05
1.95798e-05
2.38958e-05
2.25738e-05
2.51756e-05
2.4191e-05
2.63522e-05
1.9403e-05
1.92196e-05
2.34955e-05
1.89179e-05
2.32248e-05
2.68664e-05
2.42998e-05
2.69345e-05
2.43881e-05
2.41764e-05
2.71841e-05
2.25637e-05
2.48118e-05
2.43199e-05
2.42119e-05
2.48668e-05
2.00544e-05
2.47634e-05
2.60413e-05
2.73979e-05
2.76754e-05
1.96282e-05
1.88216e-05
2.48795e-05
2.69938e-05
2.09541e-05
2.34886e-05
2.59065e-05
2.44096e-05
2.8403e-05
2.35733e-05
2.39119e-05
2.58089e-05
1.94383e-05
2.67182e-05
2.71772e-05
2.00213e-05
2.17049e-05
2.49866e-05
2.27438e-05
2.73702e-05
2.76843e-05
2.56329e-05
2.03081e-05
2.68284e-05
1.91217e-05
2.37084e-05
2.65104e-05
2.25946e-05
2.80097e-05
1.79089e-05
2.5105e-05
2.56174e-05
2.49589e-05
1.79279e-05
1.89303e-05
2.66804e-05
2.74875e-05
2.26489e-05
2.75218e-05
2.54869e-05
2.46916e-05
1.90334e-05
2.11562e-05
2.52314e-05
2.41026e-05
2.45088e-05
2.76527e-05
2.7683e-05
2.75903e-05
2.77498e-05
2.53228e-05
2.50613e-05
2.62053e-05
1.99395e-05
2.65079e-05
2.59934e-05
2.55742e-05
2.52092e-05
2.72532e-05
2.37173e-05
2.73842e-05
2.3813e-05
1.7181e-05
2.7879e-05
2.16696e-05
2.66086e-05
2.23092e-05
2.73081e-05
2.02644e-05
2.59108e-05
2.77286e-05
2.38429e-05
2.48309e-05
1.80368e-05
2.66637e-05
2.6608e-05
2.57534e-05
1.88542e-05
2.8131e-05
2.39081e-05
2.57007e-05
2.66034e-05
2.70982e-05
2.64701e-05
2.47582e-05
2.40034e-05
2.75646e-05
2.03867e-05
2.05092e-05
1.97731e-05
2.1087e-05
2.53055e-05
1.88415e-05
2.74506e-05
2.70843e-05
2.74286e-05
2.3509e-05
2.33655e-05
2.47225e-05
2.6454e-05
2.48119e-05
2.40559e-05
2.71169e-05
2.64551e-05
2.36867e-05
2.71675e-05
2.55751e-05
2.36756e-05
2.55489e-05
2.20452e-05
2.70189e-05
2.70611e-05
2.77687e-05
2.77134e-05
2.65449e-05
2.20753e-05
2.77587e-05
2.48757e-05
2.46543e-05
2.40784e-05
2.55722e-05
2.72602e-05
2.46787e-05
2.65438e-05
2.3083e-05
2.4511e-05
2.54368e-05
2.05147e-05
1.82571e-05
2.41884e-05
2.28853e-05
2.70348e-05
2.21947e-05
1.86171e-05
2.48715e-05
2.68368e-05
2.17413e-05
2.23792e-05
2.49571e-05
2.76018e-05
2.64957e-05
2.3861e-05
2.16179e-05
2.47787e-05
2.63016e-05
2.26959e-05
2.42517e-05
2.44552e-05
1.81031e-05
2.25001e-05
2.29639e-05
2.57251e-05
2.62668e-05
2.42609e-05
2.66077e-05
2.57344e-05
2.44295e-05
2.44044e-05
1.98658e-05
2.15077e-05
1.80971e-05
2.63054e-05
2.55079e-05
2.79776e-05
2.89757e-05
2.59869e-05
1.88181e-05
2.65843e-05
2.27468e-05
2.50549e-05
2.54863e-05
2.67747e-05
1.87915e-05
2.72628e-05
1.96611e-05
2.51761e-05
2.4456e-05
2.42655e-05
2.78393e-05
2.31832e-05
2.56873e-05
2.07828e-05
2.39715e-05
2.35763e-05
2.67372e-05
2.19736e-05
2.12358e-05
2.65425e-05
2.62528e-05
2.57649e-05
2.64175e-05
2.71047e-05
2.01887e-05
2.39621e-05
2.34763e-05
2.14183e-05
2.62497e-05
2.73495e-05
2.76081e-05
2.70206e-05
2.79253e-05
1.97242e-05
1.94009e-05
2.0169e-05
2.67529e-05
1.85816e-05
2.69096e-05
2.55077e-05
1.97516e-05
2.27773e-05
2.65718e-05
2.68148e-05
2.19734e-05
2.27615e-05
2.35738e-05
2.55611e-05
2.74356e-05
2.40248e-05
2.01396e-05
2.51346e-05
2.76347e-05
2.63389e-05
2.7687e-05
2.74173e-05
2.85309e-05
2.75315e-05
2.66048e-05
2.03876e-05
1.84362e-05
2.48202e-05
2.18458e-05
2.72319e-05
1.92674e-05
2.59045e-05
2.39697e-05
2.79189e-05
2.091e-05
2.60668e-05
2.62507e-05
2.51786e-05
2.35525e-05
1.97359e-05
2.67957e-05
2.20486e-05
2.72239e-05
2.43332e-05
2.76245e-05
2.77083e-05
2.50212e-05
1.85014e-05
1.93577e-05
2.42228e-05
2.55155e-05
2.193e-05
2.81263e-05
1.95797e-05
2.72259e-05
2.62152e-05
2.23631e-05
2.59695e-05
2.66163e-05
2.70181e-05
2.76103e-05
2.70404e-05
2.51663e-05
2.52274e-05
1.8392e-05
2.22794e-05
2.783e-05
2.03861e-05
2.61118e-05
2.41785e-05
2.07195e-05
2.44594e-05
2.5996e-05
2.44446e-05
2.60332e-05
2.6601e-05
1.98546e-05
2.42622e-05
2.49077e-05
1.99092e-05
2.22929e-05
2.46388e-05
2.45278e-05
2.61227e-05
1.9748e-05
1.94036e-05
2.45203e-05
2.32692e-05
2.81549e-05
2.80787e-05
2.76271e-05
2.3677e-05
2.41015e-05
2.54333e-05
2.35576e-05
2.60416e-05
1.9675e-05
2.49532e-05
2.39375e-05
2.76528e-05
2.6246e-05
2.3813e-05
2.49359e-05
2.72981e-05
1.94028e-05
2.52878e-05
2.77218e-05
2.38377e-05
1.62885e-05
2.42958e-05
1.99319e-05
2.49983e-05
1.79202e-05
2.67416e-05
2.82954e-05
2.70027e-05
2.51422e-05
1.96419e-05
1.9657e-05
2.67584e-05
2.7093e-05
2.67864e-05
2.52297e-05
2.37352e-05
2.64573e-05
2.72166e-05
2.66174e-05
1.82897e-05
2.30637e-05
2.65897e-05
2.59676e-05
2.27657e-05
2.54594e-05
1.83898e-05
2.7268e-05
2.70162e-05
2.47448e-05
2.54307e-05
2.57951e-05
2.4555e-05
2.78889e-05
2.62427e-05
2.02939e-05
2.42391e-05
2.66215e-05
2.41175e-05
2.43387e-05
2.57427e-05
1.79295e-05
2.04348e-05
2.73629e-05
2.74752e-05
2.70471e-05
2.77245e-05
2.55593e-05
2.71047e-05
2.50427e-05
2.51909e-05
2.60354e-05
2.71439e-05
2.22106e-05
2.39049e-05
2.35125e-05
2.47465e-05
2.67829e-05
1.75322e-05
2.50289e-05
1.87152e-05
2.70586e-05
1.87555e-05
1.84322e-05
2.45078e-05
1.80167e-05
2.45913e-05
2.52909e-05
2.69737e-05
2.73639e-05
2.24982e-05
2.22368e-05
2.78391e-05
2.21806e-05
2.00423e-05
2.40085e-05
2.1395e-05
2.75002e-05
2.58919e-05
2.50388e-05
1.97105e-05
2.62201e-05
2.63389e-05
2.74299e-05
1.89945e-05
2.16332e-05
2.52578e-05
2.54859e-05
2.80653e-05
2.048e-05
1.96822e-05
2.58195e-05
2.46652e-05
2.76974e-05
2.53027e-05
1.77025e-05
2.56454e-05
2.65057e-05
1.92459e-05
1.79177e-05
2.72348e-05
2.0694e-05
2.07082e-05
2.72657e-05
2.7433e-05
2.70327e-05
2.82774e-05
2.50357e-05
2.31809e-05
2.73522e-05
2.15753e-05
2.7466e-05
2.23215e-05
2.52312e-05
2.67561e-05
2.44544e-05
1.91047e-05
2.70144e-05
2.71471e-05
2.30698e-05
2.45284e-05
2.47029e-05
2.1626e-05
2.32288e-05
2.50273e-05
2.44626e-05
2.69129e-05
2.29293e-05
2.59466e-05
1.9247e-05
2.64581e-05
2.77193e-05
1.81598e-05
2.58652e-05
2.53327e-05
1.69377e-05
1.91192e-05
2.52026e-05
2.48465e-05
2.67793e-05
2.3081e-05
2.01969e-05
2.66333e-05
2.72742e-05
2.67055e-05
2.57432e-05
2.7768e-05
1.93459e-05
2.73179e-05
2.47915e-05
1.9953e-05
1.9257e-05
1.5947e-05
2.01641e-05
2.5833e-05
2.33156e-05
2.55752e-05
2.50576e-05
2.13079e-05
2.21825e-05
1.81064e-05
1.7876e-05
2.76022e-05
2.74885e-05
2.06e-05
2.71233e-05
2.6912e-05
1.99666e-05
2.44251e-05
2.45503e-05
2.13217e-05
2.31172e-05
2.76356e-05
2.13044e-05
1.77683e-05
2.7537e-05
2.70518e-05
2.22009e-05
2.72675e-05
2.22993e-05
2.09621e-05
2.00127e-05
2.40389e-05
1.89449e-05
1.98465e-05
2.54397e-05
2.60541e-05
2.39233e-05
2.62681e-05
2.73724e-05
2.43516e-05
2.64625e-05
1.34652e-05
2.41091e-05
1.9594e-05
2.48211e-05
2.65215e-05
2.45836e-05
2.20633e-05
2.45716e-05
2.04864e-05
2.60015e-05
2.44758e-05
2.22907e-05
1.94521e-05
1.75972e-05
1.71964e-05
2.30933e-05
1.96114e-05
2.38658e-05
2.00325e-05
2.31408e-05
2.71063e-05
2.50867e-05
2.32633e-05
2.51631e-05
2.59446e-05
2.43984e-05
2.65415e-05
1.82038e-05
2.50079e-05
2.72883e-05
2.76564e-05
2.39614e-05
2.84063e-05
2.12492e-05
2.54761e-05
2.43143e-05
1.88955e-05
2.65328e-05
2.75689e-05
2.59632e-05
2.61716e-05
2.63407e-05
2.51139e-05
1.72233e-05
1.81625e-05
2.40562e-05
2.78813e-05
2.44813e-05
2.72614e-05
2.2473e-05
2.33787e-05
2.04182e-05
1.89982e-05
1.91502e-05
1.84898e-05
2.5929e-05
2.54421e-05
2.71847e-05
2.3675e-05
2.28309e-05
2.81375e-05
1.93419e-05
2.50615e-05
2.73807e-05
2.66943e-05
2.28859e-05
2.41698e-05
2.65437e-05
2.67625e-05
2.68479e-05
2.06735e-05
2.51545e-05
2.67978e-05
2.5448e-05
2.4813e-05
2.71492e-05
2.58785e-05
2.74508e-05
2.59222e-05
2.17313e-05
2.58159e-05
2.66984e-05
2.59074e-05
2.43763e-05
1.93485e-05
2.73331e-05
2.70822e-05
2.66768e-05
2.71771e-05
1.82942e-05
1.64804e-05
2.40773e-05
2.617e-05
2.26317e-05
2.60741e-05
2.67849e-05
2.71075e-05
2.71167e-05
2.26886e-05
2.6191e-05
2.45867e-05
2.66141e-05
1.96275e-05
1.96177e-05
2.383e-05
2.70757e-05
2.03768e-05
2.66822e-05
1.96537e-05
2.35441e-05
2.47397e-05
2.75164e-05
2.38911e-05
2.75596e-05
2.71667e-05
2.61443e-05
2.51741e-05
2.61687e-05
2.47821e-05
2.25306e-05
1.74674e-05
2.80324e-05
1.57423e-05
1.83436e-05
2.0651e-05
1.81543e-05
1.82901e-05
2.37615e-05
2.52885e-05
1.97903e-05
2.23747e-05
1.6558e-05
2.01617e-05
2.29582e-05
2.71691e-05
1.85963e-05
1.87383e-05
2.65329e-05
1.86293e-05
2.34765e-05
2.55049e-05
2.55781e-05
2.42003e-05
1.9531e-05
1.79876e-05
2.23128e-05
2.7894e-05
2.09575e-05
1.86957e-05
2.51796e-05
2.20545e-05
2.51668e-05
2.47351e-05
1.97656e-05
2.65312e-05
1.7737e-05
1.86207e-05
2.29958e-05
2.6615e-05
2.25544e-05
2.32324e-05
2.34413e-05
2.52265e-05
1.73343e-05
2.06531e-05
2.38481e-05
2.71582e-05
2.63851e-05
1.87891e-05
1.6603e-05
2.30802e-05
2.81285e-05
2.45412e-05
2.47306e-05
2.19233e-05
2.45885e-05
2.50301e-05
1.94859e-05
2.74774e-05
2.21363e-05
1.90999e-05
1.68663e-05
2.64089e-05
2.47476e-05
2.74121e-05
2.49669e-05
2.69342e-05
1.95042e-05
2.32015e-05
1.76307e-05
1.63018e-05
2.59905e-05
1.99841e-05
2.34091e-05
2.49951e-05
2.52121e-05
1.89092e-05
2.74113e-05
2.66964e-05
2.78298e-05
2.54933e-05
1.54468e-05
2.45647e-05
1.76768e-05
2.69845e-05
1.94795e-05
2.71417e-05
1.67141e-05
2.56758e-05
2.51992e-05
2.183e-05
2.24294e-05
1.74622e-05
2.16991e-05
2.47e-05
2.61114e-05
2.57822e-05
2.74176e-05
2.63133e-05
1.98446e-05
2.758e-05
2.33487e-05
2.52335e-05
2.58669e-05
2.69723e-05
2.63551e-05
2.46865e-05
2.73765e-05
2.35874e-05
2.23319e-05
2.21328e-05
2.54091e-05
2.64171e-05
2.18661e-05
1.99047e-05
2.682e-05
2.51313e-05
2.44357e-05
2.7484e-05
2.54629e-05
2.52175e-05
2.52333e-05
2.66104e-05
2.645e-05
2.48189e-05
2.39741e-05
2.67879e-05
2.59928e-05
2.11863e-05
2.48292e-05
2.1331e-05
2.72345e-05
2.54055e-05
2.75672e-05
1.93878e-05
1.92335e-05
2.49491e-05
2.62151e-05
2.57915e-05
2.71242e-05
2.6749e-05
2.43075e-05
2.60746e-05
2.00948e-05
2.41793e-05
2.45934e-05
2.72623e-05
2.66912e-05
2.74231e-05
2.43917e-05
2.76402e-05
2.09862e-05
2.71529e-05
2.15856e-05
2.42258e-05
2.28737e-05
2.5138e-05
2.44769e-05
2.62617e-05
1.85986e-05
2.69996e-05
2.62624e-05
2.35911e-05
1.94005e-05
2.69755e-05
2.57803e-05
2.65232e-05
2.43627e-05
2.47642e-05
2.63925e-05
1.90768e-05
2.73321e-05
2.38138e-05
2.48756e-05
2.10546e-05
2.18839e-05
2.15563e-05
1.853e-05
2.26259e-05
2.80752e-05
2.49046e-05
1.74932e-05
2.42677e-05
1.87572e-05
2.50072e-05
2.54455e-05
1.75466e-05
1.84938e-05
2.18315e-05
2.47812e-05
2.63364e-05
2.26411e-05
2.64538e-05
2.38669e-05
2.17061e-05
2.22725e-05
2.73668e-05
2.67638e-05
2.68937e-05
2.63916e-05
2.55766e-05
1.92798e-05
2.02802e-05
2.76734e-05
2.3622e-05
2.48327e-05
2.61236e-05
2.76029e-05
2.51079e-05
2.57575e-05
1.79271e-05
2.64698e-05
2.70937e-05
2.24132e-05
2.71378e-05
2.67157e-05
2.52668e-05
2.29813e-05
2.5845e-05
2.28618e-05
1.71925e-05
2.51585e-05
2.02746e-05
1.8633e-05
2.47624e-05
2.46432e-05
2.57019e-05
2.59381e-05
2.53121e-05
2.75952e-05
1.62475e-05
2.24087e-05
2.70756e-05
2.71145e-05
1.75425e-05
2.50956e-05
2.04345e-05
2.26025e-05
2.75795e-05
2.15134e-05
2.55861e-05
2.77286e-05
2.60917e-05
1.76661e-05
2.61658e-05
1.94868e-05
2.72452e-05
2.62075e-05
2.59566e-05
2.75843e-05
2.54255e-05
2.70421e-05
1.90348e-05
2.64961e-05
2.6804e-05
2.03807e-05
2.59526e-05
2.46567e-05
2.25697e-05
2.6539e-05
2.30338e-05
2.69837e-05
2.74472e-05
2.79014e-05
2.44633e-05
2.63873e-05
2.47727e-05
2.61323e-05
2.13583e-05
2.25802e-05
1.88236e-05
1.82517e-05
2.52952e-05
2.60439e-05
2.47018e-05
2.74735e-05
2.37637e-05
2.75802e-05
1.80035e-05
2.75383e-05
2.77856e-05
2.59718e-05
2.77507e-05
2.07343e-05
1.75563e-05
2.41996e-05
1.88244e-05
2.73783e-05
2.48165e-05
1.77896e-05
2.342e-05
2.79332e-05
2.51334e-05
1.88405e-05
2.1092e-05
1.77376e-05
2.80602e-05
1.85854e-05
2.65633e-05
2.26896e-05
1.97021e-05
2.68561e-05
2.70482e-05
2.71175e-05
2.63376e-05
1.86479e-05
2.51439e-05
2.70085e-05
2.02346e-05
2.73359e-05
2.45113e-05
2.75054e-05
1.72815e-05
2.64509e-05
2.23076e-05
2.52192e-05
2.21333e-05
2.41767e-05
2.28623e-05
2.17941e-05
2.32737e-05
2.35557e-05
2.58219e-05
2.41698e-05
2.77389e-05
2.00949e-05
2.45064e-05
2.4476e-05
2.63043e-05
2.69538e-05
1.93176e-05
2.70777e-05
1.98734e-05
2.47005e-05
2.70585e-05
2.66605e-05
2.31915e-05
2.55188e-05
2.56594e-05
2.23352e-05
2.47694e-05
2.35315e-05
1.87128e-05
1.89325e-05
2.56844e-05
2.65402e-05
2.42856e-05
2.3011e-05
2.6637e-05
1.96034e-05
2.53866e-05
1.99727e-05
2.61685e-05
2.75838e-05
2.48148e-05
1.91958e-05
2.65355e-05
1.82428e-05
2.54428e-05
2.70815e-05
1.76297e-05
2.8001e-05
2.00461e-05
2.2554e-05
2.30571e-05
1.93135e-05
2.30513e-05
2.32255e-05
1.76165e-05
2.64969e-05
2.68681e-05
1.59579e-05
2.24562e-05
2.60153e-05
2.42401e-05
2.54928e-05
2.77054e-05
2.64611e-05
2.37878e-05
2.13552e-05
1.78476e-05
1.72064e-05
2.04809e-05
2.75945e-05
2.67594e-05
2.58812e-05
2.62976e-05
1.94323e-05
1.8732e-05
2.42988e-05
2.63003e-05
1.77845e-05
2.62123e-05
2.50093e-05
2.33186e-05
2.60272e-05
2.29389e-05
2.61827e-05
2.20669e-05
2.38712e-05
2.70078e-05
1.56039e-05
2.56931e-05
2.63641e-05
2.6872e-05
2.55974e-05
2.68972e-05
2.46865e-05
1.92466e-05
2.7594e-05
2.84386e-05
2.51588e-05
2.44603e-05
2.27212e-05
2.44173e-05
2.56537e-05
2.66177e-05
2.47645e-05
2.39941e-05
2.37873e-05
1.79398e-05
2.27218e-05
2.75547e-05
2.551e-05
2.86805e-05
2.45582e-05
2.29661e-05
2.7197e-05
1.91472e-05
2.61041e-05
1.90678e-05
2.70564e-05
2.56443e-05
2.2966e-05
2.79995e-05
2.25244e-05
2.42044e-05
2.7149e-05
2.34287e-05
2.7195e-05
2.60345e-05
2.60886e-05
1.86696e-05
2.47305e-05
2.45499e-05
2.05004e-05
2.67893e-05
2.36114e-05
2.35225e-05
2.73029e-05
1.95046e-05
2.73868e-05
2.4537e-05
2.69213e-05
2.18066e-05
2.49531e-05
1.87579e-05
1.94041e-05
2.75548e-05
1.9614e-05
2.43855e-05
2.62928e-05
1.82299e-05
2.37556e-05
2.66081e-05
2.23542e-05
1.97501e-05
2.14914e-05
2.35084e-05
2.30418e-05
2.61178e-05
2.3283e-05
2.64892e-05
2.47938e-05
2.66395e-05
1.70863e-05
2.05285e-05
2.73754e-05
2.39736e-05
1.79664e-05
1.96024e-05
2.42699e-05
1.98245e-05
1.90578e-05
2.46056e-05
2.42249e-05
2.82366e-05
2.33774e-05
2.69454e-05
2.66595e-05
2.59742e-05
2.70109e-05
2.70392e-05
2.31678e-05
2.25821e-05
2.68567e-05
2.38938e-05
2.33034e-05
2.67461e-05
2.45591e-05
1.79226e-05
1.88654e-05
2.34847e-05
2.03711e-05
2.55795e-05
2.65246e-05
2.40508e-05
2.68915e-05
2.67861e-05
2.61444e-05
2.84455e-05
2.32815e-05
1.89608e-05
2.34017e-05
2.33229e-05
2.63921e-05
2.38011e-05
2.56623e-05
2.6947e-05
2.3496e-05
2.23539e-05
2.49178e-05
2.74112e-05
2.59364e-05
2.8268e-05
2.57254e-05
2.28805e-05
2.33967e-05
2.08564e-05
2.20407e-05
2.75237e-05
2.10428e-05
2.78117e-05
2.32815e-05
2.68221e-05
1.86837e-05
2.58661e-05
2.48634e-05
2.64424e-05
2.42643e-05
2.56803e-05
2.44521e-05
2.69205e-05
1.83568e-05
2.03775e-05
2.47467e-05
2.29547e-05
2.49948e-05
2.45453e-05
2.48619e-05
2.7024e-05
2.44556e-05
1.75595e-05
2.14784e-05
1.89569e-05
2.49173e-05
2.43215e-05
1.9432e-05
2.82786e-05
2.47223e-05
2.39659e-05
2.6459e-05
2.07644e-05
1.95932e-05
2.78772e-05
1.96416e-05
1.8464e-05
2.33906e-05
2.29609e-05
1.95158e-05
2.18171e-05
2.74347e-05
2.70446e-05
2.29358e-05
2.50204e-05
2.65615e-05
2.44259e-05
2.61185e-05
1.80229e-05
2.71507e-05
1.26532e-05
2.65463e-05
1.9408e-05
1.8562e-05
2.65377e-05
1.86966e-05
2.43207e-05
2.51534e-05
2.66583e-05
2.25942e-05
2.63112e-05
2.36583e-05
2.44935e-05
2.33346e-05
2.6115e-05
2.51194e-05
2.69648e-05
2.49472e-05
1.95636e-05
2.61334e-05
2.47071e-05
2.44016e-05
2.35403e-05
2.06584e-05
2.25166e-05
1.83232e-05
1.89974e-05
2.47536e-05
2.36145e-05
2.01507e-05
2.25957e-05
2.62935e-05
2.7536e-05
2.7055e-05
1.30504e-05
1.77622e-05
2.70629e-05
1.84073e-05
2.56828e-05
1.79077e-05
2.71197e-05
2.62e-05
2.66076e-05
1.93001e-05
2.38256e-05
2.73409e-05
2.71815e-05
2.51043e-05
2.72236e-05
2.43877e-05
2.48008e-05
2.44072e-05
1.89577e-05
2.45049e-05
2.19128e-05
2.45014e-05
2.41324e-05
2.01601e-05
2.40544e-05
2.72539e-05
2.1156e-05
2.17668e-05
1.89273e-05
2.68396e-05
2.63924e-05
1.73169e-05
2.41272e-05
2.46654e-05
2.52962e-05
1.90513e-05
2.46985e-05
2.43055e-05
2.79851e-05
1.91538e-05
2.40289e-05
2.41412e-05
1.75247e-05
2.69946e-05
1.9968e-05
1.96888e-05
2.48769e-05
2.75807e-05
1.82706e-05
2.6707e-05
2.55697e-05
2.45911e-05
1.76753e-05
2.72697e-05
2.75614e-05
1.79268e-05
2.4903e-05
1.71731e-05
2.0173e-05
2.72035e-05
2.29262e-05
2.4819e-05
2.61561e-05
2.79003e-05
2.3725e-05
2.25933e-05
2.39152e-05
2.35942e-05
2.46527e-05
2.25754e-05
2.71972e-05
1.95017e-05
2.31521e-05
2.44786e-05
2.30195e-05
2.6623e-05
2.41133e-05
2.59268e-05
2.58265e-05
2.49521e-05
2.72861e-05
2.58786e-05
2.3075e-05
2.14616e-05
2.62231e-05
2.38782e-05
2.32068e-05
2.5625e-05
2.75857e-05
2.60412e-05
2.6116e-05
2.29074e-05
2.59651e-05
2.15478e-05
1.87628e-05
2.43128e-05
2.51048e-05
1.82887e-05
2.54541e-05
2.40967e-05
1.60813e-05
1.89121e-05
2.58911e-05
1.90021e-05
2.34768e-05
2.61677e-05
2.51592e-05
1.86621e-05
2.48831e-05
2.79474e-05
1.96501e-05
1.88978e-05
1.96302e-05
2.69877e-05
2.4599e-05
2.38754e-05
2.66192e-05
1.87983e-05
2.58804e-05
2.49592e-05
2.75286e-05
2.72665e-05
1.37582e-05
2.48611e-05
2.53833e-05
2.56877e-05
2.44659e-05
2.44214e-05
2.1134e-05
2.48143e-05
2.77298e-05
2.1825e-05
1.75843e-05
2.26885e-05
2.69021e-05
2.5855e-05
1.81102e-05
2.34597e-05
2.6636e-05
2.72835e-05
2.43524e-05
2.39654e-05
1.70995e-05
1.90935e-05
1.90131e-05
2.46278e-05
2.3668e-05
2.50624e-05
2.79846e-05
2.67849e-05
2.11385e-05
2.69274e-05
2.69536e-05
2.61843e-05
2.24466e-05
2.70076e-05
2.37246e-05
2.00772e-05
2.23484e-05
2.41081e-05
2.53574e-05
2.2385e-05
2.54378e-05
2.23351e-05
2.68078e-05
1.96589e-05
1.73618e-05
2.3498e-05
2.72012e-05
2.58373e-05
2.21378e-05
2.29139e-05
2.60907e-05
2.70025e-05
2.24075e-05
2.33464e-05
2.66716e-05
2.75992e-05
2.60194e-05
2.75469e-05
2.62576e-05
2.65469e-05
1.77713e-05
2.3424e-05
1.88989e-05
2.56211e-05
2.68592e-05
2.23325e-05
1.8689e-05
2.71767e-05
1.86776e-05
2.16348e-05
1.97422e-05
2.39386e-05
1.82877e-05
2.55851e-05
2.4473e-05
2.4097e-05
2.40828e-05
2.05989e-05
2.71958e-05
1.93626e-05
2.57485e-05
2.43253e-05
2.37831e-05
1.85833e-05
2.64093e-05
2.54974e-05
2.01914e-05
2.09034e-05
2.35186e-05
2.30512e-05
2.36717e-05
1.8097e-05
2.50659e-05
2.27774e-05
2.47512e-05
2.15629e-05
2.21351e-05
2.19091e-05
1.86677e-05
2.61319e-05
2.42913e-05
6.71856e-06
1.97687e-05
2.51088e-05
2.69128e-05
2.63737e-05
2.05032e-05
2.07556e-05
2.71517e-05
1.92508e-05
2.66768e-05
2.7452e-05
2.44726e-05
1.96845e-05
2.71784e-05
1.85304e-05
1.72761e-05
1.70972e-05
2.55801e-05
2.40757e-05
2.18475e-05
2.75585e-05
2.60224e-05
2.48836e-05
1.98741e-05
1.65153e-05
2.77954e-05
2.47395e-05
2.78578e-05
2.71585e-05
1.8629e-05
2.39079e-05
2.28154e-05
2.37579e-05
2.42398e-05
2.23925e-05
2.33227e-05
2.84141e-05
2.466e-05
2.29498e-05
1.9544e-05
2.50561e-05
2.40659e-05
2.54278e-05
2.28347e-05
1.84009e-05
1.93815e-05
2.50487e-05
2.58348e-05
2.26545e-05