/*--------------------------------*- C++ -*----------------------------------*\
| =========                 |                                                 |
| \\      /  F ield         | OpenFOAM: The Open Source CFD Toolbox           |
|  \\    /   O peration     | Version:  2212                                  |
|   \\  /    A nd           | Website:  www.openfoam.com                      |
|    \\/     M anipulation  |                                                 |
\*---------------------------------------------------------------------------*/
FoamFile
{
    version     2.0;
    format      ascii;
    arch        "LSB;label=32;scalar=64";
    class       volScalarField;
    location    "0.066";
    object      p;
}
// * * * * * * * * * * * * * * * * * * * * * * * * * * * * * * * * * * * * * //

dimensions      [0 2 -2 0 0 0 0];

internalField   nonuniform List<scalar> 
31639
(
0.0105972
0.00735207
0.0121032
0.00537198
0.00744723
0.0103618
0.0116345
0.0110614
0.00785329
0.00670535
0.0115017
0.0074867
0.00778594
0.0101293
0.00881712
0.0123798
0.0143483
0.0146617
0.00240048
0.0112736
0.00822174
0.00633954
0.00861711
0.00532332
0.00925435
0.010951
0.0106457
0.033692
0.0111342
0.0111072
0.00595269
0.0158561
0.00792519
0.00428038
0.019358
0.0110433
0.00634818
0.0115668
0.0115482
0.00943478
0.00752768
0.0108077
0.00843714
0.0117048
0.0120712
0.0050233
0.00757182
0.00596038
0.0130051
0.00543363
0.00501011
0.00400076
0.0197993
0.0119941
0.00392348
0.0146428
0.00642491
0.0107413
0.00736648
0.00513458
0.00562509
0.0107975
0.00896958
0.011049
0.0195046
0.00317661
0.0019432
0.00617298
0.00767935
0.00478012
0.00678509
0.0144682
0.00663347
0.00286501
0.0198418
0.0157071
0.00681308
0.00630248
0.0073043
0.00695219
0.0105596
0.0101531
0.009992
0.00554199
0.00987609
0.00913491
0.00843472
0.00596689
0.00197538
0.00792604
0.00451576
0.0144042
0.00525421
0.00701383
0.00336294
0.0106615
0.00571808
0.00404486
0.00769996
0.0102135
0.0180448
0.0182674
0.00929461
0.00706679
0.00391582
0.00487483
0.0104193
0.00514209
0.00600069
0.00934407
0.0115897
0.0100631
0.0107882
0.00634864
0.00281315
0.0112686
0.019569
0.0119725
0.0170934
0.0056611
0.0159974
0.00488821
0.00254192
0.00539383
0.0103112
0.0101629
0.00727778
0.00548637
0.00669647
0.00811016
0.0191741
0.00084059
0.012253
0.00287577
0.00345527
0.0061364
0.00642049
0.00701092
0.00504524
0.00562274
0.00556478
0.00830364
0.00906082
0.00518463
0.00754349
0.00986303
0.018325
0.00643401
0.00952696
0.0196588
0.0057555
0.0131714
0.00410902
0.00371096
0.00481553
0.0036563
0.00270743
0.0067435
0.0128392
0.00610819
0.00334758
0.0145322
0.00655359
0.0107768
0.0152867
0.0153293
0.0120603
0.0134351
0.00423335
0.00295692
0.0140143
0.0101257
0.013709
0.00787853
0.0097947
0.00656196
0.0088842
0.0159852
0.00616089
0.00929913
0.00768932
0.0126927
0.0108437
0.0112673
0.0113103
0.0110791
0.0131877
0.00931883
0.0101316
0.012583
0.0127937
0.00665792
0.0130291
0.00394525
0.0045169
0.00467973
0.00451039
0.00717078
0.00460615
0.011441
0.00957478
0.0145503
0.0127357
0.0135814
0.00656839
0.00544105
0.00226858
0.00384088
0.0162561
0.00440565
0.00442052
0.00940689
0.0183475
0.00978505
0.0117827
0.00987913
0.00986801
0.0098557
0.0138401
0.00738889
0.00764393
0.00943044
0.00997825
0.0137754
0.0120448
0.00684909
0.0123953
0.0121771
0.00860801
0.0157932
0.00414757
0.0114403
0.0145256
0.0125964
0.0128642
0.00216066
0.00198038
0.0131218
0.0108449
0.00391521
0.00553588
0.0118299
0.0137667
0.0129646
0.00572684
0.014715
0.00436459
0.0152694
0.0125401
0.00219462
0.00063215
0.00501342
0.012861
0.0147718
0.0071633
0.00765128
0.0107578
0.00327604
0.0106075
0.0122357
0.00512826
0.00411273
0.00718471
0.0101355
0.00723123
0.00982723
0.00161475
0.0186111
0.011733
0.0104544
0.0238841
0.00491025
0.0106605
0.0132034
0.0063405
0.0124375
0.00453669
0.0138707
0.00618057
0.00503378
0.0155361
0.0159455
0.0158633
0.0210743
0.0113833
0.0114504
0.0138742
0.0132332
0.00250462
0.0128841
0.0143015
0.00114162
0.00411311
0.00409589
0.0120617
0.00354837
0.0142269
0.00191902
0.00563968
0.00655977
0.00608155
0.0138712
0.00438217
0.00391959
0.00877469
0.0035314
0.0100349
0.00231002
0.00845094
0.0139203
0.00586124
0.023271
0.0185922
0.00825979
0.00757009
0.0106685
0.00204645
0.0160753
0.0124526
0.0122578
0.0117718
0.00491006
0.0179594
0.00360456
0.00969154
0.0130874
0.0117804
0.0132411
0.00427005
0.00493354
0.00511655
0.00535694
0.0141981
0.00402081
0.014611
0.0193872
0.0198209
0.00613955
0.0134062
0.0152656
0.0034225
0.00166885
0.0147761
0.00308251
0.0044171
0.0137297
0.00369371
0.0121341
0.0120072
0.0180304
0.006805
0.0138698
0.00674188
0.0127844
0.00389142
0.00507219
0.0043718
0.00882382
0.00893876
0.0133635
0.0145859
0.0089428
0.0231771
0.00247254
0.00619582
0.00557688
0.00298373
0.00888427
0.00951148
0.0132465
0.00861951
0.0162324
0.0101131
0.00476822
0.00321305
0.0053345
0.0186766
0.0156483
0.0129618
0.0163722
0.0123138
0.00401112
0.00605084
0.00398514
0.00369331
0.0035073
0.00431787
0.00744373
0.000304099
0.0146921
0.0021636
0.0164677
0.00437422
0.0137116
0.0037943
0.0141371
0.0150135
0.0112841
0.00539157
0.021846
0.0146743
0.0115866
0.0110287
0.0036506
0.0130519
0.00196171
0.00572069
0.00577702
0.00601438
0.0113068
0.00493646
0.00583312
0.012984
0.0240221
0.0118667
0.0130302
0.00955438
0.0101867
0.0091187
0.00757998
0.00730946
0.0179968
0.00871448
0.000756391
0.0129461
0.0236487
0.00836668
0.0175777
0.0101272
0.0121533
0.00528365
0.00439123
0.0138262
0.00498303
0.010997
0.0110164
0.0134198
0.0032691
0.00402619
0.0144099
0.00608638
0.00212145
0.00256921
0.00990839
0.00342653
0.00617241
0.00651446
0.0147931
0.0144954
0.0161355
0.014965
0.0130844
0.00636254
0.0134235
0.00603877
0.0142952
0.0161062
0.00495752
0.0131083
0.00549103
0.0107814
0.0153488
0.0101909
0.00276302
0.0126671
0.0354905
0.00272299
0.00817506
0.00556902
0.0123224
0.00159334
0.00422147
0.00505316
0.00420521
0.0133765
0.00107376
0.00845426
0.0172746
0.00764227
0.00885032
0.00510142
0.0189307
0.00327991
0.00696776
0.0180158
0.0231357
0.00838064
0.0120104
0.00976723
0.00653049
0.00503246
0.00381578
0.0159175
0.0017903
0.010393
0.01001
0.00949579
0.00284791
0.00431752
0.0163522
0.0171436
0.00212431
0.00249571
0.00281356
0.00164072
0.0202148
0.0057809
0.00239074
0.0161661
0.0180254
0.0160983
0.00336096
0.0144354
0.0134584
0.0156096
0.00172166
0.0180003
0.0180297
-0.000368462
0.0156694
0.0151506
0.0157502
0.00998996
0.0168147
0.000678879
0.00272044
0.0153331
0.00223283
0.00272711
0.00463613
0.0113358
0.00767227
0.0141082
0.000933222
0.00496834
0.00806615
0.0168991
0.00108129
0.0134572
0.00205746
0.0234284
0.0236623
0.0055623
0.0339637
0.00573733
0.00569491
0.00928272
0.00959084
0.00665769
0.00907535
0.0243353
0.00664998
0.0131276
0.000517904
0.00594763
0.00924628
0.005178
0.0150484
0.00116102
0.00358143
0.00905469
0.00321502
0.00815936
0.00831056
0.0044973
0.0190067
0.00330403
0.00228272
0.000300497
0.0105527
0.0173487
0.00258604
0.000498991
0.00319986
0.00351579
0.00276637
0.0160148
-7.50429e-05
0.00104254
0.000703251
0.0143859
0.00178802
0.0150422
0.0156507
0.0161909
0.00470359
2.68398e-05
0.000140449
0.00244848
0.000679941
0.00989471
0.000845796
0.00989684
0.0157903
0.00131754
0.00573808
0.00770456
0.018906
0.0174572
0.0136936
0.00649785
0.00313567
0.0181056
0.0155889
0.00146218
0.0016062
0.0067155
0.0114227
0.00466444
0.000944523
5.80427e-05
0.000774207
0.0150312
0.012646
0.0057643
0.0348992
0.0123644
0.00970333
0.00665982
0.0104756
0.013403
0.0132673
0.00928688
0.00591993
0.00739846
0.00765731
0.0125517
0.00291118
0.00902114
0.00104848
0.00982191
0.0229645
0.0158451
0.0148013
0.0110067
0.0086317
0.0208296
0.00972289
0.0116707
0.00517329
0.018534
0.0174621
0.00252768
0.00963052
0.0108887
0.000171774
0.0212507
0.00586394
0.000984579
0.00284771
0.00161774
0.0188791
0.0172343
0.01761
0.00266014
8.19349e-05
0.0148786
0.0100151
0.0159216
0.0161447
0.0162848
0.00105248
-5.35947e-05
0.0153015
0.0134469
0.013928
0.0162771
0.000897338
0.0057833
0.0238693
0.00336494
0.00193109
0.0166808
0.00948019
0.00395637
0.0152028
0.0149612
0.0122441
0.00702673
0.00471359
0.0110918
0.00642656
0.000281546
0.000597764
0.00122472
0.0047079
0.00176525
0.0188969
0.00669052
0.000501896
0.000592376
0.0145011
0.00508933
0.000609277
0.0351819
0.00474342
0.00563991
0.00762133
0.00859977
0.00726257
0.00931797
0.00877797
0.00590805
0.00679112
0.00978621
0.00626158
0.0058397
0.00661555
0.00872806
0.0166476
0.00944019
0.00892127
0.0146104
0.0189127
0.0162485
0.00445247
0.0087874
0.0025071
0.00992145
0.0197615
0.000735459
0.00181264
0.00167837
0.00504569
0.00585946
0.0145133
0.0139641
0.00412105
0.00167366
0.0113287
0.0188195
0.000437345
0.0157605
0.00616926
0.0143557
0.01311
0.0139259
0.0178293
0.0164803
0.0214265
0.0151826
0.0126767
0.0157212
0.0142384
0.0147095
0.00530405
0.0185572
0.00519664
0.00135887
0.00345947
0.0144538
4.24115e-05
0.0119021
0.00281835
0.00391143
0.0119908
0.00716136
0.0179038
0.00331655
0.0125244
0.00405309
0.0206122
0.00594152
0.000441071
0.000840272
0.0167825
0.011241
0.000759749
0.0018299
0.00102877
0.00354193
0.000486139
0.000224777
0.0141479
0.0137536
0.000118864
0.0137549
0.0121448
0.01472
0.00804283
0.00793538
0.00641186
0.010329
0.0108572
0.00500992
0.000802207
0.00948238
0.0129775
0.00960325
0.0177436
0.0159562
0.00950909
0.0155743
0.00585394
0.0238889
0.00279537
0.0155978
0.00933596
4.52009e-05
0.0106279
0.00271756
0.0057208
0.0023341
0.00230942
0.0118978
0.0169699
0.00413052
0.0149306
0.00072505
0.000671327
0.000772011
0.0196902
0.0198758
0.0188795
0.0203137
0.0167149
0.0154246
0.00517825
0.00327953
0.0057175
0.00151421
0.0110528
0.00495146
0.0130279
0.00718732
0.00575515
0.00177528
-0.000127009
0.00421108
0.00224277
0.0176284
0.00764468
0.00412142
0.00396783
0.00733086
0.000674604
0.012425
0.00400655
0.0155408
0.00295999
0.00199044
0.0101603
0.0101239
0.0158106
0.0188043
0.0163916
0.0124817
0.00699497
0.00760044
0.0149139
7.72951e-05
0.000830515
0.014644
0.0149732
-0.000136965
0.00028994
0.00207528
0.0147511
0.00384383
0.00896682
0.0189846
0.0186141
0.00949827
0.0222397
0.00715392
0.00617372
0.00637083
0.00409747
0.00253937
0.0156284
0.00263178
0.00948673
0.0114977
0.0174671
0.00552448
0.00640778
0.00606406
0.0141726
0.0143579
0.0143124
0.0203608
0.00188765
0.0165384
0.016318
0.0166306
0.00900696
0.000312955
0.0196018
0.0201463
0.0185484
0.0109398
0.01161
0.0126037
0.0117811
0.0141202
0.0108276
0.000445729
0.0147077
0.00687448
0.00469273
0.0150327
0.00113188
0.00065802
0.00262595
0.00249383
0.0179898
0.00723252
0.00262586
0.00367918
0.00656271
0.0133255
0.00623004
0.00572946
0.012025
0.00838322
0.000232724
0.0154754
0.00980179
0.0162998
0.00816401
0.00169244
0.0125777
0.0125299
0.000623583
0.00723115
0.00670706
0.000455585
0.000574931
0.0153304
0.0176204
0.00709555
0.00921294
0.0010423
0.0162885
0.0203055
0.0170394
0.0117813
0.0054795
0.0161123
0.0121355
0.00634335
0.0088909
0.00491548
0.00501538
0.00790003
0.0151212
0.00270724
0.00990497
0.0062129
0.00561297
0.00016762
0.0169126
0.00660666
0.0174644
0.00479627
0.0142829
0.0164305
0.00820167
0.00819945
0.0172145
0.0139116
0.0156573
0.00605764
0.00699814
0.0138187
0.0131671
0.0104545
0.0111147
0.0161231
0.0165009
0.0217543
0.0127508
0.0143835
0.000886125
0.000560088
0.0147676
0.0134787
0.00693005
0.0160264
0.00228298
0.0112449
0.0125653
0.0158008
0.00193595
0.0161777
0.014697
0.0175021
0.0166513
0.0174107
0.00818627
0.0149727
0.00663318
0.0115717
0.0111746
0.0106214
0.0181498
0.0167635
0.0162634
0.0137414
0.0074359
0.00968687
0.010691
0.0164823
0.010586
1.84503e-05
0.0171718
0.0189282
0.00892345
0.00749984
0.00314803
0.00219315
0.00626974
0.0166404
0.00519926
0.00556169
0.0205698
0.00833644
0.00306807
0.00425707
0.000339038
0.00797096
0.00901257
0.008203
0.0154268
0.0005159
0.0178161
0.00160283
0.017282
0.0167394
0.0204233
0.00784476
0.00810623
0.00686941
0.0129326
0.0115126
0.013378
0.0207764
0.0151089
0.0157846
0.0106126
0.0128889
0.00761516
0.0135374
0.0117684
0.00258345
0.00235556
0.00944748
0.000724655
0.00672367
0.0179654
0.0189121
0.00341628
0.0173696
0.0112632
0.0181832
0.0100448
0.0102687
0.00135695
0.000751168
0.0132529
0.0119924
0.00576871
0.00759067
0.00717519
0.0111458
0.00768503
0.0150455
0.0160951
0.0206929
0.0158999
0.017132
0.0103805
0.00729892
0.00853359
0.000750015
0.00147202
0.00279406
0.00751002
0.00678744
0.0119181
0.00701582
0.0125663
0.0142396
0.0157757
0.00726175
0.00449677
0.0210316
0.0110236
0.0188967
0.0187205
0.00828115
0.0190719
0.00191327
0.0161262
0.00480757
0.00902587
0.00357503
0.007007
0.00788604
0.0180711
0.0183892
0.000583031
0.0165561
0.0197987
0.0225754
0.00731961
0.013945
0.0159474
0.0161777
0.00652084
0.00703363
0.0150664
0.022739
0.0149874
0.00275738
0.0132194
0.0222714
0.0129115
0.0125938
0.0123104
0.00613908
0.018631
0.0161595
0.0188295
0.00161364
0.0136061
0.00105893
0.0111283
0.0157824
0.00337881
0.0158665
0.0049689
0.01511
0.0205607
0.00887806
0.000420078
0.0100845
0.0107452
0.000616205
0.00666409
0.00672748
0.0105864
0.00778398
0.021419
0.0173279
0.00681397
0.00671363
0.0167743
0.00943722
0.0160453
0.0208492
0.0162596
0.000515789
0.000524818
0.0171588
0.0149149
0.010422
0.0116617
0.0133426
0.0110684
0.0114993
0.0188346
0.0164751
0.0197974
0.0148646
0.0130123
0.00181151
0.0190196
0.00251055
0.00719085
0.0177991
0.0190607
0.0153978
0.00804059
0.00719155
0.000376709
0.0166625
0.0102827
0.0175938
0.00970157
0.0187424
0.0197692
0.0125
0.0133475
0.00795106
0.00386281
0.0216318
0.0102877
0.0132138
0.0102887
0.00948652
0.0137903
0.0218579
0.0126643
0.0118314
0.0234509
0.00203143
0.0184792
0.0114102
0.0227473
0.0117924
0.00947096
0.0183313
0.0187855
0.00335084
0.0069945
0.00389043
0.00481684
0.0162532
0.0085997
0.00935492
0.000362702
0.00746196
0.0271501
0.00767984
0.00802332
0.0110843
0.0114425
0.0108136
0.0170841
0.0176177
0.0126875
0.00679921
0.0173905
0.00974905
0.0179846
0.0160606
0.0162325
0.0178888
0.0182374
0.0167543
0.00639521
0.00047253
0.0193114
0.00580821
0.0202303
0.022536
0.0211525
0.00767888
0.0192943
0.0129522
0.00202168
0.00165816
0.00280068
0.0172252
0.0178437
0.0177381
0.0164462
0.0197835
0.00810397
0.00664151
0.0180631
0.0199878
0.00950725
0.017787
0.0190726
0.0126584
0.00731024
0.0217265
0.0194024
0.0166776
0.0135416
0.0172648
0.0141776
0.0185926
0.00152946
0.0142785
0.0167367
0.019082
0.0135601
0.0181863
0.00907995
0.0228584
0.0142162
0.00185956
0.0172994
0.00413412
0.000100694
0.0039091
0.0136239
0.0115927
0.0134806
0.0173651
0.0188278
0.00708298
0.014886
0.00847102
0.0115361
0.0109503
0.0107587
0.00662711
0.017619
0.0118659
0.0123629
0.0175462
0.012299
0.00610202
0.0058558
0.0123544
0.0129926
0.0118115
0.0164552
0.0168589
0.000956604
0.0116575
0.017556
0.0166954
0.0120819
0.0123691
0.0101683
0.0126536
0.0220384
0.00109434
0.00604624
0.0184448
0.00282352
0.00811204
0.00878383
0.00836466
0.0204876
0.0216764
0.00271015
0.0222273
0.0198247
0.0142007
0.0141449
0.0200843
0.0146768
0.0185893
0.0174284
0.00343132
0.00772541
0.0211171
0.00037197
0.000626068
0.0202401
0.0188781
0.00334301
0.020095
0.0147436
0.0128351
0.00837182
0.0190134
0.0184863
0.00670954
0.0175738
0.0162693
0.0143251
0.0128175
0.000746809
0.00132631
0.000987789
0.0147932
0.0169661
0.0109225
0.0192459
0.0217506
0.0105599
0.00936952
0.00654246
0.00391651
0.0234025
8.25307e-05
0.00267666
0.00838198
0.000994828
0.000211887
0.000380774
0.00898034
0.00656145
0.000777711
0.0289782
0.018416
0.0138148
0.021493
0.0119995
0.0230919
0.00377421
0.00742608
0.00776195
0.0223461
0.022404
0.0120874
0.00631404
0.0126204
0.0113984
0.0149006
0.0138492
0.0143956
0.0169166
0.00124467
0.0180546
0.0181119
0.0183233
0.0178488
0.0149618
0.0147245
0.011352
0.0104636
0.0191514
0.0166355
0.00533331
0.0041644
0.011259
0.0161613
0.021446
0.00518508
0.00604868
0.00624123
0.0160744
0.0203063
0.021447
0.0212246
0.00165354
0.000973896
0.019963
0.000631466
0.0197163
0.0204894
0.00412294
0.00574664
0.00258456
0.0191303
0.00726169
0.0167764
0.0131683
0.013213
0.0207153
0.021078
0.00946215
0.023108
0.022902
0.0155928
0.0143058
2.1974e-05
0.000544882
0.0159037
0.014384
0.0173247
0.0226547
0.0346682
0.0230298
0.018171
0.0230547
0.0182884
0.0022332
0.0167991
0.0193837
0.00260128
0.0183173
0.00443945
0.000454188
0.017952
0.000597686
0.00829514
0.00901765
0.00893181
0.00820608
0.000378026
0.00175109
0.00562254
0.0219
0.0204744
0.0148125
0.00877087
0.0111233
0.00700975
0.00878367
0.00652776
0.00853757
0.00837949
0.00753351
0.0156757
0.013442
0.0179584
0.0132884
0.0180108
0.0012173
0.0176319
0.000876497
0.0232857
0.0181696
0.0119125
0.0149598
0.00723668
0.00951621
0.00332058
0.0024062
0.00583438
0.00391265
0.0107244
0.0176468
0.00823898
0.013802
0.0126044
0.00491453
0.0123784
0.0218334
0.0012789
0.00280599
0.00115871
0.0143884
0.0205511
0.0166077
0.00537123
0.00417976
0.0203757
0.00257292
0.0203206
0.0191812
0.0352099
0.0203706
0.0201293
0.0229842
0.0216224
0.0206927
0.0161747
0.00413776
0.0167395
0.00396664
0.0171272
0.0177819
-2.99773e-05
0.021682
0.010136
0.00202234
0.0169798
0.0199887
0.0166626
0.0191914
0.0167249
0.00847508
0.010362
0.0161456
0.0182131
0.0199351
0.0214019
0.000628183
0.00280285
0.0136254
0.0180836
0.0169407
0.0150453
0.0159516
0.00116718
0.0150527
0.00810348
0.00845179
0.00829184
0.00723155
0.00953626
0.0115574
0.000470662
0.0184264
0.0192454
0.0162088
0.00107267
0.0190858
0.011597
0.0121935
0.0137425
0.0143913
0.0167985
0.0130955
0.0295119
0.00333761
0.0119741
0.0186622
0.0143578
0.0143421
0.00277363
0.0130105
0.0205061
0.0227339
0.0168365
0.00771347
0.0198535
0.00704715
0.0132726
0.0211488
0.0222708
0.0132284
0.0225208
0.0223544
0.022167
0.020655
0.0140065
0.0214997
0.0203977
0.0178752
0.00797232
0.0160532
0.00632765
0.00172418
0.0164352
0.00521603
0.0209922
0.0213934
0.0207806
0.0193431
0.0122587
0.0194924
0.0221656
0.00683285
0.00483571
0.00952058
0.0236051
0.0160505
0.0154962
0.00394638
0.00343081
0.0185947
0.00117792
0.0112714
0.0231194
0.0198896
0.0168647
0.017489
0.0104776
0.00927441
0.00240673
0.0180013
0.000255854
0.00656429
0.0201994
0.000829769
0.00249609
0.00393448
0.00509914
0.00299085
0.014164
0.0160539
0.0186087
0.0121972
0.00749833
0.0269023
0.00746511
0.00860364
0.00921526
0.0194441
0.0175215
0.0220593
0.0198227
0.00617722
0.0110514
0.0107021
0.0107044
0.0124825
0.0152129
0.0152484
0.0177401
0.0168531
0.0158602
0.0116241
0.00861497
0.00872637
0.00209302
0.0166906
0.019908
0.00711754
0.00292841
0.0297604
0.0112242
0.0203044
0.01372
0.0206531
0.0247238
0.0160218
0.00717272
0.00608419
0.0131641
0.0217907
0.0208322
0.00541695
0.0232772
0.000173392
-0.000245807
0.0201753
0.0224061
0.0111751
0.00925832
0.0187956
0.00476348
0.0209599
0.0227116
0.00914516
0.018566
0.0192416
0.0286019
0.00518784
0.0217643
0.0127119
0.0132822
0.0182755
0.0218277
0.00238039
0.0170622
0.0232972
0.0226634
0.0242561
0.00517583
0.0190147
0.0185689
0.0026804
0.0150723
0.0218371
0.0155329
0.00215098
0.00675579
0.0142777
0.0046795
0.0157884
0.00663437
0.000547424
0.000726112
0.0095808
0.00274946
0.0206919
0.0120896
0.00526743
0.00921766
0.0214309
0.0214864
0.0190367
0.0199443
0.021161
0.0121921
0.00218271
0.00454752
0.010555
0.0180732
0.0181488
0.0186074
0.0188051
0.0128003
0.0125881
0.0113868
0.0156626
0.0138674
0.0139871
0.0150932
0.0227859
0.016431
0.0181756
0.0154487
0.0171316
0.0169273
0.00852615
0.0166182
0.0129811
0.00801966
0.0116653
0.0263224
0.013158
0.0293559
0.0174391
0.00501849
0.0077743
0.0153426
0.0249488
0.0140489
0.0132516
0.00593642
0.0174874
0.000513745
0.00146677
0.000282881
0.0216781
0.0213254
0.0218514
0.0112513
0.0235959
0.00419924
0.0223865
0.0226804
0.0218758
0.00222986
0.0249171
0.0220289
0.00165125
0.0233399
0.0132972
0.013974
0.0130524
0.0182027
0.019732
0.0162538
0.0170611
0.0180882
0.0111765
0.0107489
0.00276889
0.0226648
0.0178528
0.0203707
0.0156578
0.0198717
0.0221773
0.00823211
0.0213996
0.00218034
0.0159688
0.00758922
0.000836319
0.000131614
0.00961394
0.0200054
0.00752915
0.0182387
0.0186036
0.00627371
0.0195981
0.00726416
0.023429
0.0186561
0.0231492
0.0174429
0.00944507
0.0183643
0.019221
0.0213097
0.00490401
0.0189291
0.0189555
0.0198365
0.0212761
0.015206
0.0201375
0.0162175
0.00216344
0.0193274
0.0048185
0.0143781
0.0151996
0.0104224
0.0166643
0.0251726
0.012695
0.0117083
0.0123971
0.00858415
0.0161573
0.00598572
0.0107297
0.0197819
0.00935114
0.0186989
0.00559221
0.0200109
0.0166639
0.00518672
0.0141312
0.0206331
0.00546859
0.0163874
0.0107765
0.00144348
6.1378e-05
0.00144547
0.0209176
0.0137393
0.0156602
0.0119369
0.0116762
0.020953
0.0227108
0.0220282
0.0166632
0.0216827
0.0177466
0.0229134
0.0120766
0.0233374
0.0231491
0.0231942
0.0224847
0.0218239
0.00263962
0.0183701
0.0219004
0.0166528
0.0150934
0.0243713
0.0219696
0.0110406
0.0227809
0.00228226
0.0206654
0.0216839
0.015106
0.0144676
0.0195609
0.0205121
0.0195243
0.000964951
0.0228069
0.0172464
0.00650639
0.000312224
0.0225672
0.00692222
0.00288591
0.00187784
0.000240983
0.0161967
0.00512384
0.0271116
0.00825696
0.0194715
0.0104042
0.00790836
0.0113894
0.0190625
0.00814303
0.0226089
0.0188454
0.0110337
0.0210929
0.0188917
0.0162016
0.0253064
0.0171141
0.0217375
0.0139536
0.0234423
0.0138962
0.0138307
0.00293461
0.0176887
0.0166364
0.0176192
0.0203155
0.0148694
0.0235052
0.0175914
0.0171178
0.00236377
0.00522766
0.023585
0.0124075
0.00459243
0.012471
0.0311092
0.007545
0.0243661
0.00565564
0.00111373
0.00941116
0.00975638
0.00863394
0.0161291
0.00492708
0.0150542
0.0189279
0.0134252
0.00445278
0.00481557
0.0221141
0.00135054
0.0164712
0.0153159
0.0101319
0.0206495
0.0246344
0.010688
0.020613
0.0193138
0.0170401
0.000332895
0.0166621
0.0186173
0.0220593
0.0224691
0.0253575
0.0235842
0.00291328
0.00191875
0.0238758
0.00280389
0.0213339
0.0228296
0.0211885
0.00459222
0.0260267
0.0100003
0.0188725
0.0226909
0.0204648
0.0211223
0.0202581
0.0193311
0.0176513
0.0103724
0.019369
0.0146758
0.00170381
0.00963512
0.0212602
0.0193523
0.0249707
0.0263061
0.00133463
0.0137187
0.00222563
0.00428681
0.0221669
0.00421967
0.00361603
0.0232865
0.00536698
0.00915238
0.0133985
0.022559
0.000232878
0.0219997
0.0189565
0.0104019
0.0216116
0.0230206
0.0119482
0.0217028
0.0175713
0.0232802
0.0216554
0.0213135
0.0157637
0.0241804
0.0168017
0.00485822
0.00511396
0.0234365
0.0174838
0.0214125
0.0260006
0.0192981
0.0205572
0.0256381
0.0051085
0.023262
0.0227368
0.0233999
0.0128034
0.033876
0.00393337
0.00658441
0.0103525
0.00956803
0.0253056
0.0076457
0.0185436
0.0147271
0.0153815
0.0143982
0.00519936
0.00939121
0.0061173
0.022025
0.00099426
0.0234324
0.023933
0.0241503
0.0114443
0.0200708
0.0298883
0.0186405
0.0016518
0.0215424
0.00717392
0.00901321
0.0246341
0.011556
0.0243373
0.0247639
0.0165922
0.00258105
0.0219863
0.0210837
0.0218683
0.0162422
0.0216272
0.0216263
0.0208577
0.0184253
0.0189584
0.0195184
0.0196026
0.0161231
0.0149704
0.00150904
0.0224609
0.0135979
0.0146178
0.0159061
0.0080801
0.00677186
0.0271168
0.0211173
0.0193677
0.0245956
0.0254271
0.00948955
0.00386677
0.00656448
0.0266529
0.0137142
0.0069768
0.0228198
0.0059038
0.0198812
0.0113749
0.00496425
0.00475394
0.0185938
0.0107946
0.0204166
0.000840219
0.0179454
0.00184837
0.0194515
0.0111262
0.0162448
0.0166792
0.0158364
0.0204915
0.0198622
0.0223875
0.00687957
0.0305087
0.0294365
0.0259259
0.0178933
0.0176636
0.0137366
0.0187098
0.0208614
0.0220053
0.0250715
5.77414e-05
0.00974745
0.0107709
0.033216
0.0224757
0.00278098
0.0231396
0.00280211
0.0131832
0.0151265
0.00922221
0.00671231
0.026061
0.0212465
0.00718028
0.0142158
0.0268788
0.00914466
0.00560916
0.00045698
0.013132
0.0019406
0.0241832
0.00574296
0.0256706
0.0304434
0.00786896
0.0214209
0.00028359
0.000306594
0.00743184
0.024754
0.0247588
0.0235792
0.0209444
0.00154094
0.0162038
0.0348604
0.0154723
0.0208615
0.0198774
0.0206448
0.0209153
0.0165923
0.0228604
0.0203656
0.00711984
0.00173089
0.00196938
0.0019858
0.0195238
0.0218132
0.0122085
0.0217672
0.00510439
0.00529939
0.00602592
0.0187796
0.0254188
0.0250419
0.0262895
0.0149029
0.0073547
0.0230749
0.00698014
0.0187049
0.0202951
0.0209743
0.0114457
0.0230729
0.0104234
0.0191156
0.0198706
0.0189781
0.010026
0.0142064
0.0354024
0.00886707
0.00224785
0.0181141
0.0154789
0.0193619
0.0124356
0.0145373
0.0157243
0.0167963
0.0138715
0.0202488
0.0292224
0.0150053
0.022734
0.0104477
0.0186796
0.0141748
0.0180069
0.0195993
0.0184269
0.0248244
0.00343534
0.0243776
0.016168
0.00074823
0.0105741
0.0255499
0.0229095
0.0135024
0.00322742
0.0207624
0.0074879
0.0262654
0.00754407
0.0214361
0.020332
0.0237718
0.0181396
0.0219976
0.0150774
0.00250985
0.0197795
0.00220156
0.0239902
0.000229133
0.000829752
0.00497475
0.00177679
0.0164066
0.000829887
0.0265038
0.0266976
0.022438
0.0231161
0.0251137
0.0251759
0.0243347
0.0246327
0.00687127
0.0268399
0.0242716
0.00531515
0.0229972
0.0282864
0.0158138
8.49694e-05
0.0221732
0.0240723
0.0207167
0.0193454
0.0218165
0.0258985
0.00243367
0.0227595
0.00112566
0.000591366
2.687e-05
0.0198664
0.0140607
0.00613297
0.0115169
0.0225603
0.0333692
0.0158495
0.0206596
0.0211815
0.0257273
0.00211662
0.0352654
0.0237584
0.00689915
0.0168802
0.00818669
0.017763
0.0217406
0.00832637
0.0234318
0.0182328
0.00988484
0.0155557
0.00952666
0.0192516
0.015438
0.0246827
0.0254079
0.00720727
0.0131735
0.0160323
0.0156291
0.0211714
0.0297422
0.0108067
0.0210668
0.0161788
0.0106231
0.013689
0.026907
0.015172
0.0138363
-0.000174717
0.0285903
0.0279607
0.000904999
0.0230748
0.00173222
0.0173676
0.0263872
0.00390265
0.0245222
0.0244298
0.0260476
0.0249904
0.0200957
0.02066
0.0224265
0.0061003
0.0217592
0.00762738
0.00200415
0.0115064
0.00307668
0.0206778
0.0223644
0.00951765
0.00946674
0.0116032
0.0261299
0.00292134
0.0223521
0.0132948
0.0258447
0.0183357
0.0252448
0.0243509
0.0272453
0.0241707
0.0011291
0.0160925
0.0240666
0.016841
0.0219387
0.0211592
0.00444246
0.0254136
0.0192784
0.0265936
1.26383e-05
0.0242073
0.00614613
0.0130394
0.00173646
0.0206686
0.0199871
0.0312766
0.0191455
0.00639968
0.0237023
0.0225581
0.000694588
0.00048942
0.0307885
0.0211438
0.00734167
0.0343497
0.0084531
0.0133214
0.0231067
0.000290419
0.00266194
0.0353158
0.00671582
0.0101316
0.00997756
0.0164534
0.0225697
0.0130081
0.00945892
0.023135
0.0259984
0.0239634
0.0223962
0.0131679
0.0225675
0.0159066
0.00976247
0.0199272
0.0195881
0.0159272
0.0180218
0.0130834
0.0122888
0.022801
0.0233615
0.0237873
0.019773
0.0280846
0.0191204
0.0198382
0.0186653
0.0195676
0.0236663
0.0170061
0.00378248
0.025756
0.0249202
0.0232728
0.0039415
0.0221227
0.0193396
0.0216174
0.0197148
0.0263664
0.0231356
0.00300962
0.00931686
0.0260877
0.0262738
0.0283791
0.00256003
0.0127191
0.00893272
0.0243597
0.0235655
0.0252098
0.028182
0.0284989
0.0245189
0.027983
0.0241042
0.0236741
0.0152444
0.0252748
0.0213675
0.0279159
0.0337614
0.02118
0.0197831
0.0349614
0.0174535
0.0124449
0.0260045
0.0143686
0.0279858
0.000780092
0.0216909
0.0134398
0.0321062
0.0209801
0.0200352
0.0266064
0.0127876
0.000834823
0.0117471
0.0324275
0.000177513
-0.000171462
0.0214515
0.00834225
0.00902559
0.00888313
0.00637638
0.00541047
0.00604689
0.00485417
0.00954844
0.024828
0.027772
0.00278449
0.0250781
0.0222167
0.00217467
0.0211122
0.0256961
0.026032
0.0147043
0.0181272
0.01379
0.0255862
0.0143981
0.0220535
0.0197437
0.0146906
0.0204598
0.0249395
0.0141486
0.0138182
0.0202997
0.0199574
0.0169497
0.0271886
0.0031518
0.0286249
0.0174783
0.0149066
0.0163898
0.0257571
0.0112412
0.00866358
0.0258232
0.0229172
0.0235609
0.0251352
0.0321652
0.0290059
0.025936
0.0234827
0.0256028
0.0269238
0.026107
0.0162021
0.0274748
0.0262008
0.00764283
0.0234454
0.0173762
0.0273824
0.0227522
0.0269552
0.0135426
0.0242782
0.0171668
0.0199665
0.0252248
0.027279
0.00734811
0.0222777
0.0177713
0.017115
0.0181171
0.0278565
0.0228698
0.0240884
0.000451404
0.0204856
2.22988e-05
0.0239813
0.00195975
0.0330027
0.00830587
0.0170677
0.00667752
0.00642909
0.00581003
0.0221556
0.0240606
0.0165182
0.016934
0.0220923
0.015084
0.0252256
0.0259611
0.018839
0.0284098
0.0246072
0.0285863
0.0247495
0.023183
0.0266132
0.0150646
0.0195198
0.0201295
0.0160023
0.00355122
0.0268226
0.0263012
0.0312335
0.00814369
0.0246611
0.0219944
0.00873862
0.0200753
0.0244624
0.0214299
0.0278237
0.0263857
0.0252311
0.027488
0.020479
0.0262715
0.0274475
0.0265412
0.0260311
0.0217813
0.0243817
0.0192881
0.0281234
0.0236027
0.0352752
0.0346158
0.0227747
0.0278439
0.0223415
0.0219996
0.0214137
0.0183706
0.0258166
0.0229097
0.0246975
0.0257463
0.0281962
0.0248592
0.0211551
0.0236806
0.0236305
0.0275077
0.0228469
0.0243366
0.0258954
0.02691
0.00189335
0.0249617
0.00263296
0.00301225
0.00334859
0.00170777
0.0245275
0.00521833
0.000617175
0.0181035
0.0242997
0.0333087
0.0339452
0.0280909
0.0225175
0.0275764
0.0149937
0.0310545
0.019895
0.0218768
0.0238179
0.0257324
0.0169205
0.0254344
0.0266239
0.0192835
0.0207193
0.0264502
0.0208524
0.0304698
0.0265693
0.0295171
0.00913059
0.00169214
0.0246495
0.0244252
0.0240304
0.0296747
0.0251812
0.030213
0.0252649
0.0271723
0.0158878
0.0282428
0.0203979
0.0272093
0.0216615
0.0275551
0.0283771
0.0173037
0.0250772
0.0186089
0.0259645
0.018617
0.0262674
0.0228085
0.0219852
0.0261917
0.0253957
0.0227694
0.0254836
0.017347
0.0302574
0.0236621
0.0250904
0.0259026
0.0270191
0.00737531
0.0183338
0.0273744
0.00269694
0.00352739
0.0278493
0.0245594
0.000416832
0.0333827
0.0222049
0.0307176
0.0241753
0.0210696
0.0210396
0.0290668
0.0243288
0.0209037
0.0220354
0.0236945
0.0242664
0.0240461
0.0312302
0.026707
0.0268249
0.0180732
0.0181256
0.0282319
0.0228478
0.0267377
0.0266964
0.0301673
0.033396
0.0317053
0.021284
0.0283113
0.0223563
0.0262269
0.0256948
0.0219845
0.010029
0.027797
0.0336645
0.0272992
0.020986
0.0241963
0.0209963
0.034696
0.0193791
0.0248768
0.0210552
0.022032
0.0263586
0.0278246
0.0222006
0.026605
0.0260803
0.0237025
0.0270487
0.0262499
0.0261758
0.0234711
0.0282988
0.0284078
0.027906
0.0239441
0.0275734
0.0276105
0.0273243
0.00880106
0.0279967
0.0198629
0.0205541
0.0252342
0.0301245
0.0200327
0.02441
0.0283053
0.0239562
0.0245048
0.0212214
0.0317136
0.0236281
0.0277317
0.0200789
0.0201814
0.0242653
0.0280597
0.020024
0.0238677
0.0237347
0.0275863
0.0280061
0.0239376
0.0241648
0.0300767
0.0299591
0.0246966
0.0296162
0.0290019
0.0261112
0.0298587
0.0121985
0.0296952
0.0280826
0.027676
0.0279195
0.0265991