/*--------------------------------*- C++ -*----------------------------------*\
| =========                 |                                                 |
| \\      /  F ield         | OpenFOAM: The Open Source CFD Toolbox           |
|  \\    /   O peration     | Version:  2212                                  |
|   \\  /    A nd           | Website:  www.openfoam.com                      |
|    \\/     M anipulation  |                                                 |
\*---------------------------------------------------------------------------*/
FoamFile
{
    version     2.0;
    format      ascii;
    arch        "LSB;label=32;scalar=64";
    class       surfaceScalarField;
    location    "0.066";
    object      phi;
}
// * * * * * * * * * * * * * * * * * * * * * * * * * * * * * * * * * * * * * //

dimensions      [0 3 -1 0 0 0 0];

oriented        oriented;

internalField   nonuniform List<scalar> 
68568
(
-1.54579e-07
1.59349e-07
-3.00141e-08
2.52446e-08
1.48542e-07
-7.59238e-08
-7.86692e-08
6.0506e-09
1.80215e-07
-1.37815e-07
-6.07425e-08
1.83416e-08
-4.68447e-09
2.26633e-09
-1.73232e-07
1.75651e-07
-1.31419e-09
1.4515e-07
1.07748e-09
-1.44913e-07
1.42259e-07
-4.29085e-10
-1.31148e-07
-1.06826e-08
8.55063e-08
-9.04099e-08
1.33156e-07
-1.28253e-07
-4.05298e-08
-2.7853e-08
1.53889e-07
1.34507e-07
-1.61369e-08
-1.13358e-07
-5.01199e-09
1.52522e-07
5.49192e-08
-5.88989e-08
1.0335e-07
1.40674e-07
-6.3809e-08
-6.5517e-08
-2.07192e-07
1.96785e-07
-1.431e-07
7.0225e-08
-5.79448e-09
1.87645e-07
-1.93096e-07
1.3775e-08
-8.32408e-09
-7.17758e-08
-5.25835e-08
1.23285e-07
1.0742e-09
1.31589e-07
8.98413e-08
-1.33683e-07
-8.77479e-08
-5.24678e-08
-8.10195e-08
1.17893e-07
1.55942e-08
1.14605e-07
-1.20006e-07
-4.70663e-08
1.14675e-07
-4.37231e-09
-7.104e-10
-1.09592e-07
8.75915e-08
-1.58916e-07
7.96066e-08
-8.28199e-09
1.15268e-07
-4.5442e-10
-1.14809e-07
-4.70581e-12
-1.84284e-08
9.31398e-09
1.44889e-07
-1.35775e-07
-4.71689e-08
1.95361e-07
-2.8075e-08
-1.20117e-07
-8.46637e-10
-5.66755e-10
-1.39939e-07
1.41352e-07
-7.65047e-08
-5.01819e-08
1.19523e-07
7.1638e-09
-9.99925e-08
-4.11959e-08
-1.33909e-08
-6.68981e-08
1.45801e-07
8.68916e-09
7.98758e-08
4.66353e-08
-3.23493e-08
-9.41619e-08
-7.07027e-08
-1.02006e-07
1.32179e-07
5.06563e-08
-1.24613e-07
3.25408e-09
1.58696e-07
-8.42542e-08
-1.49451e-07
7.50088e-08
-1.35007e-08
2.40579e-09
1.204e-07
-1.09305e-07
1.62113e-07
-3.39719e-08
-1.15706e-08
-1.16571e-07
1.22871e-07
-9.40803e-08
-6.07486e-08
3.19578e-08
-1.18155e-09
1.12551e-07
-1.11758e-07
3.88796e-10
1.26153e-07
8.73322e-08
-8.74374e-08
5.89541e-10
-4.84338e-10
4.46963e-08
-1.65471e-07
9.63092e-08
2.44653e-08
-1.67134e-07
1.45249e-07
6.65804e-08
-7.60044e-08
-1.70123e-10
-3.30111e-10
-8.71512e-10
1.17248e-07
-1.10855e-09
1.16427e-07
-1.15898e-07
-6.91411e-10
1.62983e-10
-2.72602e-08
-1.63008e-07
1.24177e-07
2.01285e-07
-1.52941e-07
-1.7252e-07
-6.40954e-08
-1.07708e-07
3.03392e-07
-1.51665e-07
1.69212e-07
-1.42047e-07
1.245e-07
-1.27877e-07
6.77301e-08
-5.36973e-09
1.19364e-07
-1.1654e-07
-3.75675e-09
9.32667e-10
1.01456e-07
2.61451e-08
1.21602e-08
-1.39762e-07
2.34653e-09
-1.57389e-07
1.52631e-07
3.51499e-08
-3.03915e-08
-8.93238e-09
-9.62626e-08
1.04869e-07
3.2547e-10
-1.05534e-07
1.42242e-07
1.74805e-07
-2.08716e-07
-3.929e-10
-1.75698e-10
2.16801e-09
-1.71705e-09
1.12898e-07
-1.13349e-07
4.0602e-08
-1.19657e-07
-1.96495e-09
9.47279e-08
-1.01046e-07
3.726e-09
2.59171e-09
-8.87308e-08
1.47143e-07
-6.45796e-08
6.16763e-09
1.52063e-07
-7.868e-08
-7.68262e-08
3.44321e-09
9.32835e-08
-9.36226e-08
-5.07614e-10
-1.16167e-07
-1.75774e-09
1.20191e-07
7.89433e-08
7.41911e-08
-8.06012e-09
-1.45074e-07
-6.28599e-09
1.40108e-07
-1.34761e-07
9.39107e-10
9.1642e-08
-1.55445e-07
-3.09439e-09
1.12462e-07
-1.80443e-08
3.47775e-08
-1.29195e-07
1.55498e-07
-2.43768e-08
-1.76234e-07
4.51122e-08
4.20465e-08
8.53838e-08
-1.27555e-08
6.66604e-08
-1.32192e-07
7.23961e-08
-6.86399e-09
1.39168e-07
-1.40396e-07
-8.65431e-11
-1.04467e-07
1.49143e-07
-3.2975e-08
-1.17012e-08
-2.12983e-07
-1.55816e-07
2.98082e-07
7.07176e-08
-1.3356e-07
-2.81404e-09
1.403e-07
-6.41572e-09
1.39574e-07
-1.48069e-07
-5.58568e-08
6.43519e-08
-1.30249e-07
6.72643e-08
6.8989e-08
-6.00455e-09
1.11021e-08
-5.66206e-08
-5.01516e-08
-1.04069e-07
1.04124e-07
-4.70866e-10
4.15566e-10
4.1605e-08
1.80136e-07
-6.96783e-08
1.08364e-07
-6.55965e-08
5.19603e-08
-7.55817e-08
-8.25634e-08
1.5421e-07
3.93475e-09
-6.4304e-10
-2.27243e-07
-3.54771e-10
2.28241e-07
7.65306e-08
-4.82634e-08
8.81594e-08
-3.11385e-10
6.65179e-08
-6.63348e-08
1.28268e-10
-2.00283e-08
1.45093e-07
7.02221e-08
-1.95286e-07
1.76332e-07
-8.9105e-08
-9.24473e-08
5.22075e-09
1.23321e-07
3.94764e-08
-3.75566e-08
-1.25241e-07
1.69931e-07
-7.99707e-08
7.91491e-08
-1.69109e-07
3.65995e-08
1.38259e-08
1.19506e-07
-9.15663e-08
8.70039e-08
-1.6867e-07
1.28026e-07
1.1607e-09
-1.25502e-07
-3.6847e-09
-4.11303e-08
-2.89732e-07
2.02985e-07
8.6532e-08
8.94406e-08
-6.76039e-09
-3.12043e-10
4.5813e-10
9.71263e-08
-9.72725e-08
-1.27574e-07
1.27446e-07
-4.39226e-10
-6.16392e-08
1.23165e-07
6.20435e-09
7.62463e-09
9.06741e-08
-5.21112e-09
-9.30876e-08
-1.32532e-07
5.87661e-08
9.26019e-08
-1.88359e-08
-4.55868e-08
-8.39125e-08
-1.04396e-08
-8.6239e-08
1.67224e-07
5.54756e-09
7.47775e-08
7.77413e-08
-1.472e-07
-5.31837e-09
1.17026e-07
1.23921e-09
-1.18044e-07
-2.20829e-10
-2.96964e-09
-2.43321e-07
-1.49071e-08
2.51109e-07
-7.82162e-09
1.33072e-07
-1.30788e-07
5.93977e-08
-7.8524e-09
1.00285e-07
-3.54192e-10
-9.88524e-08
-1.07886e-09
1.25876e-07
-8.36435e-10
1.4046e-07
-4.80888e-08
8.39606e-08
2.14814e-10
-1.06754e-07
-3.51238e-09
1.14703e-07
-4.43681e-09
9.35108e-08
-5.17654e-08
-9.25926e-08
-2.29997e-10
9.27551e-08
6.74941e-11
-3.61357e-08
-1.40917e-07
1.49466e-07
2.75869e-08
-2.41004e-09
1.34558e-07
-1.31695e-07
-4.53087e-10
-9.14042e-08
-3.79628e-08
1.2935e-07
1.64722e-11
-4.28719e-09
2.11561e-09
-1.13995e-07
-1.68987e-07
8.99368e-08
8.43449e-08
-5.29423e-09
3.10051e-10
-1.03531e-07
1.03528e-07
-3.06146e-10
1.41716e-07
-6.55315e-10
-3.45016e-10
-1.14726e-07
2.71691e-10
1.14799e-07
1.35484e-08
2.23292e-08
-2.88072e-08
1.3597e-07
-7.43742e-08
5.06459e-09
1.45683e-07
-1.44977e-07
-1.42063e-08
-1.27567e-07
1.44305e-07
1.95992e-08
-3.6337e-08
7.44121e-08
-7.58531e-08
1.56939e-07
3.99489e-09
1.17716e-07
1.58153e-07
-1.2822e-09
-1.59281e-07
7.13591e-08
-1.48631e-07
-4.73035e-09
8.20022e-08
1.48283e-07
-8.14488e-08
7.94308e-09
1.02803e-07
-1.00566e-07
-1.15849e-07
6.03669e-08
-3.19558e-08
-1.55184e-07
1.47865e-07
-2.00367e-08
2.73561e-08
1.58723e-07
5.02603e-08
-5.9758e-08
-1.47236e-07
-7.63043e-08
-3.16921e-08
8.34295e-08
2.45669e-08
-1.35016e-07
7.10677e-08
-5.65949e-08
1.20543e-07
-1.58066e-07
-3.43297e-09
1.64698e-07
-3.19893e-09
-1.13237e-07
2.15013e-08
-6.63304e-08
-1.69332e-07
-6.48832e-09
9.73679e-08
-1.36969e-09
-1.15829e-07
-6.6248e-10
-1.13248e-07
1.44751e-07
-7.64627e-08
6.07754e-09
1.61397e-07
-8.61909e-08
-8.16129e-08
6.40718e-09
-1.39521e-07
1.87219e-07
-4.82641e-08
5.65947e-10
8.51807e-08
-8.60455e-08
-1.38656e-07
9.75401e-08
7.58541e-09
-2.32211e-09
7.7633e-10
1.07697e-07
-1.07234e-07
-1.23977e-09
1.97331e-07
-4.99948e-08
-1.0786e-07
-1.13131e-07
3.17856e-08
1.18403e-07
-1.13773e-07
-2.51397e-09
-1.91126e-09
1.04697e-07
-1.03149e-07
3.63579e-10
-1.03065e-08
-1.39758e-07
1.37007e-07
1.30568e-08
-1.43539e-07
1.60629e-07
-1.0171e-08
-6.91946e-09
1.25061e-07
-1.15871e-07
5.90367e-10
-1.17895e-09
-8.33801e-09
-1.01522e-07
1.00928e-07
3.42354e-08
-7.10851e-09
-1.40364e-07
-2.07027e-08
1.13859e-07
-8.70032e-08
-6.15273e-09
1.66916e-07
-7.16872e-09
-1.43527e-08
-1.45395e-07
1.63013e-07
2.29984e-10
-2.94526e-09
-1.60298e-07
1.40713e-07
-1.39579e-09
-1.49357e-10
1.33231e-07
-1.33569e-07
4.07002e-10
-6.92392e-11
-1.30183e-07
-8.40106e-08
1.30281e-07
2.20141e-08
-1.7664e-07
-1.13736e-07
1.13575e-07
6.69566e-11
9.44499e-11
-1.38288e-07
-7.18036e-09
1.93017e-09
-1.05104e-07
-1.14008e-12
1.05044e-07
6.11079e-11
-1.25837e-07
-8.8215e-11
1.26288e-07
-3.6257e-10
-5.91928e-09
1.20232e-07
-1.07099e-07
-7.30656e-09
-1.06337e-07
1.05628e-07
3.64669e-10
5.2879e-09
2.93873e-08
9.32231e-08
-1.25574e-07
7.51899e-08
-7.55321e-08
1.49788e-07
-1.49446e-07
1.06316e-07
-8.35372e-08
-2.49154e-08
2.1367e-09
1.64224e-07
-6.73208e-08
-1.15649e-07
2.06393e-08
5.5246e-09
-1.1233e-07
1.27055e-07
-2.02498e-08
-5.33834e-10
1.05081e-07
-1.03974e-07
-5.73199e-10
-1.45709e-07
-8.55244e-09
1.71348e-07
2.13628e-07
-9.07292e-08
1.92701e-07
1.58072e-07
-7.86267e-08
5.73492e-09
-1.8437e-08
2.68226e-08
-1.08877e-07
1.04038e-07
9.13017e-08
9.64446e-08
-7.61006e-09
9.61286e-08
7.4538e-08
-1.643e-07
-6.36618e-09
8.43168e-08
8.17393e-08
-7.98369e-09
1.24792e-07
-7.77012e-08
8.61408e-08
7.57538e-08
-1.28566e-07
6.13938e-08
-8.58115e-09
6.30961e-10
-1.01486e-07
-1.15093e-09
1.94933e-10
-3.21731e-07
1.92453e-07
2.35561e-07
-1.41197e-07
6.30589e-08
9.85757e-09
4.50356e-08
4.68688e-08
-1.01762e-07
-1.31987e-07
2.08989e-09
1.31035e-07
-1.13841e-09
-1.00692e-07
1.00106e-07
5.76314e-11
5.28264e-10
1.33169e-07
-1.72484e-07
2.03905e-07
-1.6459e-07
1.60033e-08
-1.27538e-09
1.30422e-07
-3.24269e-08
7.67673e-09
-7.5875e-08
1.00625e-07
-7.38175e-08
1.43763e-07
5.244e-09
-1.50251e-07
7.83311e-08
7.72154e-08
-5.29527e-09
-1.14443e-07
-2.54603e-08
1.19201e-07
5.92384e-10
7.953e-08
-1.96062e-10
-7.99263e-08
1.5077e-07
-6.81791e-08
7.95221e-08
1.40038e-09
-1.2282e-10
1.22629e-10
-9.98051e-08
1.84099e-07
-4.90857e-08
-3.06716e-08
-1.04342e-07
-1.28755e-08
3.09472e-08
-9.20677e-08
7.87358e-08
-3.41267e-08
2.32905e-08
2.41121e-07
-7.40027e-08
1.71084e-07
-1.67657e-07
-6.40756e-08
-6.87586e-08
5.26731e-09
1.35419e-07
6.25783e-09
-7.24775e-08
-7.38653e-08
1.39057e-07
7.28552e-09
2.16495e-08
1.26435e-07
-1.67539e-07
-2.04394e-10
7.18035e-08
-6.8759e-09
-6.88173e-10
-1.38624e-07
1.60366e-10
1.39152e-07
-1.48046e-07
1.8173e-07
-4.74736e-08
1.11028e-08
-1.01152e-08
5.29289e-08
1.15339e-07
-1.33068e-07
7.77217e-08
-2.80182e-08
8.33646e-08
-1.46083e-07
9.84113e-08
-1.32024e-07
1.30576e-07
1.65345e-10
9.57922e-08
2.23973e-08
-1.72318e-07
-2.23438e-08
1.72264e-07
-1.88973e-07
1.03591e-07
-1.41862e-07
-1.77398e-09
1.71211e-07
2.45606e-08
6.80927e-08
-9.74171e-08
4.7637e-09
2.24077e-08
1.10965e-08
1.35997e-09
-1.02647e-07
7.67696e-10
-2.41809e-07
2.42065e-07
-6.11075e-10
-9.8351e-08
-1.03559e-07
-9.57031e-08
1.04655e-07
-1.15289e-07
8.63778e-08
-1.09491e-07
1.76235e-08
5.48993e-09
1.29861e-07
-9.37292e-08
-9.30959e-09
-1.60499e-07
-1.10218e-08
2.15715e-08
1.4995e-07
-3.21327e-07
-2.09734e-10
-1.35099e-07
1.3427e-07
5.16791e-10
-9.62308e-08
8.14062e-11
4.46299e-10
-1.45982e-08
-9.7666e-08
1.56375e-07
-4.41106e-08
1.12388e-07
5.49086e-09
4.51343e-08
-1.38546e-07
1.37847e-07
-3.67375e-09
-5.00965e-08
1.37032e-07
-9.97756e-08
2.20429e-10
-1.32091e-07
-1.15891e-10
9.41946e-08
-9.61631e-08
2.5152e-10
-6.82982e-08
-6.79036e-08
1.28298e-07
7.90356e-09
1.17062e-07
1.80792e-08
-1.00216e-07
-3.49254e-08
1.04965e-07
1.57056e-07
-2.32984e-07
-3.02888e-08
-1.13015e-07
-2.01032e-08
1.31283e-07
5.26123e-11
-1.31756e-07
4.20431e-10
2.50721e-08
8.28891e-09
5.59969e-08
-8.93569e-08
-1.45866e-07
7.88039e-08
-5.41499e-09
-1.25602e-07
1.2425e-07
-6.70083e-09
-4.67303e-10
1.24984e-07
2.75057e-10
-8.23911e-08
-7.42852e-08
1.49657e-07
7.01941e-09
1.3336e-07
-7.18524e-08
-6.8489e-08
6.98135e-09
1.33789e-07
-2.51072e-09
4.78493e-12
-1.04169e-07
-9.49211e-08
1.0286e-07
-1.37394e-07
-4.88325e-08
2.28147e-08
1.65449e-07
-1.09759e-07
3.05203e-08
-1.33745e-07
3.84476e-10
-1.09367e-07
7.87609e-10
-6.3191e-10
1.38938e-07
2.66064e-08
-2.84986e-08
-1.37046e-07
4.76334e-08
-1.3495e-07
5.60982e-11
4.5516e-11
4.04672e-08
-2.01804e-07
-8.10813e-08
1.37476e-07
9.27477e-08
2.15729e-08
-1.51115e-07
-1.91587e-08
1.48701e-07
-8.41745e-08
6.09955e-09
1.37492e-07
-1.35776e-07
9.43788e-08
4.28572e-08
-1.46054e-09
-8.96463e-10
2.27119e-10
-1.01009e-07
6.93505e-08
-4.47692e-09
-1.8537e-09
-3.22722e-09
-2.43568e-09
9.93696e-08
-9.37067e-08
8.54089e-08
1.07943e-07
-1.07196e-07
-8.61556e-08
1.54897e-07
-1.72957e-07
2.78921e-10
1.95122e-10
1.63367e-07
-1.04511e-08
-1.43602e-07
-4.44539e-08
1.58237e-07
1.12781e-08
1.22657e-07
-1.15679e-07
-6.07682e-09
-9.00834e-10
-1.25381e-09
1.18613e-07
1.69629e-07
-5.89456e-08
-2.3193e-09
9.77563e-08
-8.66108e-08
-5.28504e-10
-4.35391e-12
1.46216e-07
-1.73173e-07
9.29054e-09
1.61365e-07
-4.1966e-10
-1.21724e-08
2.00251e-07
-2.51593e-07
5.50116e-08
9.68197e-10
9.41166e-08
-8.92847e-10
-9.41918e-08
-1.20818e-07
1.21135e-07
-1.94582e-10
1.15249e-09
-8.747e-11
-1.1515e-07
1.13993e-07
-9.68397e-11
-1.12951e-07
-2.8987e-10
2.26061e-10
7.38693e-08
-1.06704e-07
-7.91307e-08
1.11966e-07
4.40456e-11
-1.18719e-07
1.18737e-07
-6.16669e-11
-2.87438e-08
2.57839e-08
3.44373e-08
-2.04753e-08
-1.46187e-07
7.60866e-08
-6.20358e-09
2.9191e-08
-1.65839e-08
1.1005e-07
-1.39597e-07
6.75111e-08
6.48916e-08
7.19451e-09
-1.64781e-07
-1.15415e-07
1.15095e-07
-1.30471e-07
-4.47294e-08
6.01055e-08
1.33826e-07
-1.3464e-07
5.72247e-10
2.41902e-10
-1.79045e-09
-1.91336e-07
1.10445e-10
1.93016e-07
-1.09746e-07
2.58916e-11
1.09773e-07
-1.3216e-07
-1.56066e-10
5.59965e-10
7.49794e-08
-1.3202e-07
-7.03491e-09
3.03644e-10
-1.33873e-07
-3.23471e-13
7.8587e-08
7.96805e-08
-5.63685e-09
-7.59719e-08
-7.62839e-08
1.4601e-07
6.24571e-09
-1.20139e-07
8.69901e-10
1.19081e-07
1.88039e-10
1.28208e-07
3.19032e-08
1.14563e-07
-1.64367e-08
1.1126e-07
-5.65451e-09
-1.01695e-07
4.80374e-08
4.64157e-08
7.24142e-09
-2.01146e-08
1.33297e-07
2.18949e-08
-1.30103e-07
7.63271e-08
-7.41304e-08
-1.36426e-07
-1.10358e-07
1.21319e-07
1.25465e-07
1.1176e-07
-1.05946e-10
1.1909e-07
-1.20692e-07
1.52652e-09
7.53221e-11
-1.3618e-07
-1.32599e-07
8.50893e-10
5.33411e-11
1.75309e-08
2.92901e-08
-1.50883e-07
1.5725e-08
-4.53112e-08
2.04762e-07
1.40076e-07
-1.55289e-07
2.12851e-08
-4.73771e-09
2.00341e-08
-2.23064e-08
1.38586e-07
-3.43194e-08
-8.19603e-08
1.09335e-07
-6.43078e-10
-1.08426e-07
-2.65418e-10
-4.40772e-08
-1.49672e-07
2.97747e-07
-1.03998e-07
1.07262e-07
-8.20499e-08
-6.51434e-10
-9.94922e-11
1.05706e-07
-5.25517e-10
7.64829e-08
-7.71617e-08
1.50738e-07
-1.98596e-07
-1.35308e-07
8.22932e-08
1.31346e-07
-2.40186e-09
-3.12186e-08
-8.56267e-08
7.36375e-08
8.78924e-08
8.09911e-09
2.22744e-07
-1.31933e-07
9.30479e-09
1.53021e-07
-8.27604e-08
6.95519e-09
1.32604e-07
-1.76966e-07
1.21247e-07
-6.5465e-08
-3.84709e-08
-1.44124e-08
1.78278e-09
1.08673e-07
-1.20762e-07
7.06392e-08
-1.33673e-07
-5.26395e-09
1.53584e-07
-4.28196e-09
-5.04845e-08
1.53561e-07
-1.05011e-07
-1.67306e-09
-2.62867e-08
1.4434e-07
-1.62232e-07
4.41788e-08
1.21046e-07
2.18176e-08
-5.74794e-08
-3.25791e-09
-1.6145e-07
1.62099e-07
-9.70691e-10
-3.12483e-08
2.35341e-08
-1.00875e-07
1.08589e-07
7.78617e-08
-1.46579e-07
-5.14806e-09
-1.40765e-07
1.41238e-07
-1.69211e-10
-7.86195e-08
1.62498e-07
-1.27956e-07
-7.46651e-08
-8.16814e-08
1.54292e-08
-1.0316e-07
-9.93259e-11
2.03815e-07
8.3053e-08
-1.79325e-07
-1.0998e-07
-7.63461e-08
1.35891e-07
2.38537e-07
5.80563e-11
-9.29092e-08
-2.43877e-10
9.3095e-08
3.35592e-08
1.05648e-07
-8.01992e-10
1.54549e-07
6.3313e-09
9.97993e-08
5.81723e-08
2.65735e-09
7.60715e-08
-1.46345e-07
-5.69815e-09
-7.51718e-08
-8.47663e-08
1.5133e-07
8.60804e-09
-9.29683e-08
-4.59057e-09
-4.1356e-09
-1.26803e-07
-1.12812e-07
1.18981e-07
-8.7678e-11
-1.29085e-07
-3.4281e-09
1.26227e-07
-9.34055e-08
-1.41776e-07
1.01719e-07
1.33463e-07
-1.15458e-07
4.00853e-08
7.86647e-08
-3.29243e-09
7.3007e-08
7.24933e-08
-1.38589e-07
-6.91165e-09
-7.37388e-08
-7.11038e-08
1.38464e-07
6.37854e-09
5.3501e-08
4.94474e-08
-1.12975e-07
1.00266e-08
-6.98369e-08
1.1673e-07
-3.79499e-08
-8.94297e-09
1.08594e-07
-1.0912e-07
-1.61965e-10
-9.80253e-08
7.66259e-10
8.54277e-08
1.10429e-07
-2.94846e-08
-1.66372e-07
-3.23905e-08
9.27115e-08
3.97563e-08
-1.00077e-07
-1.00931e-07
-8.7125e-11
1.02858e-07
-1.84001e-09
-7.68668e-08
-4.43522e-08
9.89126e-08
1.28067e-07
-3.29194e-09
7.29628e-08
-1.36165e-07
6.82621e-08
-5.06e-09
-6.48594e-08
4.95147e-08
-1.35581e-07
1.1709e-08
1.26659e-07
-1.06115e-07
-2.99437e-08
2.71168e-08
8.65072e-08
-7.79088e-08
1.05355e-09
-1.2671e-07
-1.797e-10
-2.74624e-08
3.05372e-08
1.07248e-07
-1.21207e-07
5.87096e-08
5.54544e-08
7.04256e-09
7.65769e-08
-4.90675e-09
4.09922e-08
6.55292e-08
7.33728e-09
9.08077e-09
1.33295e-07
-1.103e-08
-6.88611e-09
-8.5619e-08
8.38009e-08
1.40404e-07
-7.74806e-08
-1.63971e-07
1.64625e-07
1.72769e-07
5.99362e-08
-5.76322e-08
-1.75073e-07
1.39407e-08
-1.33523e-07
1.44655e-07
-8.17531e-08
-7.3863e-08
1.48837e-07
6.77897e-09
-5.25443e-08
-1.25776e-07
2.07296e-09
7.05581e-08
-6.88825e-09
1.3487e-07
-8.90508e-10
-1.53723e-10
2.33339e-08
-8.98462e-08
9.57033e-08
3.01845e-10
2.37362e-10
-1.41304e-07
-4.43375e-09
7.65377e-08
-7.31685e-08
1.18813e-08
-8.74661e-08
1.49605e-07
-7.40206e-08
-2.90565e-08
-1.4113e-07
1.05976e-09
1.69126e-07
9.77705e-08
-1.87728e-07
7.31919e-08
1.67657e-08
-1.2718e-07
9.40777e-08
-1.01997e-07
1.04285e-07
-6.9341e-10
-1.03413e-07
-1.78665e-10
-4.73246e-08
-1.33014e-07
4.80699e-08
1.32269e-07
-7.51798e-08
-1.2825e-07
1.5433e-07
4.90999e-08
-2.94225e-09
-1.48022e-07
1.48478e-07
2.48635e-09
-1.29789e-07
1.29674e-07
-1.67512e-09
-1.5032e-07
1.32852e-07
-6.66335e-08
1.43809e-07
7.3449e-08
-6.31693e-09
7.96627e-08
-1.41806e-07
-6.64226e-08
-1.3093e-07
9.1813e-08
-1.06749e-07
-1.39716e-08
1.4869e-07
-9.13262e-08
-3.60124e-08
1.24484e-07
-1.22689e-07
-3.28314e-09
1.48901e-09
-1.01732e-07
-2.46998e-09
4.39661e-09
6.9126e-12
-1.55434e-07
1.52485e-07
-9.35892e-08
-1.12083e-10
7.32989e-10
-9.68119e-08
8.13617e-08
1.61348e-08
-6.84518e-10
-5.81832e-08
-1.38712e-07
1.87025e-07
9.8701e-09
1.19922e-07
-4.47662e-10
5.82015e-08
4.99183e-08
-1.16688e-07
8.56786e-09
-1.1237e-07
-4.81371e-10
1.12625e-07
2.25482e-10
-1.09976e-07
1.60193e-08
-2.67352e-08
6.57212e-08
-1.2492e-07
5.2887e-08
6.31202e-09
-4.93926e-09
-9.77261e-08
4.314e-09
1.70771e-09
-1.39539e-07
1.40621e-09
5.56306e-08
7.78345e-08
-5.56324e-08
1.70057e-08
2.6521e-08
2.15011e-08
1.31306e-07
-1.31851e-07
7.49819e-10
-2.05232e-10
-2.14297e-07
2.02053e-07
8.86204e-08
-7.63768e-08
5.95874e-08
-1.53383e-07
1.17934e-07
-2.41382e-08
7.72853e-08
-6.79822e-09
-6.994e-10
-1.99586e-10
5.98055e-08
-6.37094e-08
-1.20303e-07
1.72096e-07
-1.43197e-07
1.18115e-07
-1.54041e-08
6.368e-10
-1.58996e-07
1.5826e-07
1.36116e-07
-1.65864e-07
-1.5003e-09
-9.06553e-08
-8.60966e-08
1.69791e-07
6.96068e-09
9.72991e-08
3.4623e-10
-9.76805e-08
3.50898e-11
-1.53274e-07
8.19777e-08
7.60679e-08
-4.77201e-09
-2.08707e-07
1.29623e-07
-1.44749e-07
2.23833e-07
-2.01162e-07
2.6213e-08
-4.72951e-08
-1.17542e-07
-1.70918e-07
1.0538e-07
3.92508e-08
-1.52244e-08
-1.33379e-07
1.45259e-07
3.34413e-09
-3.5e-09
-1.16634e-07
-1.0049e-08
1.07005e-07
-1.15815e-07
1.29232e-07
-4.25162e-08
1.66588e-07
1.8432e-07
8.10461e-08
-1.30398e-07
-1.28074e-07
4.19185e-10
1.2347e-07
-1.23779e-07
-1.10261e-10
1.07278e-07
-1.16263e-07
4.0451e-09
-8.28105e-08
-6.10588e-10
7.3515e-08
1.09084e-07
-4.77282e-08
6.58542e-08
-1.27754e-07
-4.73407e-09
-4.52438e-10
1.20247e-07
-1.19862e-07
6.74412e-11
-1.24018e-07
-3.86776e-10
1.24986e-07
-5.81751e-10
-1.26896e-07
4.67596e-08
-3.55426e-08
-1.2338e-08
1.05232e-07
8.41305e-08
-1.31715e-09
-1.88045e-07
3.38273e-09
-2.8182e-11
-1.77266e-08
8.68477e-08
-1.56209e-07
8.70877e-08
-1.34986e-07
1.36989e-07
6.94992e-08
-6.41456e-09
2.9328e-08
-1.39624e-07
-3.94297e-08
1.49726e-07
4.35575e-08
1.1646e-08
3.48225e-08
-9.0026e-08
7.30435e-08
8.03212e-08
-1.46818e-07
-6.54637e-09
-1.08848e-07
1.07171e-07
1.74244e-09
-6.50189e-11
-7.22977e-08
7.22194e-09
5.92969e-08
-5.70767e-08
1.34065e-07
-1.36285e-07
-1.11677e-07
2.37185e-07
-4.99105e-08
-7.55975e-08
9.16719e-08
-7.63063e-08
-8.04059e-08
6.50403e-08
7.28007e-08
-6.00045e-08
-1.44365e-07
5.74404e-08
8.30524e-09
6.18882e-08
8.61117e-08
7.9822e-08
8.28844e-08
-1.56466e-07
-6.24012e-09
1.43549e-07
8.45288e-09
-6.58165e-09
-1.4542e-07
1.09057e-07
6.6506e-10
-3.86935e-10
1.02504e-07
-1.04626e-07
2.45757e-09
-3.35981e-10
-7.00512e-08
-8.23872e-08
1.45542e-07
6.89648e-09
-1.28725e-07
1.40353e-09
4.25435e-10
-1.12725e-07
8.33918e-12
3.46639e-10
1.21507e-08
1.3265e-07
1.18886e-07
2.04937e-09
-1.01369e-09
9.83555e-11
-1.10446e-07
1.09867e-07
1.03632e-07
1.80683e-08
2.78331e-09
-1.29779e-08
3.88804e-08
-1.28944e-07
1.03041e-07
1.3321e-07
-1.32894e-07
-1.19506e-10
-1.96711e-10
-3.17516e-08
-1.27539e-07
1.85504e-07
-1.26979e-07
-2.06068e-08
1.53169e-07
-5.58259e-09
1.65466e-07
-1.40198e-07
-2.42238e-08
-2.22061e-08
1.38102e-07
1.35053e-07
-1.36698e-07
1.06409e-09
5.8102e-10
1.60826e-07
-4.97761e-08
-1.58502e-07
4.74526e-08
1.34174e-07
-1.34226e-07
1.58571e-07
-1.5852e-07
9.69547e-09
-1.36374e-08
-1.05729e-07
1.09671e-07
2.87746e-08
-1.10464e-07
-4.68114e-08
1.28501e-07
9.33056e-08
8.44204e-08
-1.70468e-07
-7.25798e-09
2.19872e-07
-2.32665e-07
-1.67556e-07
-7.30573e-08
1.09707e-07
-1.41156e-08
1.34651e-08
-2.0116e-07
1.74522e-07
-9.27277e-08
1.45248e-07
-2.46395e-07
1.93875e-07
8.48211e-08
-1.71492e-07
-6.0563e-09
2.19641e-08
9.64868e-08
-1.65425e-08
-1.01908e-07
-1.68819e-09
1.13279e-07
-1.59225e-08
-9.10777e-08
-6.3721e-08
1.6583e-07
-1.15285e-07
1.31762e-08
-2.93035e-08
8.43525e-08
-4.76606e-08
-7.38828e-09
3.00801e-10
-1.06364e-07
1.06559e-07
-4.9544e-10
3.06426e-09
1.33955e-07
-1.35803e-07
-1.21649e-09
1.13777e-08
-1.37073e-07
1.43752e-07
-1.12316e-08
-9.48332e-08
2.01948e-07
1.61472e-08
-5.16542e-08
-4.77881e-08
1.35373e-07
-2.3017e-07
-7.55526e-08
-1.62907e-07
1.28508e-07
-7.72788e-08
1.32912e-07
-1.29315e-07
-5.32595e-10
-1.06373e-07
1.46312e-09
-2.14796e-09
1.07058e-07
6.66221e-08
-2.0565e-07
-1.56284e-07
1.34187e-12
1.34972e-07
-1.3474e-07
-2.33787e-10
-1.42511e-07
-5.01605e-08
1.82553e-07
6.36494e-09
-9.96056e-09
1.19485e-07
-1.07119e-07
-1.25065e-08
1.56376e-07
-1.24589e-07
7.22194e-10
-1.51297e-10
6.9253e-08
-1.63243e-07
8.89046e-08
5.08549e-09
-1.4924e-09
-1.38808e-07
-1.5838e-09
1.36469e-07
6.07369e-09
-1.1203e-07
5.71443e-08
5.3024e-08
1.86175e-09
-1.14734e-07
3.10634e-08
1.56472e-07
-5.381e-12
1.45927e-07
-9.21294e-10
-1.45001e-07
8.12997e-09
1.28918e-07
-2.74856e-08
-1.09563e-07
1.55464e-07
-1.7712e-07
9.14443e-08
-6.97882e-08
4.86702e-08
1.22855e-07
-6.04696e-08
-6.75454e-09
9.26701e-08
1.15449e-07
-1.988e-07
-1.34215e-08
-6.99295e-09
1.17858e-07
-1.42557e-07
1.24152e-07
4.45885e-10
-1.24645e-07
4.68428e-11
8.07834e-09
1.08399e-07
-4.08883e-09
8.58818e-08
-2.13389e-07
3.41014e-08
-1.41979e-07
1.91024e-09
-7.97528e-08
-6.82299e-08
1.41068e-07
6.91517e-09
-1.13001e-07
-5.10382e-08
3.50113e-08
1.29028e-07
-1.2754e-07
-5.75079e-10
-6.09636e-10
-7.49931e-08
1.58411e-07
-8.95155e-08
6.09725e-09
7.98089e-08
-1.58818e-07
8.29671e-08
-3.95776e-09
-1.19714e-07
-2.64859e-10
1.09171e-07
-1.12451e-07
5.07719e-09
-1.797e-09
1.62195e-07
-9.09974e-08
8.61158e-09
-1.22495e-07
2.08509e-08
-2.10448e-08
6.38626e-08
-1.05553e-07
-2.39058e-08
1.34173e-07
-1.33315e-07
-2.22049e-10
7.30136e-08
6.5572e-08
-6.52311e-08
-7.33544e-08
8.60228e-08
1.60341e-07
-1.73357e-07
8.4535e-08
7.18087e-08
-1.50989e-07
-5.35504e-09
-1.23302e-07
6.51971e-08
5.07986e-08
7.30635e-09
1.60368e-10
1.34452e-07
4.41055e-10
8.53288e-08
7.92453e-08
-1.59121e-07
-5.45272e-09
1.14181e-07
1.24359e-07
-1.02442e-08
-1.10539e-07
-3.57598e-09
1.01758e-07
6.12623e-11
1.58249e-07
-1.59806e-07
-8.78637e-08
8.94203e-08
5.3318e-08
6.37664e-08
7.27452e-09
-6.24909e-09
-2.86693e-07
2.01577e-08
1.93667e-07
-3.56133e-09
6.25929e-09
1.64252e-07
1.4074e-07
-2.39271e-07
-1.31847e-07
1.05466e-09
-1.88652e-09
1.32678e-07
7.39936e-10
1.05839e-07
-1.06568e-07
-1.15976e-11
-8.52417e-08
1.94602e-07
-1.91114e-07
5.55544e-08
1.32196e-07
-6.9351e-08
-1.18399e-07
4.92373e-08
6.20414e-08
-1.18865e-07
7.58654e-09
1.59913e-07
-1.24136e-08
2.22913e-08
-1.42554e-07
-5.59383e-09
6.03745e-08
-1.69558e-07
-1.95715e-08
-1.02383e-07
-1.19003e-07
1.11864e-07
2.13197e-08
-5.15782e-09
-2.2235e-08
1.0276e-07
3.13386e-08
1.82325e-13
-8.7925e-08
-5.88432e-10
1.33621e-07
4.13064e-09
4.10898e-10
3.22086e-10
-2.10999e-07
-1.6397e-08
-3.15529e-10
6.56103e-08
1.53955e-08
-7.25753e-08
-1.60668e-08
2.9312e-07
-1.28823e-07
-1.48231e-07
-1.81761e-07
1.4888e-07
1.23273e-07
-1.56403e-07
-7.35085e-08
7.90677e-08
-8.10927e-08
7.55336e-08
1.27543e-07
-1.32274e-07
-3.88845e-09
8.61912e-09
-4.36882e-09
-6.8437e-08
8.5745e-08
-1.99069e-07
-8.66131e-08
6.97378e-08
-9.55445e-08
-1.29893e-07
2.94774e-07
-4.42707e-08
-1.05147e-07
-1.3825e-08
-8.20952e-08
1.65771e-07
2.34706e-09
-3.58075e-08
-7.66907e-08
9.5986e-08
1.65123e-08
4.3076e-08
-1.92823e-07
8.72995e-08
6.24476e-08
-1.13192e-07
1.13115e-07
-3.23143e-10
4.00036e-10
9.75247e-08
-1.67575e-10
1.50397e-08
1.34455e-07
1.19992e-07
-7.94035e-09
-8.85177e-08
-1.49024e-07
1.91782e-08
5.62018e-10
1.32072e-07
-1.19717e-07
1.75016e-07
-5.36668e-08
-5.91893e-09
3.05361e-09
1.33618e-07
-3.05035e-09
1.12613e-07
4.20043e-08
-1.63509e-07
-3.17691e-08
-1.34527e-07
-1.16586e-07
-9.10229e-08
4.71099e-08
-1.16855e-08
1.14967e-07
-8.9023e-09
-1.00918e-07
-1.16348e-07
-3.68946e-09
1.01452e-07
-1.3068e-07
1.04902e-07
-6.05544e-10
-1.03602e-07
-6.94557e-10
-2.75302e-08
-1.57438e-07
-1.89223e-07
1.88933e-07
1.18579e-07
-5.03987e-08
1.18968e-08
-8.00771e-08
1.20218e-07
-5.38873e-10
-1.1948e-07
-1.99241e-10
9.0467e-10
1.08076e-07
-1.09329e-07
3.48911e-10
3.07577e-08
1.2715e-07
-3.90218e-08
-8.2483e-08
-8.72096e-08
1.08743e-08
8.35089e-09
1.16217e-07
-1.20636e-07
-3.93149e-09
-1.3282e-07
1.43487e-07
-2.31671e-09
-1.41353e-07
-3.86968e-09
-1.58818e-07
1.61043e-07
-5.90439e-08
-9.10351e-08
1.56115e-07
-6.03638e-09
1.14202e-07
-1.49964e-08
7.10296e-10
-2.1972e-10
5.00061e-08
1.26011e-08
-1.09507e-09
-2.86336e-10
7.96405e-08
8.74377e-08
-6.25225e-09
-3.57026e-08
1.06026e-07
8.34876e-08
-3.07556e-07
-2.11752e-07
3.36855e-07
1.80283e-07
1.56552e-07
-6.53279e-08
-1.00925e-07
6.3028e-09
-7.99715e-10
-1.30697e-07
-3.53973e-10
5.72642e-08
6.57994e-08
-1.22062e-07
-1.00172e-09
-1.20738e-07
1.20631e-07
2.0507e-10
-9.79188e-11
1.10843e-07
3.42675e-08
-1.4534e-08
1.44119e-09
2.05322e-07
-4.70992e-09
-5.58742e-08
-8.48711e-08
-3.6199e-09
-7.10155e-08
-2.47468e-08
6.27782e-10
1.14296e-07
-1.14259e-07
8.23419e-08
-2.03181e-07
1.1244e-07
-9.7121e-10
-6.25858e-10
7.33558e-08
6.86253e-08
-1.38169e-07
-3.81188e-09
-1.70144e-07
8.50074e-08
-2.41927e-08
-2.8562e-08
-3.95318e-08
1.35123e-07
-6.70294e-08
-3.1121e-08
7.46426e-08
3.25462e-08
-1.48214e-07
-9.36678e-08
9.91674e-08
1.42715e-07
8.04112e-08
-5.7394e-09
6.83347e-08
1.35548e-07
-5.54288e-08
-1.48454e-07
-3.8641e-09
1.23791e-07
1.54187e-08
-1.35346e-07
1.18006e-07
-1.00055e-07
-2.20935e-08
4.14249e-09
1.49041e-07
-2.01917e-07
1.86831e-07
1.48303e-07
-7.19944e-08
-6.94871e-08
-6.82163e-09
4.48846e-08
-1.78628e-07
-1.27983e-07
-1.26634e-07
-1.26282e-10
-1.97657e-07
1.66371e-07
-1.72741e-07
2.04027e-07
8.51479e-08
-1.81254e-07
-2.6766e-08
1.24727e-07
-1.23637e-07
-4.38995e-10
-6.51432e-10
6.30364e-08
-1.26208e-07
-5.26564e-09
-7.44299e-09
7.27862e-08
-1.71526e-07
8.29008e-08
-1.43117e-07
1.37374e-10
1.67339e-10
1.42813e-07
-8.25379e-08
1.42953e-07
-2.00353e-07
-9.7401e-08
-2.69374e-08
-7.29788e-09
6.21532e-08
7.2489e-08
-6.13384e-09
-5.49179e-08
-6.25179e-08
-5.86626e-09
-3.95546e-09
-1.0963e-07
-1.0529e-07
-1.0866e-09
-5.65378e-09
7.22805e-08
-7.20644e-08
8.01737e-10
-1.01784e-09
1.11577e-07
-1.09437e-07
-1.25239e-09
-8.87967e-10
-1.46449e-09
1.33026e-07
-1.31869e-07
3.08105e-10
-1.37483e-07
1.48341e-08
1.1714e-07
5.50916e-09
1.33356e-07
-1.2648e-07
-4.80135e-09
-2.07372e-09
-1.12355e-07
-1.22131e-09
1.14235e-07
-6.58339e-10
-1.09018e-07
-6.66562e-08
1.01791e-07
3.56806e-08
-1.01206e-08
-1.27351e-07
7.86814e-08
-8.37157e-08
4.15085e-09
8.8341e-10
4.73357e-08
3.92967e-08
-1.33957e-07
1.13822e-07
-1.10883e-07
-7.33126e-09
4.39171e-09
-5.31504e-08
5.3684e-08
1.59793e-07
5.77425e-09
1.35293e-07
-1.01028e-07
1.24952e-08
-2.88294e-08
-1.2241e-08
-1.07144e-07
-2.94405e-08
2.01635e-07
6.05006e-09
-1.76988e-07
1.36633e-07
-3.51573e-08
-2.03547e-08
2.20703e-08
-8.43942e-08
6.36432e-09
-1.31364e-07
1.31258e-07
6.07674e-08
-7.34817e-08
-3.16379e-08
8.0256e-08
2.14979e-09
6.19837e-08
5.72224e-08
-7.56486e-08
-8.71035e-08
1.2009e-07
-1.33873e-08
-7.3744e-08
6.03878e-09
9.89907e-08
1.18817e-08
2.36346e-08
2.61686e-08
-1.11743e-08
5.3747e-08
6.2199e-08
6.90892e-09
-5.17883e-08
1.69434e-07
-1.75829e-07
-1.83705e-07
9.09362e-08
2.3192e-07
-1.56488e-07
1.11148e-07
-3.42743e-08
6.39816e-08
-1.40855e-07
-1.28622e-07
-4.44832e-08
-1.51498e-07
-5.59044e-09
-1.0666e-07
8.33918e-08
-9.20493e-08
1.15317e-07
9.21795e-09
-1.26032e-07
-1.47844e-07
-7.80931e-09
-4.15235e-09
-1.33422e-07
1.209e-07
1.30528e-07
2.05213e-08
1.06883e-07
2.12878e-09
-1.3888e-07
1.28415e-07
-8.99165e-08
1.00382e-07
-1.05427e-07
1.40542e-08
-2.13521e-08
-3.55197e-08
6.07794e-08
3.00447e-08
-4.40761e-08
-1.16597e-07
-4.57958e-08
1.27215e-08
-7.41393e-08
-8.88222e-08
7.77758e-09
-7.34521e-08
8.42338e-08
8.42149e-08
2.45962e-08
4.43474e-08
-1.53159e-07
1.29417e-08
7.5397e-08
-8.80557e-08
6.02443e-09
-8.35501e-08
-9.41184e-08
7.52482e-09
6.50779e-08
-7.59198e-08
-5.01722e-08
6.1014e-08
-5.07055e-08
-9.13682e-09
1.54388e-07
-1.94649e-07
4.08167e-08
-5.55771e-10
-8.77966e-09
2.865e-08
8.30746e-08
-1.02945e-07
5.49808e-10
-9.85079e-08
-1.04038e-09
9.89984e-08
-1.04927e-07
1.04052e-07
4.88483e-10
3.86522e-10
1.36529e-07
-7.46214e-08
-1.38192e-07
-6.32099e-08
-3.98122e-08
1.04641e-07
-1.61891e-09
1.60895e-07
1.20663e-08
-1.22304e-07
6.1866e-09
-1.4656e-07
1.7291e-08
-5.10242e-10
-9.08838e-08
-1.1816e-07
1.18601e-07
-3.0348e-10
1.6386e-07
-2.45427e-09
-1.52961e-07
-7.247e-09
-1.48697e-08
2.21716e-07
-6.99642e-10
-2.47859e-08
-8.15182e-10
1.01285e-07
-1.00549e-07
2.31928e-10
1.46047e-09
8.06198e-09
2.75246e-08
1.28048e-07
-3.30114e-08
1.26168e-07
-9.16741e-09
-3.44345e-09
1.33359e-07
-1.28529e-07
-1.38653e-09
-1.09099e-07
1.1141e-07
-5.30896e-09
1.27367e-07
5.63903e-09
-3.31875e-08
-9.98185e-08
1.24189e-07
1.86267e-09
-1.2406e-07
-1.99201e-09
-7.40236e-08
-5.61152e-08
7.42646e-08
9.27093e-08
1.53524e-09
1.63368e-07
2.0315e-08
-3.76728e-08
-1.52702e-08
3.73234e-09
-8.13714e-08
1.27487e-07
-1.79372e-07
-2.51385e-07