/*--------------------------------*- C++ -*----------------------------------*\
| =========                 |                                                 |
| \\      /  F ield         | OpenFOAM: The Open Source CFD Toolbox           |
|  \\    /   O peration     | Version:  2212                                  |
|   \\  /    A nd           | Website:  www.openfoam.com                      |
|    \\/     M anipulation  |                                                 |
\*---------------------------------------------------------------------------*/
FoamFile
{
    version     2.0;
    format      ascii;
    arch        "LSB;label=32;scalar=64";
    class       volVectorField;
    location    "0.066";
    object      U;
}
// * * * * * * * * * * * * * * * * * * * * * * * * * * * * * * * * * * * * * //

dimensions      [0 1 -1 0 0 0 0];

internalField   nonuniform List<vector> 
31639
(
(0.126429 0.000581317 -0.000646898)
(0.122565 -0.000521599 2.90978e-05)
(0.124891 -0.000251481 0.000805365)
(0.129017 4.66948e-05 -0.000275424)
(0.125128 -0.000837696 -0.000287889)
(0.123303 -0.000188676 -6.51774e-05)
(0.123118 -4.95985e-05 -0.000199984)
(0.1261 -0.00013733 6.47442e-05)
(0.125841 0.000303902 -0.000253367)
(0.126728 -0.000540919 -0.000439787)
(0.127679 0.000496065 -3.98934e-05)
(0.126602 -0.000564169 -0.000824119)
(0.123426 -0.000569407 7.30732e-05)
(0.126606 -3.36464e-05 0.000239288)
(0.121824 -0.00040743 0.000195985)
(0.123673 -0.000445098 0.000853915)
(0.125533 0.000624563 1.32614e-05)
(0.122232 9.35511e-05 0.000369344)
(0.12373 -0.000130471 -0.000374274)
(0.124433 -8.48622e-05 -0.00024759)
(0.116915 -0.00030469 -0.000405637)
(0.127979 -0.000330469 -0.000622108)
(0.127228 0.000704399 -0.000174798)
(0.123185 0.000226209 -0.000383563)
(0.121558 -0.000253855 -0.000180826)
(0.125227 -0.000340917 0.00015055)
(0.123979 -2.46914e-05 -0.00024781)
(0.125515 0.00200666 -0.000119354)
(0.122733 0.000353612 0.000753829)
(0.127437 -0.000300596 0.000709144)
(0.127602 -0.000184455 -6.0654e-05)
(0.122301 -2.91212e-05 -0.00030513)
(0.127593 0.00036912 -0.000454029)
(0.123032 -0.00018377 -2.69346e-05)
(0.118863 0.000275562 0.000796703)
(0.127802 0.000390681 0.000265533)
(0.115562 -0.000516746 -0.000140332)
(0.128667 -0.000623402 0.00028778)
(0.127095 -0.000367079 0.000270985)
(0.115448 3.46997e-05 -0.000182606)
(0.119884 -0.000112578 -0.000324525)
(0.118487 -0.000560449 -1.38295e-05)
(0.126242 -3.53366e-06 2.7379e-05)
(0.128362 -0.000844902 -0.00088496)
(0.126894 -0.000765415 0.000738575)
(0.128049 -0.000918996 -0.000349902)
(0.120402 0.000391575 -0.000269239)
(0.124701 0.000586976 -0.000295318)
(0.124766 -7.31418e-06 0.000273881)
(0.128594 -0.000478644 -0.000157282)
(0.127619 -0.000327304 -0.000582573)
(0.117459 7.03393e-05 -0.000254234)
(0.126563 0.000836617 0.000162325)
(0.11675 -0.00036401 0.000561908)
(0.125061 -0.000498581 -0.000194868)
(0.125031 0.000179766 -0.000105032)
(0.117998 -0.000119377 -0.000546863)
(0.124326 6.2311e-05 0.000385285)
(0.123539 0.000173483 0.000440442)
(0.118667 0.000352381 -0.000233262)
(0.126427 -0.000283143 -0.000531)
(0.127121 0.000359741 -0.000315826)
(0.122226 -0.000398112 -0.00029381)
(0.123547 -0.000117437 -0.000271256)
(0.126008 0.000531712 0.000629692)
(0.12853 -0.000359669 -0.000549456)
(0.125903 -8.95331e-05 -0.00106095)
(0.12399 -0.000298567 0.000149716)
(0.120293 4.05725e-05 -0.000456277)
(0.128528 0.000360672 -0.000182559)
(0.126095 0.000116943 0.000148234)
(0.120614 0.000607944 -0.00128973)
(0.126479 -0.000391413 -0.000835439)
(0.124573 -0.000301076 -0.00018912)
(0.125962 0.000855644 0.000176719)
(0.116954 0.000538677 -0.000614235)
(0.12764 -0.000635219 0.000362084)
(0.123925 0.000186003 -0.000673211)
(0.122686 -0.000335446 0.0004664)
(0.12634 0.00018835 9.68458e-05)
(0.122353 -6.02082e-05 4.81148e-05)
(0.1139 -0.000459409 2.76367e-05)
(0.127965 -0.000513087 0.000175291)
(0.124439 -0.000206073 -0.000338987)
(0.125115 -0.00018639 -6.87898e-05)
(0.1277 -0.000637618 -0.000369027)
(0.128707 -0.000217994 0.000142298)
(0.127736 -0.000228153 -0.000502309)
(0.118105 0.000870814 -0.00152063)
(0.126911 -0.000153338 -0.000527204)
(0.124844 -0.000434243 0.00025419)
(0.123594 -0.00055939 -0.000268211)
(0.118955 -0.000520351 -0.00055564)
(0.121343 0.000806244 -0.000844236)
(0.12243 -0.000893806 -0.000480734)
(0.123307 0.000794756 0.000584113)
(0.125106 0.000153862 -0.000580033)
(0.12422 -0.000273863 0.000152633)
(0.123595 0.000137524 0.000437853)
(0.117879 -0.00142341 -0.000261019)
(0.125623 0.000243922 -0.000616922)
(0.125351 -0.000148591 -0.00181882)
(0.122212 -0.000442219 -9.44869e-05)
(0.117114 0.000113913 -0.000237069)
(0.11841 -5.36764e-05 -0.000405011)
(0.128062 -0.000709326 -0.000351749)
(0.116662 0.000345673 -0.000520605)
(0.11772 -0.00106064 -0.00093526)
(0.120824 0.000328942 -9.114e-05)
(0.115816 -0.000724048 0.000727861)
(0.125735 -0.00168773 0.000513503)
(0.119094 -0.000146113 -0.000269415)
(0.123525 0.000252423 -0.000104062)
(0.123522 -0.000816435 -0.000668879)
(0.123755 2.49647e-05 -0.00106159)
(0.116654 -0.000471696 0.000311931)
(0.123359 0.000684956 0.000273155)
(0.122976 -0.000903773 -0.000240475)
(0.124982 0.000204596 0.000254927)
(0.123394 -0.000428181 6.58804e-06)
(0.125877 -0.000203639 -0.000325804)
(0.126133 -0.000448712 0.000287576)
(0.127248 -5.84061e-05 -0.000621367)
(0.126433 0.000428684 -0.000725502)
(0.126296 -0.000418876 -0.00090976)
(0.127164 -0.000516124 0.000218252)
(0.123403 -7.4334e-05 0.000543698)
(0.122252 0.000170891 -0.000274741)
(0.122042 -0.000754804 -0.000461201)
(0.126895 -0.000297842 0.000340345)
(0.126566 0.000307083 8.16084e-05)
(0.12704 -1.33937e-06 -0.000588216)
(0.125785 -0.000768651 -9.66881e-06)
(0.124785 -0.000141183 0.000133447)
(0.127562 -0.000102341 -0.000102136)
(0.124197 -0.00012096 0.000115501)
(0.118863 -0.000160032 -0.000285415)
(0.117759 -0.000840504 -0.000579598)
(0.127362 0.000392769 0.000650701)
(0.12355 -0.000538656 -0.000521935)
(0.123243 -0.000305831 -0.000401622)
(0.128169 0.000265541 0.00126036)
(0.126929 0.000360665 0.000316278)
(0.117142 -0.000369416 -0.000503007)
(0.117659 -0.000172024 -0.000745197)
(0.126702 -0.000344564 6.09312e-05)
(0.126504 9.04998e-05 -0.000282195)
(0.118418 -0.00028222 -0.000420439)
(0.119011 -8.86062e-05 0.000235242)
(0.12734 -0.000524929 0.000242961)
(0.121279 -6.0132e-05 -0.00129051)
(0.123611 -0.000266331 -5.38311e-05)
(0.12434 -0.000671675 -0.000901607)
(0.127062 -3.9035e-05 0.000112687)
(0.119564 0.000637302 -0.00130922)
(0.129047 1.70405e-05 -1.74929e-05)
(0.12614 -0.000503302 -0.000303317)
(0.119795 -0.00131139 -0.000236248)
(0.118146 -0.00074232 0.00112932)
(0.123099 -0.000410235 -6.83558e-05)
(0.12818 -0.000193359 -0.000481207)
(0.11674 0.000499775 -2.52804e-05)
(0.118722 0.000464156 -0.000997965)
(0.118232 -0.000473649 0.000215281)
(0.116729 -0.00105013 0.000190263)
(0.122806 0.000671396 -0.000337744)
(0.118379 0.000325149 0.000277471)
(0.127755 -0.000551832 9.80532e-05)
(0.127548 -0.000525782 0.000228209)
(0.118435 0.000284981 -0.000921476)
(0.119874 -0.00108753 0.000231009)
(0.122829 0.000751322 -0.000486568)
(0.118688 2.24179e-06 -0.000103261)
(0.12446 -0.000121701 0.000552729)
(0.128332 -0.000340704 -0.000182467)
(0.126028 -0.000809491 -0.000510263)
(0.123977 0.000612601 0.000252784)
(0.126826 0.000592977 0.000357185)
(0.124604 -0.000572492 -3.60799e-05)
(0.122538 -0.000608548 1.32477e-05)
(0.122666 0.000140165 -3.93327e-05)
(0.123395 -0.000574614 0.000775455)
(0.121857 -5.95059e-05 0.000260293)
(0.115883 0.000970472 -0.000698484)
(0.125563 -0.000339764 6.56511e-05)
(0.128255 -0.000148565 -0.000178353)
(0.123829 0.000366092 0.000910621)
(0.127411 0.000158565 -0.000174845)
(0.119194 -0.000317023 0.00010061)
(0.116365 -0.000114589 0.000488442)
(0.128578 -0.000175753 -7.28891e-05)
(0.127136 -0.000211873 -0.000303773)
(0.124347 -0.000275978 0.000395141)
(0.12305 -0.000128475 0.000295491)
(0.123706 -0.000295694 -0.000458493)
(0.124775 -0.000329131 -0.000769419)
(0.124453 0.000793858 0.000417478)
(0.126616 0.000581646 -0.00046255)
(0.118781 -0.00021052 -0.000357389)
(0.122957 0.000111493 -0.000216228)
(0.128117 -0.000149115 0.000356312)
(0.126402 -0.000175682 0.000351085)
(0.126308 -5.22461e-05 0.000380888)
(0.123399 -0.00169469 -0.00104633)
(0.124737 -0.000613222 -0.000455498)
(0.121743 0.000139458 -0.00038336)
(0.123594 -0.000376581 -0.000479284)
(0.12175 0.000617643 -0.000733154)
(0.127356 0.000149705 -0.000812047)
(0.116704 -8.8323e-05 2.12573e-05)
(0.123742 -0.000107309 -0.000223639)
(0.123483 0.000318936 6.0325e-05)
(0.125093 -2.67135e-05 0.000144233)
(0.127801 -0.000259172 -0.000548371)
(0.127025 -0.000623219 -0.000420021)
(0.128097 -0.000288235 -0.000294932)
(0.118684 -0.00114238 -0.000346243)
(0.122125 -0.000939794 0.000477125)
(0.126867 -0.000381245 -0.000394275)
(0.12752 -0.000250639 0.000383651)
(0.126224 1.74216e-05 0.000404366)
(0.124565 -0.000526597 -0.000627969)
(0.114623 -0.00047247 0.00059099)
(0.123575 -0.00027928 0.000279151)
(0.118594 -0.000901743 -0.000319152)
(0.121541 0.000302365 0.00012674)
(0.127016 -0.000450165 0.000438452)
(0.122392 1.65581e-05 0.000671101)
(0.117302 0.000457188 -0.000249526)
(0.124598 0.000431549 0.000245443)
(0.126603 0.000683224 -0.000280905)
(0.128315 -0.000716747 2.41091e-05)
(0.117929 -0.000427758 1.57378e-06)
(0.117078 -0.000822272 0.000469907)
(0.125436 -0.000205724 0.000474935)
(0.127447 -0.000145776 -0.000611505)
(0.118009 -0.000102018 0.000477699)
(0.127513 -0.000522134 0.000327854)
(0.121814 -0.000120647 -0.000546878)
(0.118986 -0.000537476 0.000204777)
(0.122801 0.000327853 -0.000428457)
(0.125709 -0.000370855 0.000130814)
(0.121999 -0.000848534 -0.000290469)
(0.121106 0.000228511 0.00104892)
(0.122581 0.000453791 0.000482363)
(0.12509 0.000181656 -0.000279225)
(0.122273 0.000366512 -0.000595429)
(0.121657 0.00103718 -0.00121094)
(0.116842 -0.000412282 0.000617259)
(0.122292 0.000134577 -0.000833956)
(0.12279 3.71905e-05 -0.000700108)
(0.120358 -3.7084e-05 2.68684e-05)
(0.122581 -0.00111251 0.00060627)
(0.127514 0.000312115 -0.000148406)
(0.127628 0.000520839 0.000246446)
(0.124789 0.000284336 -4.76048e-05)
(0.119122 0.000183567 9.27742e-05)
(0.126869 0.000365571 -0.000199932)
(0.126888 0.000277636 -0.000518936)
(0.124698 -0.000379153 -0.000257821)
(0.128575 0.000107378 0.000888383)
(0.128013 0.000157498 -0.000443574)
(0.125803 0.000135854 -0.000448887)
(0.127744 -0.000191548 3.75084e-05)
(0.122019 0.000437627 0.000341388)
(0.124427 -0.000375992 -0.00067573)
(0.117308 0.000186969 -0.00174354)
(0.122724 0.000226184 2.95325e-05)
(0.126996 -0.00125786 0.000512986)
(0.121998 -4.84417e-05 0.000475506)
(0.127341 0.000465315 -0.000197755)
(0.123436 0.000469349 -0.000673278)
(0.125242 -0.000265049 0.000226299)
(0.126035 0.000418767 0.000448202)
(0.128214 -5.84479e-05 -0.000736193)
(0.124355 0.000540769 -2.52735e-05)
(0.118234 0.000347858 3.8733e-05)
(0.123509 0.000396727 0.000159571)
(0.119822 0.0018198 -0.000289344)
(0.127397 -0.000455817 -0.000996346)
(0.123649 -0.000614816 -0.00068845)
(0.127498 0.000424358 -0.000566846)
(0.125166 0.000415477 0.000100047)
(0.122933 -0.000257645 -0.000438769)
(0.116816 -0.000122937 -1.16853e-05)
(0.119974 -6.55251e-05 -0.00062635)
(0.118611 0.000482305 0.000309679)
(0.116753 -0.000368868 0.000136987)
(0.127694 -0.000339582 -0.000472567)
(0.117166 -0.000527584 -0.000696022)
(0.12426 -0.000424878 0.000337481)
(0.124207 0.000489455 -0.000275139)
(0.123715 7.42558e-05 -0.000201202)
(0.11914 -0.000243556 -0.000365617)
(0.127633 -0.000824052 -6.89687e-06)
(0.123842 0.00014242 -0.000853076)
(0.121324 0.000216268 0.000695516)
(0.127396 7.57363e-05 -0.000408508)
(0.125749 -0.000181849 -6.8021e-05)
(0.119779 0.00055959 0.000487797)
(0.121933 0.000202763 -1.10659e-05)
(0.118962 0.000192958 -1.5979e-05)
(0.123978 0.000268072 -0.000410254)
(0.122274 0.000406391 -0.000183582)
(0.118623 0.000389656 0.000988321)
(0.124195 -1.35318e-05 -0.000265716)
(0.122311 0.00109356 0.000902268)
(0.116119 1.98062e-05 -0.00137518)
(0.116063 0.000292677 0.000248262)
(0.125966 -0.000474189 0.000151106)
(0.127322 0.00010773 -8.7793e-05)
(0.128288 0.000395833 -0.000138443)
(0.117395 0.000522897 0.000600634)
(0.119331 -0.000170581 0.000671963)
(0.126483 0.000125189 0.000441089)
(0.12072 -0.00026515 -0.000299702)
(0.12126 0.000584319 -0.000919355)
(0.126217 0.000736292 0.000228884)
(0.127219 -0.000761959 -0.000116145)
(0.124253 -0.000925925 0.000239596)
(0.127389 -0.00120669 -0.000202025)
(0.128432 0.000187348 -0.000229338)
(0.118645 -0.000179396 -0.000335665)
(0.127823 -0.00146726 -8.23148e-05)
(0.11572 0.000134641 -0.000280551)
(0.117267 -2.79363e-05 -5.02174e-05)
(0.127713 -0.000481653 -0.000332084)
(0.126974 -0.000318183 -0.000229039)
(0.127791 -1.15967e-06 -0.000866149)
(0.128292 0.000374364 -0.00116833)
(0.127172 -0.000282717 -0.00090183)
(0.119802 0.00145296 -0.000594769)
(0.121855 -0.00117413 0.000803825)
(0.122561 -0.000240926 -0.000338583)
(0.12563 -0.00110231 0.000162615)
(0.127972 0.00104048 0.000968358)
(0.12869 -0.000974249 0.000397868)
(0.123413 0.000216602 -0.000248044)
(0.120818 -0.00117405 0.000425663)
(0.123351 6.74099e-05 -0.000253127)
(0.127028 -0.000202249 -0.000154401)
(0.126798 -0.000270955 -0.00106407)
(0.122873 0.000105266 -0.00021157)
(0.12543 -0.000217715 3.80293e-05)
(0.122772 0.000659012 -0.000727947)
(0.123291 -0.000480005 -0.000433637)
(0.125648 -0.000493394 0.000573954)
(0.121228 -0.00135788 0.00122615)
(0.118588 -8.87769e-05 -5.7618e-05)
(0.124518 0.000659654 1.11072e-06)
(0.125743 0.000105939 0.000703343)
(0.122902 0.000465496 -0.000216998)
(0.125987 0.00040308 0.00045205)
(0.127304 -0.000296047 0.000393645)
(0.123716 0.000120338 -0.000489943)
(0.119096 -2.07371e-05 -0.000573294)
(0.122994 0.000527207 -0.000398839)
(0.122113 0.000518648 0.000619698)
(0.117387 0.000195188 -0.000461127)
(0.127133 -0.000590584 0.000399356)
(0.116915 0.00073459 0.000436981)
(0.126226 -0.000205498 -0.000462842)
(0.128025 -0.000692454 -0.00041782)
(0.118016 -0.000425194 0.000210417)
(0.123904 0.000415793 9.85474e-05)
(0.1223 0.000481466 0.000454965)
(0.117934 -0.000391442 -2.50066e-05)
(0.125604 -0.00021143 -0.000351597)
(0.119448 8.02848e-05 6.67779e-06)
(0.12393 6.08918e-05 0.000848531)
(0.127626 0.000208202 0.000117566)
(0.125922 0.000215102 0.000106309)
(0.117149 0.000374371 0.000150003)
(0.126311 0.000443076 8.34095e-05)
(0.119256 0.000183362 -0.000429285)
(0.12629 -7.9969e-06 2.10394e-05)
(0.126136 0.0001124 0.000255723)
(0.126773 -4.39193e-05 -0.000701263)
(0.127674 -0.000123362 -0.000543497)
(0.118183 0.000112424 -0.000737553)
(0.125831 -0.000493842 3.14771e-05)
(0.117386 9.92458e-05 -0.000563365)
(0.122518 9.39264e-05 -0.000474307)
(0.118358 2.67311e-05 -0.000503312)
(0.128715 -7.85828e-05 -0.000671458)
(0.127107 -1.77359e-05 -0.000623256)
(0.128283 3.43105e-05 -2.16794e-06)
(0.127655 -0.000435542 -0.000617154)
(0.125236 -5.89706e-05 -0.00091985)
(0.128337 0.00141422 0.000982408)
(0.122614 0.000234577 -0.000159562)
(0.124919 0.000480792 -0.000285568)
(0.12357 0.000119813 -0.000408092)
(0.119306 0.0002565 0.000214818)
(0.1267 6.63344e-05 -0.00052622)
(0.124486 -0.0003721 -3.45556e-05)
(0.124759 -3.17526e-05 -0.000345132)
(0.12689 0.000262938 0.000239508)
(0.126636 -0.000140147 -0.00038169)
(0.127387 -4.72062e-05 0.000315293)
(0.123625 -0.000755087 0.000181672)
(0.117634 -0.000178469 0.000722446)
(0.123195 0.000117826 0.000104563)
(0.126033 0.000118979 0.000532979)
(0.125061 -0.000176344 0.000126558)
(0.118249 -0.000672774 -0.00044503)
(0.127174 0.000158124 -0.000367841)
(0.126992 -0.000201026 -0.000922553)
(0.121199 0.000394146 -0.000349795)
(0.125481 -0.000137405 -0.000447334)
(0.126224 -0.000477349 -0.00122248)
(0.126279 -0.000425951 -0.000656565)
(0.126014 -0.00039861 -0.000144515)
(0.117792 -3.46258e-05 -4.54819e-05)
(0.125468 -0.00051826 0.000144741)
(0.125704 -0.000648139 0.000203227)
(0.115919 0.000116502 0.000197277)
(0.125222 -0.00111631 -2.29718e-05)
(0.125353 -0.000379996 -0.000102012)
(0.12116 3.85917e-05 0.000430416)
(0.116692 9.47642e-05 0.000288889)
(0.116365 -0.000556419 0.000641118)
(0.122942 -0.00108646 0.000288226)
(0.11619 0.000817247 -0.000726449)
(0.123156 7.82987e-05 0.00018963)
(0.12434 2.717e-05 -7.96856e-05)
(0.122068 0.000559087 0.000292687)
(0.126024 0.00036604 0.000226515)
(0.117348 -0.000445328 0.000149819)
(0.125335 0.000352883 0.000114602)
(0.128591 0.000257642 7.86647e-05)
(0.122833 -0.00011798 8.8672e-05)
(0.126084 -0.00017473 0.000696586)
(0.123447 0.000201873 6.48933e-05)
(0.127539 0.00109135 1.90298e-05)
(0.124654 0.000449298 0.000111468)
(0.125516 -0.000329319 -0.00077059)
(0.128617 0.000111383 -0.000414322)
(0.123723 8.05802e-05 -0.000464477)
(0.11812 0.000285546 0.00015154)
(0.123077 2.5453e-05 -0.000137385)
(0.128055 0.000142963 -0.00129092)
(0.126947 0.000216539 -0.000867972)
(0.12617 -0.000321111 0.000792804)
(0.127485 1.30055e-06 8.42817e-05)
(0.123226 -0.000755133 0.000692228)
(0.126798 -0.000228979 0.000270693)
(0.126661 0.00112741 0.00118008)
(0.127054 0.000790637 0.000176985)
(0.126435 -0.000179231 -0.000514984)
(0.116555 -0.000428585 -0.000454141)
(0.12288 -0.000300141 0.000241191)
(0.115197 -0.000208408 0.00026895)
(0.123427 0.00070096 0.000876814)
(0.121786 -0.000108264 -0.000730851)
(0.11789 -0.000318102 0.000774427)
(0.117211 -0.000570406 -0.000208611)
(0.124461 0.000393448 -0.000236028)
(0.1254 -0.000440415 -0.000325921)
(0.127363 -8.40266e-06 -0.000563827)
(0.118723 -0.000271923 0.000790616)
(0.126402 4.64535e-05 -4.43037e-05)
(0.124128 -3.08375e-05 0.000360476)
(0.123355 -0.000200334 -0.000457525)
(0.125458 -2.74814e-05 -0.000694912)
(0.116029 -0.00127067 0.00143752)
(0.123334 -0.0001178 -0.000483584)
(0.117383 0.000121343 0.000339661)
(0.121455 -0.000531164 -0.000446546)
(0.126346 -0.00010533 2.92467e-05)
(0.128906 0.00136349 0.000311231)
(0.126446 0.000195005 -0.00114401)
(0.12498 0.000514258 -0.00068053)
(0.116173 0.000322128 0.00159852)
(0.126005 -2.1249e-05 6.26747e-05)
(0.124919 -0.000269946 -0.000567721)
(0.126497 -0.00022569 -0.000326448)
(0.117001 -9.9284e-05 -8.48759e-06)
(0.11954 -0.00020814 0.000736917)
(0.122195 0.000474357 0.000685622)
(0.119638 0.000413146 -0.00017668)
(0.115857 -0.000801163 -0.000267491)
(0.126495 -0.000109336 -0.000416854)
(0.119213 -0.000179956 0.000189306)
(0.122337 0.000889643 5.83924e-05)
(0.117584 -0.000277069 -0.00104157)
(0.125968 0.000381749 5.64912e-05)
(0.118274 0.000186329 -0.000412703)
(0.127539 -0.000281504 0.000703193)
(0.125815 5.56412e-05 -0.000478358)
(0.127638 -6.25328e-05 0.000585462)
(0.127641 -0.00017554 -0.000519105)
(0.118844 -6.77312e-05 -9.61362e-05)
(0.126789 1.80467e-05 0.000227109)
(0.128078 -0.000348269 -1.65495e-05)
(0.125101 -0.000538371 0.000553762)
(0.1259 0.000561563 -0.0002602)
(0.125002 -0.000450061 -0.000250985)
(0.127397 0.000434337 -0.000135423)
(0.125824 -0.000625059 -0.000134967)
(0.12193 3.30399e-05 -0.000413074)
(0.128967 -0.000265843 -1.52309e-06)
(0.128335 -0.000436749 -0.000480197)
(0.123987 -0.000346562 -0.000398045)
(0.12359 -0.000231291 -0.000749366)
(0.127399 -0.00039667 -0.000211724)
(0.124444 0.000485272 0.000100916)
(0.116044 0.000765533 -0.000166754)
(0.116495 0.000450189 -3.46288e-05)
(0.123556 5.92585e-05 -9.84247e-06)
(0.126961 -0.000133091 0.000392212)
(0.128213 -0.000183718 -0.000246462)
(0.122141 2.23156e-05 0.000367514)
(0.127084 0.000666028 0.000317407)
(0.12431 -0.00140477 -0.000820513)
(0.127248 0.000872778 0.000744303)
(0.124124 5.76753e-05 -0.000222534)
(0.124709 0.000606576 -0.000597372)
(0.125564 -0.00163169 0.000321017)
(0.117647 5.43544e-05 -0.000263118)
(0.123542 0.000276322 -6.54797e-05)
(0.125813 -8.04216e-05 -0.000466866)
(0.127683 -3.44932e-05 8.92867e-05)
(0.119356 1.0768e-05 9.56317e-05)
(0.120385 0.000711098 -0.000937537)
(0.121299 -6.71156e-05 -0.000346926)
(0.121475 -0.000254215 -5.85262e-05)
(0.123073 -0.000207993 -0.00055548)
(0.117352 -0.000133737 -0.000316014)
(0.126767 5.57225e-05 -0.000929154)
(0.12242 -0.000148748 -0.000192634)
(0.12617 0.000142013 0.00118678)
(0.123472 -0.000302599 -5.87326e-05)
(0.128109 -0.00027325 -0.000239185)
(0.124487 -0.000405597 -0.00099609)
(0.118011 0.000169258 0.0006071)
(0.125614 0.000635544 2.44778e-05)
(0.12849 -0.000441853 -0.00106898)
(0.118627 0.000467958 0.0012605)
(0.127328 -0.000238314 -0.000760173)
(0.12949 -0.000770489 -0.000784194)
(0.124219 -0.000133949 -0.00010511)
(0.122478 0.000206189 0.000257871)
(0.125371 0.0009159 -0.00141244)
(0.121561 -7.68739e-05 0.000122698)
(0.123664 -0.000498725 0.000135713)
(0.123378 0.000112114 0.000334869)
(0.118379 -0.000203241 -3.08356e-05)
(0.118712 -0.000203825 -0.00114955)
(0.122618 0.000174126 0.000550791)
(0.121716 0.000665617 0.000164863)
(0.126858 -0.000188181 -0.000271484)
(0.121504 -0.000451555 0.000223527)
(0.123473 0.000451915 0.000413383)
(0.127816 0.00027947 0.000462854)
(0.122314 0.000178118 6.54036e-06)
(0.116814 0.000187209 0.000448906)
(0.121764 0.000360953 0.000209982)
(0.123755 0.000440639 -0.000404334)
(0.128261 -0.000169754 0.000309577)
(0.11757 0.000789492 0.000359253)
(0.117164 -0.000124277 0.000334913)
(0.127889 0.000300751 0.000959923)
(0.117693 0.000307632 -8.37196e-05)
(0.124852 -1.31244e-05 -7.04758e-05)
(0.126644 0.000184233 -0.00032926)
(0.119306 -0.000132019 -0.000931516)
(0.123619 -5.3723e-05 -0.000556819)
(0.127523 0.000585229 -0.000981239)
(0.123798 -0.00022024 0.000617633)
(0.116039 9.84841e-05 0.000274214)
(0.12706 0.000298435 -0.000267573)
(0.124078 -0.000105224 -0.000168236)
(0.11634 0.000573972 0.000140903)
(0.127506 0.000326717 -0.00028058)
(0.121826 -0.000217409 -0.000388407)
(0.123258 0.000688531 -0.000335042)
(0.125698 1.61133e-05 -0.000213824)
(0.116461 0.000867391 -0.000456483)
(0.122681 -0.000149134 -0.00107032)
(0.12258 -0.000966163 3.94523e-06)
(0.124162 -0.000127976 -0.000518135)
(0.119156 -0.000689101 0.000330716)
(0.120846 -0.000514294 -0.00027678)
(0.125476 0.000428119 0.000578124)
(0.128232 -0.00105766 -0.000725269)
(0.129973 -0.000385786 -0.000227106)
(0.128333 0.000590554 -0.0005047)
(0.127309 -0.000677957 -0.000192294)
(0.1265 1.60212e-05 -0.00123965)
(0.121127 -0.000277879 0.000564044)
(0.128944 0.000105302 -0.00123686)
(0.126588 -4.16666e-05 8.7251e-05)
(0.125267 0.000460509 0.000179058)
(0.119582 0.000760786 -0.000448931)
(0.124333 -0.000141953 -0.000214414)
(0.125966 0.00056751 0.000634379)
(0.129762 0.000916669 -8.93913e-06)
(0.117416 -0.00022437 0.00037211)
(0.116003 -0.000312995 0.000454242)
(0.127396 0.000341864 -0.000659516)
(0.121679 5.52258e-05 -0.000275128)
(0.127824 0.000148853 -0.000215145)
(0.122865 0.00036282 -0.000571925)
(0.119382 -0.000478516 -0.000877339)
(0.12558 -0.000212378 -0.000937959)
(0.127149 0.000415144 5.4865e-05)
(0.125271 0.000260691 0.000157681)
(0.126791 0.00109531 -0.000340235)
(0.118181 -0.000122835 -0.00187822)
(0.1268 0.000867911 0.000175054)
(0.126636 -0.000490389 -0.000475312)
(0.11693 0.000381851 -0.000156225)
(0.126041 -0.000234271 -0.000538088)
(0.125862 -0.000249848 5.21676e-05)
(0.123172 -0.000794449 0.00122548)
(0.118566 -0.000574425 -0.00104331)
(0.11666 0.00026327 -0.000934751)
(0.12352 0.000266957 -0.000246673)
(0.123125 -1.91454e-05 0.00102599)
(0.124008 -0.000156784 0.000191535)
(0.123057 0.000617136 7.83985e-05)
(0.122463 0.000520275 0.000835845)
(0.126964 8.46286e-05 0.000197745)
(0.124183 -2.23988e-06 0.000345375)
(0.124333 0.000523676 0.000342828)
(0.119632 -0.00026802 0.000722049)
(0.128149 -5.92437e-05 -0.00106861)
(0.117722 -0.000231188 9.0738e-05)
(0.123623 0.000611927 -4.86372e-05)
(0.123035 0.000203768 -0.000171371)
(0.123801 -0.000693985 -0.000840938)
(0.125976 0.000564489 -0.000200021)
(0.121999 0.000104721 -0.000542762)
(0.117889 -0.00101183 -0.000526294)
(0.116806 -0.000261913 -0.000676828)
(0.118422 -0.000344821 -0.000349037)
(0.123441 -0.000558646 -0.000360029)
(0.125904 0.000743494 0.000241422)
(0.117758 0.000574678 0.0020533)
(0.126886 -0.000159742 1.94997e-05)
(0.124315 -8.46405e-05 -0.000919765)
(0.127616 -0.000455617 -0.000373408)
(0.11725 0.000166016 -0.000769989)
(0.121462 0.000342432 0.000640469)
(0.126123 0.000301486 -0.00110096)
(0.128059 -0.0010737 -7.3102e-05)
(0.125978 0.000455581 -0.000405845)
(0.127167 -0.000209489 -0.000289719)
(0.124286 0.00021125 0.000147785)
(0.123395 0.000310591 0.000190753)
(0.128485 9.16473e-05 0.000137185)
(0.128161 0.000516282 -7.50581e-05)
(0.127626 0.000274318 1.28018e-06)
(0.119977 0.0010745 -0.00055071)
(0.127841 -0.000994063 -0.000740837)
(0.116784 -0.000235623 0.000470625)
(0.127881 0.000777828 0.000154879)
(0.124593 -8.8297e-05 -0.000139126)
(0.123848 0.000392097 -0.000664456)
(0.118312 0.00109944 -6.20004e-05)
(0.123521 0.00114735 -0.000920746)
(0.115512 -0.000595631 -0.00116387)
(0.127095 0.000553492 -0.00075245)
(0.124263 0.000283425 -0.000263728)
(0.126928 -0.000199556 -0.000320818)
(0.12317 0.000589723 -8.67519e-05)
(0.122024 0.00117825 -0.0003876)
(0.117746 -0.000359685 0.000858334)
(0.128798 0.000347168 -0.000121554)
(0.119283 -0.000615442 0.000426943)
(0.11589 -0.000292647 -0.000309871)
(0.119097 -0.000124548 -0.00010062)
(0.119322 0.000629796 0.000316413)
(0.117791 0.000653821 -8.79078e-05)
(0.123576 -0.000358756 7.43385e-05)
(0.118149 0.000112017 -0.000175365)
(0.125894 -0.001281 0.000719377)
(0.126374 4.83125e-05 -0.000416984)
(0.115755 -0.000154432 -9.93153e-05)
(0.125729 0.000134012 -0.000211339)
(0.117903 0.000160014 -0.00075476)
(0.123251 0.000531463 -0.000284856)
(0.123904 0.000249977 -0.000283403)
(0.123749 -0.000449017 -0.000985756)
(0.126625 0.000178185 1.02944e-06)
(0.128649 0.000395651 -0.000915972)
(0.126847 -7.53565e-05 0.000238997)
(0.125717 1.2636e-05 -7.33469e-06)
(0.125431 -0.000295928 -0.00118271)
(0.126094 0.000255822 0.00010517)
(0.122923 0.000472558 -9.92295e-05)
(0.123543 0.000530357 0.00029098)
(0.116499 0.000498835 -0.000923564)
(0.110941 -0.000409766 0.00322866)
(0.127146 9.51353e-05 -1.70422e-05)
(0.123464 9.49942e-05 -0.000214879)
(0.126654 -0.000322484 -9.71141e-05)
(0.12615 -0.000123669 0.000307684)
(0.117284 -0.000646649 -4.05854e-05)
(0.127236 -0.000140804 -0.000175029)
(0.127443 0.000613271 0.000172165)
(0.127234 3.22076e-05 0.000205505)
(0.127074 0.000491478 0.000605382)
(0.125235 0.00033585 0.000483732)
(0.124683 -0.000568016 -0.000105491)
(0.126879 -0.000117623 0.000255925)
(0.128187 -0.000168873 0.000725167)
(0.124773 0.00025578 0.000334987)
(0.127759 0.000419938 -0.000317626)
(0.127305 -0.000446548 -0.000434952)
(0.119848 -0.000323669 -0.000488889)
(0.127117 -8.28328e-05 0.000283438)
(0.120764 -0.000320524 0.000522549)
(0.124484 0.000688609 -0.000257749)
(0.123737 -0.000971726 0.000158744)
(0.123276 -0.000541764 0.000405936)
(0.123052 0.000804861 0.000171489)
(0.126115 0.000395045 5.04763e-05)
(0.1238 -0.000115984 -0.0002887)
(0.124486 0.000532388 -0.000727419)
(0.123345 0.00128543 -0.000675441)
(0.117042 0.00156612 -0.00110753)
(0.12852 0.000589904 -0.000285579)
(0.12625 0.000711458 -0.000126005)
(0.123041 8.5798e-05 0.000836441)
(0.117637 -0.000267727 1.72102e-05)
(0.126327 -0.000367527 -1.36082e-05)
(0.117405 -0.000597403 -0.00050187)
(0.127379 -0.000294227 0.000239222)
(0.127278 -6.99479e-05 0.000232653)
(0.121849 0.00133212 -0.000642165)
(0.124647 -0.00107218 -0.000330843)
(0.127919 0.000106624 -0.000402106)
(0.124738 -0.000530368 -0.00035164)
(0.116628 2.37339e-05 0.000296789)
(0.123744 0.000221703 0.000551397)
(0.120673 0.000454139 -0.000319691)
(0.123358 0.000391033 -0.000334005)
(0.117288 -0.000540573 -0.000964133)
(0.126355 -9.93313e-06 -0.000440733)
(0.126603 -0.000412914 0.000744356)
(0.121802 0.000970021 -0.000743231)
(0.123321 0.000202677 2.97794e-05)
(0.120615 0.000337684 -0.000672764)
(0.12679 1.99561e-05 -0.000434101)
(0.123213 -0.000774495 3.22992e-05)
(0.123944 0.000660583 0.000538241)
(0.117671 -0.000159679 0.000149557)
(0.126831 1.03912e-05 6.84281e-05)
(0.125219 -0.000383001 -0.000130213)
(0.127017 -8.1982e-05 -0.00020891)
(0.120636 0.000375136 -0.000271667)
(0.123185 -4.91891e-05 -0.000297965)
(0.124431 8.80214e-05 -0.000249827)
(0.122135 -0.000292424 0.00034918)
(0.124933 -8.12174e-05 0.000470049)
(0.124704 -0.000512777 0.000446509)
(0.126375 -0.000377752 0.000150338)
(0.123533 -6.43649e-05 -0.000138442)
(0.118302 -8.29708e-05 -0.000172558)
(0.116081 -0.000165183 -0.000778931)
(0.125025 -0.000784672 0.000248498)
(0.117007 0.000487671 -0.00147799)
(0.121912 -0.000735276 -0.00160265)
(0.123561 0.000278507 -0.000365643)
(0.12372 0.000282856 0.00017769)
(0.128022 0.000300789 -0.00044525)
(0.116903 0.000129331 9.79088e-05)
(0.122372 -0.000120549 -0.000704945)
(0.128565 0.00013044 -0.000465027)
(0.118933 0.000758033 -0.00297507)
(0.119083 0.00134527 8.44216e-05)
(0.12306 0.000408217 -0.000879165)
(0.118781 0.000286131 1.64453e-05)
(0.125782 0.00101051 -0.00116447)
(0.119173 -0.000357011 8.8238e-07)
(0.127991 -0.000869645 -0.000475268)
(0.121321 0.000330073 0.000370856)
(0.122679 0.000739679 0.000503314)
(0.12916 0.000532127 0.000971369)
(0.116154 -4.68757e-05 0.000620954)
(0.121209 5.31863e-05 0.000425449)
(0.121408 5.48636e-05 0.00066359)
(0.126978 -4.82925e-05 -0.000789095)
(0.127107 -1.88801e-05 0.000495396)
(0.127602 1.58989e-05 -5.56089e-05)
(0.117991 0.000853672 0.000349736)
(0.126029 0.000176805 -8.42067e-05)
(0.126688 6.92633e-05 0.00105175)
(0.121711 0.000961938 -6.944e-05)
(0.126987 0.000364811 -0.000120533)
(0.126632 0.000582725 0.000225043)
(0.126349 0.000402286 5.46257e-05)
(0.127558 0.000201261 -0.000640164)
(0.123324 0.000113835 -0.000103142)
(0.128391 -2.92908e-05 0.000526136)
(0.128158 0.000745195 0.000967445)
(0.127189 9.90682e-05 -0.00094757)
(0.124719 0.000429427 0.000317309)
(0.122784 -0.000236257 -0.000163867)
(0.123459 0.000487789 0.000188102)
(0.123168 0.000218775 -0.000246843)
(0.116152 -0.000966118 -0.000299861)
(0.122438 1.31329e-05 0.000265773)
(0.125015 -0.000355101 0.000282192)
(0.126879 -0.000409438 -0.000255751)
(0.128002 -0.000279439 -0.000948467)
(0.122583 -0.00053753 -0.00010515)
(0.128427 0.0012015 -0.00030176)
(0.125973 -0.000116145 -0.000105977)
(0.121677 -0.000675861 0.00041708)
(0.127137 -0.000237192 -0.000444791)
(0.127365 -2.63581e-05 -0.000209128)
(0.12621 0.000159804 -0.000686388)