/*--------------------------------*- C++ -*----------------------------------*\
| =========                 |                                                 |
| \\      /  F ield         | OpenFOAM: The Open Source CFD Toolbox           |
|  \\    /   O peration     | Version:  2212                                  |
|   \\  /    A nd           | Website:  www.openfoam.com                      |
|    \\/     M anipulation  |                                                 |
\*---------------------------------------------------------------------------*/
FoamFile
{
    version     2.0;
    format      ascii;
    arch        "LSB;label=32;scalar=64";
    class       surfaceVectorField;
    location    "0.066";
    object      Uf;
}
// * * * * * * * * * * * * * * * * * * * * * * * * * * * * * * * * * * * * * //

dimensions      [0 1 -1 0 0 0 0];

internalField   nonuniform List<vector> 
68568
(
(0.125476 0.000162835 -0.000117363)
(0.124619 0.000542031 -0.000251236)
(0.124257 0.000326781 -3.60254e-05)
(0.12724 0.000788367 -0.000416127)
(0.124487 -0.000514575 -0.000200754)
(0.124513 -0.000529556 -0.000491925)
(0.123015 -0.000538544 7.5613e-05)
(0.115653 -0.000297192 -0.000259113)
(0.12618 0.000242693 0.000299203)
(0.125933 -0.000476275 0.00068483)
(0.12422 -0.000226437 -9.44543e-05)
(0.119346 -0.000684409 0.000732231)
(0.128796 -0.000193651 -0.000165118)
(0.127493 -9.51178e-05 -0.000484475)
(0.12847 -0.000155092 -0.00034948)
(0.128937 -0.000256926 -0.000373761)
(0.122715 -0.000215342 -0.000259309)
(0.126131 -0.000524063 -0.000296068)
(0.121956 -0.000247919 -0.000282653)
(0.125733 -0.000534273 -0.000356485)
(0.125212 -0.000280785 -4.39188e-05)
(0.123387 -0.000162162 0.000130543)
(0.1255 -0.000172613 0.000154031)
(0.117085 -0.000179146 -0.00032685)
(0.124531 -8.69014e-05 -0.000108509)
(0.11914 -0.000252643 0.000270674)
(0.121343 1.93372e-05 -0.000461238)
(0.124641 -0.000150067 -0.000195772)
(0.124321 0.000213137 0.000572496)
(0.126942 7.83064e-05 0.000165552)
(0.125494 -8.58754e-05 9.48774e-05)
(0.126015 -0.000158527 -0.000380413)
(0.124526 0.000163415 -0.000240805)
(0.12464 0.000396802 -0.000641787)
(0.126836 -0.000256852 -4.76526e-05)
(0.125109 -0.000656824 -0.000308258)
(0.127303 -0.000181833 -0.00053678)
(0.127509 -0.000614048 -0.000377545)
(0.127719 0.000465924 0.000145837)
(0.126091 0.000300189 -1.29394e-05)
(0.12755 0.000286657 -6.83327e-05)
(0.123154 -0.000105978 -0.000534879)
(0.127938 -0.000428834 -0.000773822)
(0.127452 -0.000608227 -0.000688016)
(0.124598 -0.000370265 0.000119233)
(0.123303 -0.000608506 1.04376e-06)
(0.116133 -5.83405e-05 -0.000339398)
(0.127275 -0.000216027 -8.22803e-05)
(0.127069 -0.000175723 0.000344174)
(0.126049 -0.000251618 0.000272721)
(0.123916 -7.62244e-05 0.000235441)
(0.122041 -0.000403709 9.34471e-05)
(0.124077 -0.000331349 -3.79967e-05)
(0.123158 -0.000297271 5.61897e-05)
(0.115883 -0.000340136 3.80152e-05)
(0.124849 -0.000463676 0.000873383)
(0.119342 -0.000440837 0.000640066)
(0.121383 -0.000439371 0.000822111)
(0.125312 -0.000354609 0.000258567)
(0.12396 0.000295164 0.000128171)
(0.125199 0.000489969 0.000128766)
(0.124524 0.000486639 9.04233e-05)
(0.126525 0.00029258 2.09559e-05)
(0.119278 0.000518539 0.000413608)
(0.119445 -0.000310461 0.00063774)
(0.124098 -3.09846e-05 0.000213707)
(0.124495 -0.000139582 -0.000611743)
(0.121229 -0.000586564 -3.44846e-05)
(0.119968 -2.71359e-05 -0.000731952)
(0.125006 -0.000340613 -0.000343742)
(0.124233 2.00147e-05 -0.000229907)
(0.126134 -0.000326634 -9.86442e-05)
(0.125603 -0.000513706 -5.18469e-06)
(0.118751 -0.000108046 -0.000180077)
(0.118476 -0.000266563 -0.00036618)
(0.120531 5.49962e-05 -0.000312823)
(0.118951 0.000234532 -0.000340814)
(0.106249 -0.000216281 -0.000451715)
(0.126389 -0.000468007 -0.000560079)
(0.128093 -0.000215326 -0.000665108)
(0.127054 -0.000356622 -0.000657012)
(0.127593 -0.000388758 -0.000773466)
(0.126708 0.000329294 -0.000201788)
(0.12684 0.000474556 -8.86366e-05)
(0.124176 0.000456078 4.13378e-05)
(0.127716 0.000505444 -0.000219956)
(0.120529 0.00037164 -0.000340419)
(0.121001 -8.79968e-05 -0.000345685)
(0.124246 0.000175899 -0.000510834)
(0.124712 0.000100925 -0.000132031)
(0.118121 -8.44583e-05 3.64203e-05)
(0.123243 -0.000222387 -0.000152794)
(0.120324 0.000153723 -0.000585329)
(0.123246 -0.000244702 0.000255071)
(0.1239 -8.0483e-05 -5.51693e-05)
(0.123885 -0.000572885 0.000208575)
(0.126305 -0.000391586 0.000878246)
(0.123821 -0.000159822 -0.00038835)
(0.125551 -0.000229758 -0.000258383)
(0.118191 -0.000178397 0.000239751)
(0.126146 0.00169656 0.000394276)
(0.12343 0.00197838 -0.000434669)
(0.125695 0.00195554 0.000244237)
(0.123647 0.00154438 -0.00066009)
(0.125526 4.02616e-05 0.000548643)
(0.118286 0.000341886 -0.000267795)
(0.120499 0.000487785 0.000222403)
(0.127536 -7.87363e-05 0.000459595)
(0.126551 -0.000315228 0.000352433)
(0.127672 -0.000252889 0.000439207)
(0.128083 -0.000320093 -0.000154534)
(0.125811 -6.79581e-05 6.41968e-05)
(0.128287 -0.000260544 -0.000156282)
(0.125213 -0.000146066 -0.000153939)
(0.123968 -0.000111636 -0.000311882)
(0.124112 -0.000145994 -0.00048063)
(0.119652 0.00040362 -0.000182294)
(0.119079 -0.000291161 0.000291389)
(0.126937 0.000372578 -0.000445355)
(0.126104 2.95013e-06 -0.000229689)
(0.127296 1.03261e-05 -0.000423982)
(0.127673 -2.58935e-05 -0.000190465)
(0.12065 -0.000121575 -0.000224238)
(0.119278 -0.000221187 0.000157907)
(0.124625 -0.000183567 7.18775e-05)
(0.124894 3.21905e-05 0.000169005)
(0.120906 0.000475683 0.000723748)
(0.118283 0.000470733 0.000729194)
(0.118326 0.000372227 0.000292267)
(0.107348 0.000237799 0.000687023)
(0.127412 0.000439033 4.21278e-05)
(0.117991 -0.000140487 -0.000141042)
(0.118344 -0.000632654 -0.000305839)
(0.115375 -0.000341811 7.07266e-05)
(0.106445 -0.000390335 -7.79348e-05)
(0.127973 -0.000521819 0.000271997)
(0.128013 -0.000670031 0.000153901)
(0.128255 -0.00026216 0.000442817)
(0.127459 -0.000709672 0.000248054)
(0.12534 -0.000262098 0.00034384)
(0.125466 -0.000366956 0.000597623)
(0.127291 -0.00042133 0.000646999)
(0.116728 0.000654726 -0.000601443)
(0.118177 -0.000371214 -0.000146231)
(0.107691 4.12329e-05 -0.000157146)
(0.122272 -0.000142274 -6.58175e-05)
(0.119131 -0.000118794 -0.000370705)
(0.107645 0.000117752 -0.000516564)
(0.120476 -0.000299198 3.12263e-05)
(0.120491 -0.000590641 -0.000203807)
(0.121686 -0.000536942 -0.00019589)
(0.106989 -0.000376023 5.85456e-05)
(0.127056 -0.000326707 0.000226911)
(0.124502 -0.000314508 0.000127124)
(0.126558 -0.000432941 -0.000539961)
(0.127738 -0.000957855 -0.000402666)
(0.126096 -0.00082409 -0.000798415)
(0.128031 -0.00064367 -0.000887757)
(0.126977 -0.000602775 0.000574347)
(0.127458 -0.000811459 0.00018979)
(0.126764 -0.000420751 0.000338162)
(0.128188 -0.000714025 -0.000186036)
(0.126421 -0.000795424 8.88515e-06)
(0.125688 -0.000459939 -0.000300764)
(0.128061 -0.000322222 -0.000516485)
(0.123242 7.69603e-05 -0.000341384)
(0.120944 0.000719133 -0.000498943)
(0.114507 -6.0337e-06 -0.000392317)
(0.125304 0.000442472 -0.000428123)
(0.12569 1.70255e-05 -0.000334917)
(0.122476 0.000297405 -0.000730549)
(0.120835 0.000164202 -0.000193258)
(0.123514 -0.000188973 0.000302513)
(0.123243 6.32838e-05 7.36343e-05)
(0.125822 6.18586e-05 -0.000268476)
(0.124486 -0.000176701 0.000153891)
(0.127385 -0.00012893 -0.000296496)
(0.125542 -0.000377586 -0.000599817)
(0.125835 -2.52862e-05 -0.00050553)
(0.127987 4.95831e-05 -0.000938132)
(0.128487 -0.000178873 -0.000445989)
(0.121058 -0.000433939 -0.000603243)
(0.118214 -1.66147e-05 -0.00029408)
(0.119207 -2.97514e-05 -0.000179955)
(0.105744 -4.41227e-05 -0.000399416)
(0.126128 0.000884375 0.000217435)
(0.125104 0.00072287 0.000306573)
(0.126944 0.000962836 0.000158435)
(0.126396 0.000695127 4.49445e-05)
(0.117611 -0.000594805 0.000195196)
(0.107287 -0.000203188 0.000507829)
(0.121969 -0.000239779 -0.000290865)
(0.121865 -0.000529818 -1.29806e-05)
(0.125771 -0.000313917 -0.000352304)
(0.125836 -0.00041754 -7.75304e-05)
(0.123051 0.000299458 2.64283e-05)
(0.123869 0.000107566 3.31332e-05)
(0.126146 -6.60424e-05 -0.000277861)
(0.120476 -0.000119366 -0.000677081)
(0.118858 -9.98166e-05 -0.000258942)
(0.120725 0.00015729 -5.27802e-06)
(0.106989 0.000382474 -0.000127482)
(0.126173 0.000126452 0.000526405)
(0.125588 -0.000267003 0.000151999)
(0.124216 -2.24548e-05 0.000475249)
(0.118807 -1.07237e-05 0.00039913)
(0.125645 -0.000240171 0.000223751)
(0.124046 9.75405e-05 0.000526693)
(0.125632 -7.7686e-05 -7.84976e-06)
(0.117466 0.00010987 0.000303838)
(0.117847 7.77877e-05 -0.000190097)
(0.118099 0.000571831 -0.000182431)
(0.107927 0.000252375 -0.000140329)
(0.124597 -0.000592604 -0.000563667)
(0.124231 -5.8324e-05 -0.000396756)
(0.124496 -0.000191092 -0.000207542)
(0.126882 0.000372552 1.28693e-05)
(0.125229 0.000458511 3.37527e-05)
(0.127685 0.000153196 -0.000252879)
(0.125984 0.00021705 -0.000328265)
(0.124346 -0.000292811 -0.000379809)
(0.121028 -0.000379944 -0.000510265)
(0.121024 -0.000361598 -0.000266592)
(0.108003 -0.000404858 -0.000161266)
(0.125469 -0.000195567 -0.000193713)
(0.125548 -8.22271e-05 7.6345e-05)
(0.116528 -0.000101158 -0.000313229)
(0.124286 0.000324244 0.000280188)
(0.124567 0.00053005 0.000504577)
(0.126286 0.000585088 0.000570871)
(0.124706 0.000631656 0.000632463)
(0.127964 -0.000209488 -0.000626818)
(0.128342 -0.000248008 -0.000514972)
(0.128171 -0.000394061 -0.000457977)
(0.127607 -0.000310491 -0.000382429)
(0.123662 0.000150958 -0.00113243)
(0.126301 1.78912e-06 -0.000952691)
(0.12706 -0.000473792 -0.0007491)
(0.12377 -0.000512633 1.81995e-05)
(0.125442 -0.000264167 4.33953e-05)
(0.123684 -0.000112327 0.000300378)
(0.117809 -1.18182e-05 -0.00024814)
(0.120814 -0.00103962 -0.000599223)
(0.12165 0.000331912 -0.000511165)
(0.107126 -0.000108851 -0.000451226)
(0.127836 0.000305856 8.54882e-05)
(0.128288 0.000265158 -0.000314829)
(0.127902 4.17538e-05 -7.79221e-05)
(0.128559 7.41969e-05 -0.000499719)
(0.126784 0.000247027 0.000187799)
(0.124246 0.00028791 0.000315688)
(0.125745 9.83299e-05 0.000345975)
(0.125825 0.000158394 -1.09673e-05)
(0.121399 0.000406667 -0.00129103)
(0.120654 0.000410939 -0.000632397)
(0.122606 0.000330382 -0.000880193)
(0.110952 -0.000520704 -0.000918192)
(0.124608 -0.000258938 -0.000659889)
(0.124708 -0.000265507 -0.000873024)
(0.127219 -0.000303959 -0.000433978)
(0.126744 -0.000243039 -0.000608428)
(0.126216 -0.000322931 -0.000183151)
(0.124169 -0.000499032 -0.000368945)
(0.124222 -5.34152e-05 -4.32795e-05)
(0.1182 2.07498e-05 -0.000649692)
(0.126331 0.000885795 0.000429237)
(0.125913 0.000946388 0.000199655)
(0.124971 0.000768276 7.61543e-05)
(0.11856 0.000122253 -0.000671307)
(0.117861 0.000327293 -0.000374381)
(0.119891 0.000398584 -0.000579802)
(0.106279 0.000518292 -7.71177e-05)
(0.126821 -0.00064372 -9.05192e-05)
(0.126393 -0.000611532 0.000207392)
(0.128283 -0.000492425 9.12253e-05)
(0.121592 0.00111837 -0.000572755)
(0.125665 -3.06071e-05 -0.000420591)
(0.124938 0.000144326 -0.000419534)
(0.123661 -0.000379084 0.00057396)
(0.124194 -7.61739e-05 0.000312684)
(0.124658 -7.32469e-05 0.000436873)
(0.116665 -0.000205327 0.000392321)
(0.120762 -0.000294137 -0.000152884)
(0.126687 -0.000100585 0.000154626)
(0.124043 0.000141548 0.00014919)
(0.126628 0.00039822 -3.32503e-05)
(0.118902 0.00029525 -0.00038891)
(0.123639 -0.000171309 -0.000167883)
(0.12393 -0.000105233 -6.06211e-05)
(0.115196 -0.000241719 -0.000364051)
(0.116506 -0.000240201 0.000265713)
(0.116165 -0.000502817 0.000130712)
(0.107253 -0.000363205 0.000159522)
(0.128277 -0.000128444 0.000199458)
(0.125952 -0.000222071 -0.000120567)
(0.128145 -0.000462645 0.000194646)
(0.12713 -0.000630371 0.000255947)
(0.126629 -0.000519036 -0.000358826)
(0.126076 -3.71976e-05 -0.000203798)
(0.125851 -5.59565e-05 -0.000336282)
(0.11712 -0.000136644 2.42908e-06)
(0.123498 -0.000414901 -4.14586e-05)
(0.125888 -0.000434115 -7.75124e-05)
(0.126591 -0.000248289 -0.000142685)
(0.12343 -5.96659e-05 0.000195962)
(0.128038 -0.000365222 -0.000180082)
(0.12564 -0.000290751 -0.000331764)
(0.125814 -6.07751e-05 -7.52453e-06)
(0.127973 -0.000428406 -8.22665e-05)
(0.12803 -9.18065e-05 0.0002102)
(0.127542 -0.000366081 2.93902e-05)
(0.128436 -0.000313519 -0.000158277)
(0.12579 -0.000189112 -0.000261696)
(0.125446 -0.000311786 -0.000508018)
(0.127806 -0.000138881 -0.000627057)
(0.118175 0.00147197 -0.000993035)
(0.122194 4.32189e-05 -0.001442)
(0.120719 0.00054213 -0.000907032)
(0.104422 -3.09116e-05 -0.000274891)
(0.126466 -0.000105207 -0.000280063)
(0.126368 -0.000227217 -0.000348034)
(0.128001 -0.000119125 -0.000583362)
(0.124542 -0.000339731 0.000216957)
(0.12658 -0.000263441 2.50204e-05)
(0.117096 -0.00011497 -0.000121924)
(0.12126 -0.00035326 -5.95168e-05)
(0.120614 1.43042e-05 -4.01017e-05)
(0.124791 -0.000372784 0.000241129)
(0.124572 -0.000434549 -0.000239945)
(0.119956 -0.000407092 -0.00115974)
(0.120623 -0.000595417 -0.000243886)
(0.105901 -0.000368101 -0.000246034)
(0.121358 0.0006475 -0.000875515)
(0.123576 0.000460395 -0.00102698)
(0.115542 -0.000234576 -0.000487824)
(0.120021 -0.000657553 -9.99775e-05)
(0.12403 -0.000750904 -0.000191442)
(0.119584 -0.000488792 -0.000522621)
(0.123783 -0.000476189 -0.000272545)
(0.125433 0.000255744 0.000274664)
(0.1252 0.000702394 9.46097e-05)
(0.122795 0.00100275 0.000801835)
(0.118743 0.000449815 0.000549615)
(0.123003 0.000220547 -0.000334549)
(0.124076 -0.000102507 -0.000291324)
(0.126507 0.000186777 -0.000176058)
(0.1267 -0.00033905 -7.75411e-05)
(0.126155 -0.000309063 -1.06421e-05)
(0.116889 -0.000267795 8.42203e-06)
(0.123496 3.76914e-05 0.000486333)
(0.122872 0.000361803 0.000412066)
(0.124675 2.71104e-05 0.000382625)
(0.11645 7.64084e-06 -8.78832e-05)
(0.119572 -0.00124341 7.78845e-05)
(0.120015 -0.00057587 -0.000113148)
(0.1188 -0.0013906 -0.00053626)
(0.106383 -0.000980675 0.000106373)
(0.125489 -0.000334049 -0.000654305)
(0.125975 7.37938e-05 -3.13652e-05)
(0.123022 0.000775988 -0.0010746)
(0.125905 3.22027e-05 -0.000739134)
(0.125052 0.000160849 0.000260303)
(0.124176 -0.000210049 -0.0011027)
(0.123451 0.000363064 -0.000966027)
(0.121737 -0.000579888 -0.000406422)
(0.116201 -9.70125e-05 -0.000107739)
(0.118074 -1.63406e-05 -0.000217938)
(0.120319 -0.000410553 -0.000400753)
(0.119239 0.000182793 -0.000418214)
(0.106839 -4.55001e-05 7.60759e-05)
(0.120819 -2.83117e-05 -0.000322822)
(0.106152 4.28575e-06 -0.000334801)
(0.125955 -0.000486673 -5.32667e-05)
(0.128252 -0.000269728 0.000259651)
(0.12834 -0.000332258 -0.000153727)
(0.10846 -3.61733e-05 0.000282926)
(0.119018 -0.000776455 -0.000748287)
(0.120492 -0.000593518 -0.000267845)
(0.119896 -0.00109475 -0.000737393)
(0.105525 -0.000408191 -0.00107933)
(0.118889 0.000637031 -0.000272737)
(0.123085 0.000333227 -0.000123571)
(0.11815 -0.000741798 0.000769354)
(0.116672 -0.000358192 0.000351086)
(0.11898 -0.000132398 0.000767314)
(0.106556 -0.000641134 0.000317257)
(0.126511 -0.00142773 0.000493076)
(0.123538 -0.00147782 0.000807122)
(0.12405 -0.00141794 0.00063023)
(0.126337 -0.001395 0.000300996)
(0.122491 -0.000501672 -0.000710746)
(0.121071 -0.000400287 -0.000230706)
(0.119937 -0.000190243 -0.000274997)
(0.106006 0.000152003 -0.000343587)
(0.125324 0.000518109 1.00436e-05)
(0.124048 0.000360916 -5.44762e-05)
(0.124815 -0.000318393 2.86058e-05)
(0.11861 0.000280457 -0.000279674)
(0.121049 -0.00055447 -0.000467663)
(0.121023 -0.000560172 -0.000637165)
(0.124517 -0.000622407 -0.000590239)
(0.125383 -3.3417e-05 -0.000817327)
(0.125158 5.59353e-05 -0.000852014)
(0.123731 -5.8982e-05 -0.000888831)
(0.116154 0.000338612 -0.000938867)
(0.119934 -5.79883e-05 8.20101e-05)
(0.117874 -0.000414598 7.59414e-05)
(0.118984 -0.000615933 0.000476306)
(0.106317 -0.000434269 -7.8645e-05)
(0.12495 0.00077848 0.00181875)
(0.120772 0.000344045 -0.000232124)
(0.120637 -0.000341498 -2.27342e-05)
(0.125077 -0.000869787 -0.00012896)
(0.120732 -0.000562135 -5.95695e-05)
(0.124857 -0.000829419 0.000203941)
(0.125241 0.000244878 0.0003701)
(0.124529 0.00021363 0.000203238)
(0.125034 0.000189597 8.77689e-05)
(0.125221 4.65939e-05 0.000182988)
(0.125454 -0.000351558 -0.000115643)
(0.117632 -0.000344777 4.31265e-05)
(0.124541 -0.000276843 -0.000506051)
(0.125135 0.000115783 -0.000681153)
(0.12675 0.000230109 -0.000411318)
(0.123842 -0.000179174 -0.000168513)
(0.12452 -0.000290205 0.000283598)
(0.126683 -0.000125763 8.44746e-05)
(0.127562 -0.000305436 4.55644e-05)
(0.12532 -0.00010484 -0.000611814)
(0.125195 -0.000100585 -0.000483374)
(0.12801 -7.18736e-05 -0.00060891)
(0.124226 0.000286457 -0.000509753)
(0.126423 0.000249808 -0.000370567)
(0.12691 -0.000360481 -0.000752968)
(0.122247 -0.000907802 -0.000229102)
(0.127771 -7.31776e-05 -0.000669727)
(0.125115 -0.000645989 0.000319076)
(0.127016 5.27765e-05 0.00054589)
(0.126828 -0.000181786 0.00024598)
(0.127031 -0.000425831 0.000269987)
(0.124688 5.16921e-05 0.000299418)
(0.125573 -0.000217626 0.000410126)
(0.116377 -6.38446e-05 0.00020768)
(0.118969 -0.000105574 -0.000627656)
(0.119017 -0.000398874 -0.000240504)
(0.119818 -0.000857966 -0.000444364)
(0.123709 -0.00078503 -0.000498672)
(0.124466 -0.000600234 -0.000512213)
(0.124916 -0.000436473 0.00037695)
(0.124641 -0.000354536 0.000129423)
(0.12753 -0.000294099 -0.000183484)
(0.127449 -0.00025038 0.000169102)
(0.12659 0.000176973 -0.000112849)
(0.12505 -0.000117172 -0.000198019)
(0.124472 0.000324625 0.000219399)
(0.126569 0.000499703 0.000307661)
(0.125899 0.000205962 -0.000449258)
(0.127706 -0.000202898 -0.000807782)
(0.126604 -6.22605e-05 -0.000332649)
(0.127554 -0.000347622 -0.000659978)
(0.125907 -0.000579584 -8.04666e-05)
(0.124584 -0.000488688 -2.67819e-05)
(0.123143 -0.00118632 0.00021005)
(0.12644 -0.000896215 0.000102497)
(0.126059 -0.000121819 0.00010102)
(0.121775 -0.00014035 -0.00035155)
(0.126954 -0.000205381 6.5147e-05)
(0.121668 0.000133656 -0.00075654)
(0.127214 2.83374e-05 2.30861e-05)
(0.128061 -0.000190248 -0.000423018)
(0.126739 -2.61603e-05 -0.000208436)
(0.125972 -7.8581e-05 0.000403675)
(0.116514 -1.89813e-05 -4.89983e-05)
(0.118225 -0.000251603 -0.000428405)
(0.107809 -0.00011496 -0.000248042)
(0.118969 -0.000760333 -0.00109459)
(0.106167 -0.000304614 -0.000318993)
(0.127943 0.000212816 0.000780008)
(0.12544 0.000225669 0.000249661)
(0.123773 -0.000645402 -0.000480992)
(0.116463 -0.000399315 -0.000366011)
(0.125525 -0.000295512 -0.000804944)
(0.12518 -0.000261097 -0.000637685)
(0.123624 -0.000430096 -0.000274816)
(0.11598 -0.00042112 -0.000426406)
(0.127523 0.000266012 0.000789903)
(0.12756 9.88167e-05 0.000860302)
(0.127742 0.000179573 0.000708463)
(0.12656 0.000366543 0.000790761)
(0.125348 0.000590246 0.000367627)
(0.125579 0.000246128 0.00024588)
(0.127119 0.000292844 0.000299298)
(0.117917 -0.000261744 -0.000430538)
(0.12011 -7.56683e-05 -0.000202243)
(0.105707 -0.00036422 -0.000403863)
(0.12127 0.000166211 -0.000347173)
(0.119655 -0.000188876 -0.00023252)
(0.118974 0.000294426 -0.000312919)
(0.106937 -9.91529e-05 -0.000739882)
(0.127216 -0.000194632 0.00015531)
(0.125494 -0.000354931 -0.000392957)
(0.127192 -0.000512686 -7.8208e-05)
(0.124352 0.000217723 -0.00015228)
(0.126067 2.4657e-05 -0.000446611)
(0.119409 -0.00038029 -0.000472788)
(0.120298 -0.00018387 -0.000609623)
(0.106621 -0.000432312 -0.00036455)
(0.121205 -0.000382471 -0.00012501)
(0.118495 -0.000108394 4.31222e-05)
(0.117986 5.73758e-05 0.00032826)
(0.107862 -9.71657e-05 0.000198762)
(0.128108 -0.000778841 0.000313249)
(0.125681 -0.000426934 0.000629787)
(0.125542 -0.000520273 0.00023726)
(0.127866 -0.000528366 1.81445e-05)
(0.120605 -5.3581e-05 -0.00139087)
(0.120259 -1.09945e-05 -0.000921104)
(0.123909 -0.000263078 -0.000891738)
(0.106813 -0.000337285 -0.00122412)
(0.123847 -1.10781e-05 -4.064e-05)
(0.124325 -0.000297633 3.58186e-05)
(0.125282 -0.000143029 4.3698e-05)
(0.117161 -0.000627229 7.18161e-05)
(0.121118 -0.000920233 -0.000457626)
(0.125219 -0.000532321 -0.000653298)
(0.125004 -0.000275068 -0.0008864)
(0.125633 -3.30954e-05 -8.49772e-05)
(0.127656 -0.00010009 0.000148918)
(0.126561 0.000186019 0.000444541)
(0.122172 0.000115634 -0.00125824)
(0.119221 0.000407486 -0.000919408)
(0.121452 0.000834426 -0.000894945)
(0.105024 -0.000486227 -0.000908064)
(0.12915 -6.93987e-05 7.42993e-05)
(0.128702 -0.000316165 -3.27839e-05)
(0.127066 7.18671e-05 -8.05763e-05)
(0.128823 3.6126e-05 -4.01471e-05)
(0.126869 -0.000302605 -0.000474065)
(0.123511 -0.000237189 -0.000334538)
(0.122754 -0.0001903 -0.000815074)
(0.126446 -0.000389347 -0.000233259)
(0.122051 -0.0010501 -0.000391182)
(0.122447 -0.000997835 -7.34728e-05)
(0.106655 -0.000289815 -0.000604083)
(0.120766 -0.000656998 0.000999362)
(0.119454 -0.000284891 0.00110921)
(0.121542 -0.000525776 0.000800882)
(0.105153 0.000175167 0.000220387)
(0.12475 -0.000348389 9.65916e-05)
(0.118715 -0.000296359 0.000117213)
(0.121479 -0.000280961 -0.000687707)
(0.1288 -0.00021925 -0.000205998)
(0.126841 -0.000191858 -0.000358454)
(0.11907 0.000470346 0.000102521)
(0.117977 0.000330306 0.00027892)
(0.120461 0.000243751 -0.000221432)
(0.105411 -0.000120758 0.00015111)
(0.121795 -8.04221e-05 -0.000729755)
(0.121573 0.000548069 -0.000451807)
(0.10678 -0.000386669 -0.000828094)
(0.11867 -0.000194075 0.000382759)
(0.121593 -0.000135399 0.000325109)
(0.119068 -0.000625961 0.000188153)
(0.107633 -0.000363635 0.000119737)
(0.118618 -0.0010819 -0.000409872)
(0.121694 -0.000949138 0.000172474)
(0.119736 -0.000900205 -0.000232255)
(0.104826 -0.000313913 -0.000424475)
(0.122267 0.000846334 -0.000679368)
(0.124641 0.000789991 0.000331237)
(0.124363 0.00046782 -0.000405055)
(0.116281 0.00061936 -0.000319514)
(0.119983 0.000265617 0.000322609)
(0.119005 0.000275916 0.000462299)
(0.10761 -5.32775e-05 0.00038474)
(0.127456 -0.00036727 -9.03772e-05)
(0.126926 -0.000216429 6.12845e-05)
(0.127875 -0.000399159 -7.19777e-05)
(0.127575 -0.000302504 7.13524e-05)
(0.125349 -0.000380044 0.000228228)
(0.125635 -0.000291865 -1.76101e-05)
(0.127988 -0.000344716 0.000325021)
(0.128256 -0.000365976 0.000238675)
(0.117393 0.000157174 -0.00124329)
(0.117475 0.00014386 -0.000533143)
(0.119971 0.000261366 -0.000978274)
(0.108586 -0.000263859 -0.000625029)
(0.121162 -0.000558813 0.000556864)
(0.120728 -0.00159951 -0.000347382)
(0.121402 -0.000892665 0.000164941)
(0.112397 -0.000792198 -0.000178578)
(0.122562 0.000983404 6.55284e-05)
(0.124843 0.000660765 -0.000261975)
(0.124873 0.000620361 -0.000524428)
(0.117663 0.000237168 -0.000520524)
(0.121016 0.000180975 8.81049e-05)
(0.118 1.34374e-06 -6.66592e-05)
(0.117316 -0.00016642 -0.000295899)
(0.10736 0.000261812 -0.00014498)
(0.125829 -8.09536e-05 0.000510969)
(0.117935 3.72186e-05 -5.54339e-05)
(0.126203 -0.000588095 -0.000397499)
(0.12752 -0.000208989 -0.000325236)
(0.126281 -0.00024161 -0.000225755)
(0.126287 -0.0002609 -0.000332017)
(0.123958 0.000418423 0.000115072)
(0.122587 0.000274702 0.000236201)
(0.117553 0.000389573 0.000311258)
(0.127052 0.000400026 -0.000142791)
(0.125803 0.000543957 0.000377368)
(0.126503 0.000494899 0.000165371)
(0.126677 0.000578797 0.00030826)
(0.126166 -0.000194792 -6.28407e-05)
(0.126213 -0.000544965 -0.00017017)
(0.116966 -0.000292509 -0.000133507)
(0.124133 -0.000406283 -8.36864e-05)
(0.122602 -0.000529187 0.000176939)
(0.124067 -0.000545689 0.000285485)
(0.11482 -0.000298103 -0.000185492)
(0.124062 -4.91046e-05 2.99059e-05)
(0.124499 0.000202606 0.000148086)
(0.116445 0.000165843 0.000332192)
(0.120045 -0.000436974 0.000692542)
(0.124478 -0.000511076 0.000370206)
(0.124833 -0.000726829 0.000675967)
(0.121894 -8.50159e-05 0.000317244)
(0.123576 -0.000286668 -4.77953e-05)
(0.123885 -0.000382961 0.000142628)
(0.116487 -0.000230169 0.000215065)
(0.120404 0.000252524 -0.000227719)
(0.117405 0.000113644 -0.000597383)
(0.106125 0.000802979 -0.00057452)
(0.126336 -0.000421773 -3.71564e-05)
(0.127996 -0.000499186 -4.68744e-05)
(0.128669 0.000129921 -0.000166733)
(0.124866 0.000239394 0.000550287)
(0.125808 0.000122994 0.000723427)
(0.117577 -0.000209083 0.000944572)
(0.126602 0.000201825 5.10315e-05)
(0.127285 -0.000174045 6.84935e-05)
(0.127106 0.000161658 -0.000112352)
(0.127388 0.000180453 -8.41134e-05)
(0.120803 -0.000131214 -5.13661e-05)
(0.121669 -0.000162439 0.000251686)
(0.120893 -0.000402832 5.54754e-05)
(0.106064 8.85273e-05 0.000185494)
(0.118074 7.58894e-05 0.00045809)
(0.117827 -0.00015015 0.000497668)
(0.119454 -1.81793e-05 0.000703888)
(0.106232 -0.000219393 0.00044014)
(0.126169 -0.000241333 -0.000219452)
(0.126994 -5.97703e-05 0.000269229)
(0.127937 -0.00044278 4.6464e-06)
(0.127568 -5.05891e-05 0.000210112)
(0.125961 -0.00036262 -0.000350109)
(0.127263 0.00014891 -0.000494711)
(0.12549 0.000281478 -0.000315799)
(0.122711 -0.000260938 0.000687826)
(0.125097 -0.000304499 0.000111417)
(0.12475 -0.000138788 0.000163094)
(0.123325 -0.000187029 0.000831528)
(0.122963 -7.90846e-05 0.000186858)
(0.125085 -0.000427177 0.00011314)
(0.116916 -0.000130221 0.000333544)
(0.125602 -0.000467647 -0.000713894)
(0.125771 -0.000165531 -0.000671284)
(0.123169 -0.000259185 -0.000353071)
(0.116431 9.30472e-05 -0.000670118)
(0.12565 -0.000281349 -0.000862672)
(0.121321 -0.000347076 -0.00079936)
(0.125505 -5.07623e-05 -0.000739262)
(0.121012 0.000464331 0.000300395)
(0.125294 0.00063118 0.000456917)
(0.122238 0.000330219 0.000678028)
(0.12581 0.000426956 0.000220765)
(0.127199 0.000381198 -0.000550865)
(0.123856 0.000483319 -0.000528192)
(0.124597 7.19066e-05 -0.000785121)
(0.121238 -4.35054e-05 -5.24528e-05)
(0.106835 -0.000208892 -0.000367608)
(0.120235 -4.60251e-05 -7.013e-05)
(0.124096 -0.000310032 -7.16236e-05)
(0.12785 0.000105895 0.000251731)
(0.127593 -0.00025582 0.000143868)
(0.127293 -1.80848e-05 0.000483456)
(0.127655 -0.000190116 0.000548391)
(0.126144 -0.000468619 0.000294357)
(0.126353 -0.000563463 0.000223799)
(0.126014 -0.000338035 0.00021106)
(0.126257 -0.000444032 9.58512e-05)
(0.126986 -0.000172661 0.000336287)
(0.126414 -0.000531671 0.000254794)
(0.124875 -0.000281934 0.000706738)
(0.121935 -0.00139401 -0.000266286)
(0.124993 -0.00155625 -0.000599574)
(0.123887 -0.000988942 -0.000727121)
(0.121945 -6.66499e-05 -0.000276003)
(0.121559 0.000408618 -0.000476019)
(0.116374 0.000146659 0.000365481)
(0.12597 -2.79975e-05 -0.000421533)
(0.117778 -0.000296342 -0.00031173)
(0.122052 0.000538747 -0.000581927)
(0.122305 0.000663778 -0.000842573)
(0.12374 0.000197355 -0.000647197)
(0.115844 -0.000156422 -0.000582918)
(0.127678 0.000272658 -0.000518676)
(0.126076 0.000390377 -0.000587624)
(0.126582 0.00021173 -0.000824037)
(0.106871 0.000148449 -0.000201276)
(0.123654 0.000137954 -0.000334947)
(0.117326 -0.000139536 -0.000215706)
(0.121268 0.000141627 2.34602e-05)
(0.124597 1.74167e-05 0.000358303)
(0.120797 8.20604e-05 -0.000161382)
(0.124882 0.000423063 0.000109905)
(0.125389 -2.29593e-05 5.471e-05)
(0.124917 5.12719e-05 -0.000150435)
(0.122449 0.000141846 0.000200282)
(0.118578 0.000362876 0.00055152)
(0.127957 -0.000229653 -0.000424439)
(0.125972 -0.000302259 -0.000598754)
(0.12742 -0.000393228 -0.000568053)
(0.125779 -0.00047774 -0.000364844)
(0.125387 -0.000697036 -0.000473056)
(0.127692 -0.000581941 -0.000268774)
(0.126695 -0.000583261 -0.000104032)
(0.1274 5.20646e-05 -0.000405596)
(0.127677 -0.000191572 -0.000246994)
(0.119596 -0.000766121 -0.000429954)
(0.120808 -0.000930821 -0.000428195)
(0.105786 3.1395e-05 -0.000414028)
(0.123676 -0.00103581 0.000283357)
(0.123877 -0.000258084 0.000177413)
(0.127694 -0.000410734 -0.000222736)
(0.124735 -0.000187473 -0.000286094)
(0.128017 -0.000335768 -0.000412492)
(0.126917 -0.0001192 0.000337967)
(0.126691 7.34377e-06 -4.82928e-05)
(0.125929 0.000280035 0.000315453)
(0.121985 -0.000377491 -0.000548093)
(0.126509 -0.00044685 -0.00065876)
(0.115229 9.06394e-06 5.85988e-05)
(0.117771 -0.000449954 0.000696149)
(0.117233 -0.000680102 0.000183963)
(0.10373 -0.000698403 0.000284264)
(0.1263 -0.000162591 -0.000296669)
(0.124103 -0.000408158 0.000366258)
(0.118063 -0.000394367 0.00134955)
(0.118335 -0.00128788 -0.000335619)
(0.10793 -0.000794359 -0.000180286)
(0.123673 0.000291073 -0.000105605)
(0.124038 0.000420179 0.000314892)
(0.102966 0.000109006 -0.000260344)
(0.124932 -0.000166601 0.000302037)
(0.128019 -0.000278098 0.000140908)
(0.119255 -0.000490722 0.000528038)
(0.122472 0.000370897 0.000496286)
(0.123427 -0.000501351 0.00025859)
(0.119895 0.00056897 -0.000182748)
(0.120091 0.000233325 -0.000183182)
(0.120639 0.000514908 -0.000598802)
(0.105779 -3.90592e-08 -4.9269e-05)
(0.124876 0.000149019 0.000118112)
(0.124059 0.000284548 0.000127961)
(0.123523 0.000184616 0.000222943)
(0.126342 0.000922955 -0.000340222)
(0.127363 0.00100285 -0.000297541)
(0.124098 0.000223317 -0.000237907)
(0.125055 0.000204856 -0.000429941)
(0.127455 -0.000902858 -0.000102888)
(0.126667 -9.36105e-05 0.000302162)
(0.12102 -0.000614112 -1.11965e-05)
(0.120808 -0.00036374 -9.32723e-05)
(0.10497 -0.000411637 0.000190003)
(0.119417 -0.000969517 0.000447925)
(0.117806 -0.000642097 0.000905261)
(0.107336 -0.000604327 0.000350088)
(0.126566 -0.000512 0.000458639)
(0.124549 -3.14702e-06 0.000709914)
(0.125748 -0.000364626 0.000781242)
(0.124105 -0.000146942 0.000108819)
(0.127177 4.61176e-06 -0.000630082)
(0.127962 -0.000124287 -0.000577238)
(0.12545 2.23406e-05 -0.000363755)
(0.119875 0.000529894 0.000151831)
(0.120928 1.6361e-06 7.6764e-05)
(0.104549 0.000261024 -0.000608466)
(0.127292 -0.000446505 0.000145318)
(0.127249 -0.000463779 0.00046223)
(0.127268 -0.000208534 0.000317246)
(0.123427 -0.000192675 -0.000176085)
(0.120808 -6.78501e-05 -0.000539751)
(0.107702 -0.000191267 -0.000351312)
(0.118169 -0.000284674 0.000282278)
(0.118204 -0.000585313 7.2647e-05)
(0.107826 -0.000356844 -3.48612e-05)
(0.123183 0.000298403 -0.00049966)
(0.122723 0.00029461 -0.000338327)
(0.124584 0.000364086 -0.00020654)
(0.116918 -0.000238245 -0.000383358)
(0.124196 -0.000431348 -0.000327566)
(0.12621 -0.000646803 0.000141128)
(0.12383 -0.000275748 0.000555896)
(0.125722 -0.000472458 0.00013993)
(0.121746 -0.00118116 5.52044e-05)
(0.123642 -0.000827212 -0.000121458)
(0.124074 -0.000461671 -0.000132443)
(0.115478 -0.000747567 -0.000430952)
(0.118378 -0.000395901 0.000667825)
(0.123003 1.88124e-05 0.000627464)
(0.121571 0.000156606 0.000227707)