/*--------------------------------*- C++ -*----------------------------------*\
| =========                 |                                                 |
| \\      /  F ield         | OpenFOAM: The Open Source CFD Toolbox           |
|  \\    /   O peration     | Version:  2212                                  |
|   \\  /    A nd           | Website:  www.openfoam.com                      |
|    \\/     M anipulation  |                                                 |
\*---------------------------------------------------------------------------*/
FoamFile
{
    version     2.0;
    format      ascii;
    arch        "LSB;label=32;scalar=64";
    class       volScalarField;
    location    "0.022";
    object      epsilon;
}
// * * * * * * * * * * * * * * * * * * * * * * * * * * * * * * * * * * * * * //

dimensions      [0 2 -3 0 0 0 0];

internalField   nonuniform List<scalar> 
31639
(
1.77107
1.76869
1.78723
1.78826
1.777
1.76012
1.79211
1.78672
1.77161
1.78573
1.79422
1.78443
1.7716
1.7731
1.75481
1.78093
1.77498
1.76698
1.74579
1.76546
1.78425
1.78767
1.78746
1.76096
1.76689
1.77076
1.76389
1.51998
1.77617
1.78837
1.78323
1.7667
1.78301
1.76257
1.78772
1.7909
1.772
1.79665
1.78655
1.78359
1.7767
1.76993
1.77803
1.78492
1.79322
1.78255
1.76328
1.76401
1.76993
1.78601
1.77997
1.75913
1.80173
1.79489
1.75731
1.77769
1.77567
1.77323
1.7673
1.78042
1.7671
1.78325
1.78926
1.76022
1.7707
1.7815
1.75298
1.77337
1.78823
1.78376
1.78841
1.72919
1.7752
1.76803
1.79788
1.7935
1.78318
1.76741
1.75988
1.78783
1.75838
1.78627
1.78536
1.78032
1.76138
1.7835
1.78789
1.78709
1.75959
1.79489
1.77284
1.76237
1.76664
1.7626
1.74653
1.75708
1.76496
1.76716
1.77516
1.78048
1.78995
1.78486
1.75378
1.77244
1.76403
1.78689
1.7749
1.77406
1.76957
1.79242
1.74957
1.77254
1.77004
1.76804
1.76519
1.77998
1.79081
1.78472
1.79667
1.76795
1.7761
1.78415
1.77072
1.76723
1.77705
1.78737
1.77172
1.75691
1.76021
1.77499
1.77572
1.76109
1.76206
1.76682
1.7726
1.77177
1.77655
1.77305
1.77984
1.77145
1.76793
1.78286
1.78639
1.76585
1.78475
1.77955
1.77716
1.78341
1.77227
1.78803
1.78478
1.78319
1.74902
1.77138
1.77672
1.78331
1.763
1.78963
1.75057
1.75939
1.78236
1.78516
1.78844
1.7795
1.78551
1.75373
1.78773
1.78741
1.78029
1.76104
1.72383
1.75375
1.78636
1.77197
1.78628
1.78297
1.77582
1.78892
1.77434
1.75928
1.76122
1.74335
1.73556
1.77897
1.78113
1.78808
1.72866
1.78796
1.78904
1.76815
1.79766
1.78197
1.7585
1.76319
1.76387
1.76059
1.7746
1.77577
1.76418
1.76331
1.7792
1.79887
1.7409
1.74543
1.78264
1.77133
1.75652
1.75177
1.78565
1.78286
1.76767
1.7754
1.78283
1.77959
1.77953
1.77664
1.77835
1.77785
1.7971
1.78184
1.77326
1.77841
1.77521
1.79194
1.77907
1.79458
1.79094
1.77194
1.77903
1.77586
1.77187
1.78913
1.76037
1.78563
1.75678
1.76317
1.75328
1.76759
1.79548
1.76736
1.75849
1.75076
1.74822
1.76277
1.8059
1.77488
1.75022
1.74709
1.74711
1.77104
1.73487
1.79811
1.77447
1.78565
1.78748
1.77663
1.78029
1.77315
1.76776
1.78381
1.78879
1.78009
1.78478
1.78617
1.76076
1.77369
1.75707
1.76125
1.75175
1.74171
1.75392
1.75769
1.78006
1.7978
1.79034
1.77627
1.76687
1.77098
1.77409
1.77884
1.76636
1.79233
1.79004
1.77383
1.76724
1.80471
1.77241
1.77835
1.77033
1.77401
1.80106
1.74829
1.75675
1.77598
1.79657
1.76439
1.80958
1.77737
1.79586
1.81366
1.77236
1.75546
1.76563
1.75309
1.78582
1.75996
1.75143
1.75752
1.78624
1.77847
1.79118
1.76686
1.77937
1.79815
1.77812
1.76686
1.74725
1.78804
1.78864
1.75428
1.77888
1.78654
1.77749
1.7829
1.78556
1.7939
1.78349
1.77376
1.77611
1.78282
1.77209
1.77017
1.74049
1.75413
1.7912
1.80446
1.79755
1.76365
1.73052
1.78482
1.77953
1.75527
1.74484
1.7506
1.75471
1.75272
1.77506
1.73083
1.78361
1.79425
1.79766
1.76408
1.79812
1.76131
1.76053
1.77653
1.75601
1.76559
1.78714
1.79239
1.77381
1.77974
1.78931
1.77255
1.77203
1.76498
1.77753
1.76591
1.78879
1.75144
1.79442
1.78394
1.78364
1.76938
1.77168
1.76952
1.77964
1.78722
1.80229
1.78559
1.75908
1.76853
1.75675
1.76985
1.77686
1.7716
1.78532
1.78223
1.7526
1.79369
1.77572
1.78677
1.76286
1.80387
1.75523
1.7537
1.75451
1.75495
1.76436
1.78003
1.75562
1.79336
1.78074
1.77995
1.77178
1.76848
1.79182
1.78007
1.77005
1.74872
1.76536
1.77974
1.76708
1.76716
1.7671
1.78137
1.78222
1.7729
1.78026
1.78887
1.76459
1.77597
1.78748
1.7982
1.77368
1.75472
1.78099
1.80366
1.77692
1.77218
1.7832
1.76624
1.76043
1.76282
1.79376
1.77708
1.79635
1.77754
1.76557
1.77697
1.76534
1.79439
1.78487
1.77635
1.7916
1.74507
1.76816
1.77856
1.78194
1.80032
1.77208
1.77128
1.77301
1.79099
1.75932
1.78504
1.80115
1.76313
1.75287
1.77538
1.78495
1.77172
1.77984
1.75889
1.77863
1.49433
1.75566
1.78934
1.75122
1.77776
1.79921
1.76831
1.76751
1.75171
1.77318
1.75735
1.77425
1.78215
1.78896
1.76252
1.78031
1.77851
1.76189
1.78404
1.76218
1.77042
1.77893
1.76199
1.78526
1.7779
1.78089
1.77169
1.80826
1.78995
1.79108
1.77481
1.78534
1.77341
1.77595
1.80517
1.77027
1.77644
1.78264
1.75812
1.74622
1.78235
1.76908
1.76633
1.79734
1.77748
1.80541
1.77972
1.75524
1.7979
1.81326
1.77752
1.78183
1.78217
1.75994
1.77401
1.76178
1.78041
1.79239
1.80635
1.78199
1.77199
1.74346
1.75506
1.75848
1.76965
1.76881
1.75897
1.7521
1.76268
1.76874
1.78495
1.777
1.76758
1.76913
1.76617
1.80354
1.76275
1.75941
1.5409
1.78294
1.76153
1.7707
1.78249
1.77215
1.77412
1.73991
1.77257
1.79347
1.77738
1.78574
1.76379
1.76044
1.80756
1.77734
1.7802
1.77869
1.76073
1.78538
1.77478
1.77393
1.78936
1.77617
1.76314
1.80781
1.78568
1.80488
1.79179
1.79409
1.77376
1.78248
1.77936
1.75829
1.77379
1.7593
1.74291
1.77481
1.75802
1.82575
1.80948
1.81547
1.76673
1.76714
1.78988
1.77319
1.7527
1.77166
1.77119
1.79164
1.81531
1.78263
1.77178
1.76789
1.81953
1.78754
1.77195
1.78425
1.74403
1.78769
1.75415
1.75933
1.75436
1.77916
1.79841
1.76984
1.75765
1.75895
1.74881
1.78689
1.7807
1.78441
1.51155
1.78081
1.80625
1.77795
1.77007
1.77139
1.76948
1.7668
1.77732
1.76942
1.76695
1.78881
1.77747
1.79564
1.77272
1.77274
1.7785
1.79487
1.76642
1.77428
1.77042
1.81005
1.77205
1.77551
1.748
1.78267
1.7948
1.77258
1.78321
1.75134
1.78573
1.78708
1.78005
1.76252
1.7753
1.79339
1.80071
1.79566
1.79357
1.80005
1.76235
1.76353
1.78821
1.80545
1.76364
1.77406
1.75778
1.76036
1.77441
1.78775
1.79926
1.77082
1.75302
1.76177
1.76618
1.76152
1.78903
1.81061
1.80801
1.76129
1.77537
1.79173
1.74116
1.77084
1.7695
1.78709
1.78669
1.74262
1.74656
1.74677
1.77232
1.77482
1.77628
1.78866
1.74734
1.75362
1.76961
1.76462
1.75749
1.48377
1.78624
1.76445
1.77244
1.78799
1.77516
1.78615
1.79116
1.7774
1.76801
1.7737
1.77429
1.78547
1.78729
1.77609
1.78937
1.77943
1.78635
1.78317
1.76439
1.78518
1.73921
1.75844
1.75422
1.79847
1.76667
1.77713
1.79349
1.80515
1.77837
1.76452
1.76678
1.78885
1.76763
1.75881
1.75697
1.79383
1.75056
1.8028
1.78671
1.80155
1.78014
1.76569
1.8027
1.795
1.7765
1.76589
1.75679
1.74809
1.77059
1.73426
1.77053
1.78204
1.74492
1.76947
1.76898
1.772
1.76329
1.79501
1.7591
1.76524
1.75971
1.77353
1.7746
1.77294
1.76635
1.76434
1.77399
1.74868
1.75505
1.73716
1.78802
1.78145
1.76537
1.76388
1.74774
1.77506
1.7581
1.75514
1.74498
1.77756
1.80779
1.7929
1.79166
1.77789
1.75969
1.78299
1.76237
1.75307
1.75694
1.7793
1.79323
1.77787
1.79074
1.76832
1.79623
1.77076
1.78601
1.77873
1.7756
1.79659
1.7629
1.80905
1.79303
1.80413
1.76726
1.77434
1.77039
1.75875
1.78002
1.73328
1.7902
1.77257
1.80456
1.7741
1.7945
1.78813
1.73654
1.7898
1.78555
1.78413
1.78526
1.7693
1.74082
1.78999
1.77749
1.77591
1.76227
1.76589
1.75484
1.77474
1.75177
1.77218
1.7524
1.76854
1.75244
1.79171
1.77216
1.77234
1.77773
1.77941
1.8011
1.7587
1.76487
1.75592
1.76051
1.79856
1.79027
1.79306
1.78248
1.77354
1.79217
1.75952
1.76039
1.7788
1.77828
1.77981
1.78903
1.80376
1.78562
1.78073
1.77789
1.7912
1.78794
1.77121
1.77142
1.77994
1.76278
1.8036
1.77402
1.75619
1.76965
1.78765
1.75909
1.79034
1.8177
1.78587
1.7627
1.74975
1.80062
1.75451
1.75217
1.75422
1.78217
1.80065
1.7774
1.76895
1.76996
1.78458
1.80996
1.75026
1.77957
1.78558
1.78601
1.79664
1.7928
1.74447
1.75415
1.7512
1.79027
1.79381
1.79281
1.76036
1.77051
1.771
1.76136
1.78391
1.75954
1.74468
1.74712
1.75401
1.75913
1.77152
1.75531
1.77441
1.77699
1.75347
1.74576
1.78106
1.76629
1.75518
1.75826
1.77273
1.78199
1.79633
1.79199
1.76195
1.76446
1.74668
1.77886
1.75888
1.78856
1.78932
1.76833
1.80283
1.77257
1.7819
1.75705
1.76759
1.77106
1.80706
1.77887
1.78612
1.77377
1.79319
1.80135
1.75101
1.76701
1.77762
1.75852
1.75416
1.80085
1.76901
1.80896
1.74817
1.74957
1.7896
1.77388
1.78062
1.80953
1.78046
1.76214
1.76259
1.7701
1.79415
1.79727
1.78832
1.7941
1.78464
1.76799
1.77703
1.80526
1.79362
1.80746
1.77509
1.76901
1.78026
1.76861
1.79592
1.76125
1.76255
1.79054
1.75752
1.77228
1.79044
1.75374
1.78454
1.79781
1.79443
1.75715
1.77157
1.79254
1.77886
1.81331
1.77795
1.76577
1.77785
1.76842
1.80619
1.78931
1.77255
1.77157
1.79071
1.80605
1.77907
1.77417
1.76886
1.7759
1.79022
1.78466
1.78988
1.7612
1.77299
1.79728
1.76562
1.81012
1.78109
1.77133
1.79418
1.77128
1.79053
1.76537
1.76603
1.81803
1.75408
1.75289
1.78831
1.79069
1.77793
1.76455
1.78679
1.80772
1.80041
1.80828
1.798
1.78117
1.77945
1.78142
1.78951
1.78125
1.80955
1.76591
1.74569
1.77133
1.78583
1.7795
1.79506
1.78986
1.81208
1.79784
1.77388
1.7623
1.76226
1.7571
1.76816
1.80031
1.7991
1.77608
1.79174
1.78065
1.76464
1.805
1.78012
1.77473
1.75756
1.77487
1.78742
1.77041
1.77327
1.75091
1.76937
1.76784
1.79934
1.81036
1.7636
1.79685
1.81457
1.77315
1.76434
1.76736
1.78819
1.80276
1.76847
1.76548
1.78936
1.78378
1.74886
1.80957
1.7694
1.80263
1.76603
1.76113
1.77654
1.794
1.79084
1.78888
1.78192
1.79177
1.78089
1.79566
1.78154
1.76601
1.78481
1.7407
1.7476
1.81173
1.80866
1.78011
1.80788
1.83021
1.78161
1.77739
1.78688
1.77672
1.7854
1.77375
1.7694
1.78224
1.79194
1.78285
1.76139
1.75956
1.78228
1.80869
1.78554
1.79256
1.74857
1.77388
1.79196
1.80943
1.74268
1.81701
1.76102
1.7764
1.77071
1.76356
1.79667
1.76839
1.78824
1.75644
1.79778
1.76536
1.8037
1.79353
1.77605
1.78733
1.7834
1.79832
1.78055
1.80702
1.80657
1.76404
1.75296
1.77726
1.76505
1.78256
1.79751
1.76904
1.78185
1.7604
1.77232
1.79755
1.77599
1.76167
1.76977
1.80447
1.79556
1.81784
1.78491
1.82109
1.78846
1.78897
1.81411
1.78454
1.78661
1.74896
1.80329
1.82177
1.77951
1.75506
1.77384
1.79984
1.79171
1.78168
1.796
1.78485
1.7962
1.80006
1.79444
1.80824
1.77446
1.80175
1.79083
1.77344
1.79365
1.79616
1.76014
1.79237
1.77516
1.81446
1.80625
1.77227
1.76217
1.78662
1.7663
1.7875
1.79595
1.78585
1.8027
1.78331
1.75614
1.77938
1.74978
1.7815
1.80512
1.77066
1.76883
1.76894
1.76172
1.70837
1.76087
1.77209
1.78776
1.80982
1.76288
1.77723
1.79188
1.75293
1.75296
1.79005
1.77549
1.79133
1.78152
1.76827
1.76578
1.78448
1.79637
1.77074
1.74683
1.75524
1.75881
1.74916
1.80522
1.7835
1.76472
1.76449
1.7893
1.80118
1.79778
1.80721
1.79393
1.80152
1.78064
1.79496
1.77029
1.77063
1.74713
1.81482
1.7623
1.79756
1.80207
1.80749
1.79875
1.77797
1.79043
1.77291
1.78773
1.80765
1.81047
1.77782
1.80202
1.76666
1.80637
1.77603
1.77209
1.80893
1.76749
1.77239
1.77165
1.79184
1.74939
1.79284
1.78241
1.75043
1.77504
1.76989
1.76915
1.78545
1.78475
1.79289
1.76019
1.79403
1.7595
1.7624
1.78258
1.79689
1.73886
1.78951
1.80281
1.78747
1.79475
1.76584
1.76383
1.75146
1.7747
1.7661
1.78393
1.76827
1.7823
1.74142
1.77226
1.79272
1.77792
1.76214
1.76451
1.7853
1.76646
1.78198
1.7553
1.75704
1.80685
1.79073
1.77932
1.7809
1.75937
1.75067
1.81141
1.82069
1.81327
1.8036
1.76001
1.78444
1.79398
1.77003
1.80765
1.8008
1.79667
1.77916
1.7887
1.79233
1.77585
1.79771
1.8132
1.74971
1.7923
1.80659
1.80345
1.79298
1.76077
1.76904
1.77593
1.79087
1.77277
1.77949
1.78242
1.75761
1.75691
1.77911
1.79941
1.76792
1.81005
1.75276
1.79164
1.79744
1.77043
1.77219
1.76428
1.77761
1.77326
1.74984
1.76794
1.76489
1.76522
1.74632
1.76011
1.75123
1.77946
1.60806
1.7641
1.80381
1.79375
1.75713
1.77079
1.78379
1.77525
1.79277
1.79878
1.80282
1.77443
1.75611
1.76219
1.77418
1.76539
1.78169
1.76785
1.78701
1.77072
1.80089
1.78895
1.77031
1.77747
1.77766
1.7912
1.77047
1.78354
1.77113
1.77481
1.74437
1.77003
1.77883
1.78118
1.77427
1.73335
1.73755
1.76886
1.77575
1.81361
1.80809
1.80103
1.80499
1.79791
1.8066
1.76404
1.7803
1.8012
1.75421
1.76843
1.81881
1.79819
1.77894
1.80854
1.78114
1.79475
1.80737
1.78834
1.78295
1.77164
1.77819
1.79189
1.77699
1.75982
1.75351
1.80495
1.78332
1.77095
1.79715
1.45277
1.77733
1.7672
1.76361
1.80038
1.7536
1.76336
1.76109
1.75994
1.77419
1.76376
1.74532
1.79342
1.74953
1.76702
1.76336
1.77264
1.76814
1.75663
1.76797
1.76904
1.78123
1.78249
1.77919
1.77931
1.7689
1.77277
1.77675
1.74805
1.78425
1.78293
1.75601
1.80219
1.76635
1.79667
1.76129
1.77502
1.80177
1.78845
1.75699
1.77121
1.79608
1.78047
1.77353
1.74758
1.75894
1.79512
1.77232
1.76604
1.77741
1.7693
1.7664
1.77683
1.77189
1.7919
1.75541
1.77315
1.78882
1.74724
1.77198
1.8041
1.81315
1.77296
1.79422
1.7947
1.73666
1.76216
1.78485
1.80239
1.78887
1.54802
1.79405
1.7958
1.77753
1.77496
1.81308
1.78683
1.79249
1.77589
1.7685
1.76472
1.80789
1.76437
1.76885
1.78359
1.77589
1.79016
1.80647
1.77678
1.75393
1.76814
1.76023
1.77588
1.80606
1.76485
1.77242
1.77046
1.76304
1.75576
1.77049
1.78093
1.7936
1.8173
1.82211
1.7556
1.81819
1.77228
1.784
1.77412
1.76108
1.77099
1.80726
1.7672
1.77259
1.81389
1.7879
1.76893
1.79557
1.77309
1.77201
1.7679
1.78917
1.78826
1.81424
1.57324
1.74834
1.78414
1.75631
1.77695
1.77265
1.76469
1.76192
1.79686
1.75811
1.79046
1.76814
1.7993
1.7728
1.76854
1.74278
1.79265
1.79043
1.76283
1.79213
1.78276
1.74503
1.79467
1.81432
1.78472
1.78148
1.77067
1.78376
1.76071
1.81441
1.79707
1.77857
1.80925
1.79578
1.80848
1.77958
1.77619
1.79333
1.77045
1.77265
1.79269
1.76139
1.78529
1.77743
1.80388
1.78588
1.77236
1.77957
1.75546
1.76921
1.76428
1.74332
1.75798
1.76609
1.78591
1.76617
1.76289
1.78515
1.7717
1.76
1.787
1.74753
1.7851
1.7762
1.77848
1.7687
1.80348
1.80928
1.799
1.78872
1.7712
1.71552
1.77178
1.78387
1.77585
1.78653
1.77334
1.80358
1.77751
1.74014
1.80177
1.78833
1.7934
1.76743
1.77977
1.80274
1.78323
1.77243
1.77045
1.77362
1.75893
1.77263
1.77542
1.78755
1.79632
1.78025
1.79231
1.58601
1.77646
1.78617
1.78558
1.79674
1.74997
1.79487
1.76833
1.75155
1.74831
1.77866
1.79729
1.73967
1.78796
1.7888
1.78067
1.76564
1.80548
1.77956
1.7832
1.79257
1.75897
1.79595
1.74146
1.74781
1.79393
1.78981
1.63783
1.74991
1.76766
1.79302
1.77653
1.77262
1.78596
1.75703
1.77439
1.77296
1.78214
1.78534
1.7896
1.75411
1.76437
1.77711
1.81128
1.77265
1.78544
1.79062
1.7876
1.79414
1.77835
1.80825
1.77741
1.75458
1.75389
1.75322
1.77656
1.74651
1.77834
1.77355
1.78758
1.78834
1.77774
1.76422
1.81365
1.7564
1.77685
1.76803
1.77099
1.78199
1.77258
1.78244
1.78925
1.78428
1.74844
1.75348
1.79445
1.77529
1.75507
1.78781
1.77693
1.74385
1.79639
1.77618
1.77058
1.77617
1.76908
1.75726
1.76926
1.75794
1.78401
1.7575
1.74293
1.76765
1.60558
1.77403
1.77731
1.77976
1.79651
1.76108
1.7849
1.80086
1.7518
1.79432
1.78413
1.79986
1.7845
1.80743
1.77932
1.75383
1.77559
1.76512
1.79169
1.76233
1.78068
1.76761
1.78625
1.73215
1.78008
1.77689
1.75787
1.76836
1.80159
1.79373
1.78306
1.78072
1.81011
1.80066
1.78271
1.79968
1.78336
1.75934
1.80701
1.80282
1.78874
1.79827
1.75628
1.73366
1.77549
1.77122
1.7626
1.80309
1.76754
1.76165
1.77643
1.77754
1.76911
1.75778
1.76538
1.7744
1.7763
1.77168
1.76968
1.77736
1.78157
1.77939
1.77852
1.76061
1.77505
1.79241
1.77296
1.77777
1.8004
1.77584
1.777
1.79333
1.77121
1.75527
1.80965
1.73629
1.78483
1.73866
1.76574
1.78195
1.76737
1.79095
1.73897
1.7828
1.7666
1.80003
1.79227
1.78425
1.77348
1.79481
1.77894
1.76498
1.8023
1.76829
1.77658
1.77801
1.74778
1.80049
1.80132
1.75479
1.7664
1.77406
1.81109
1.77658
1.79389
1.72754
1.8103
1.79412
1.78508
1.78852
1.7699
1.74874
1.75746
1.8013
1.77347
1.79595
1.77643
1.80447
1.76108
1.76286
1.76167
1.77387
1.7836
1.75241
1.75443
1.77369
1.79144
1.76233
1.76449
1.75645
1.79277
1.79045
1.76475
1.77682
1.7844
1.79866
1.82881
1.76397
1.75476
1.74211
1.77918
1.79562
1.79737
1.75973
1.7769
1.74292
1.74632
1.77031
1.77752
1.76396
1.77829
1.7886
1.69972
1.76991
1.79217
1.76849
1.7766
1.79036
1.76293
1.79032
1.77916
1.77135
1.78992
1.776
1.78947
1.79405
1.75562
1.80709
1.77921
1.76143
1.76351
1.76342
1.7615
1.74254
1.77973
1.78931
1.79675
1.78603
1.76399
1.76661
1.78819
1.77847
1.81018
1.78792
1.74998
1.75107
1.78611
1.76514
1.52728
1.78476
1.7658
1.75153
1.77171
1.75899
1.75975
1.75191
1.78699
1.75002
1.76969
1.75583
1.78804
1.75629
1.73687
1.7786
1.79645
1.7597
1.80041
1.77288
1.74351
1.7719
1.78633
1.74954
1.78728
1.78087
1.77549
1.80275
1.82782
1.75853
1.76726
1.72064
1.75382
1.78265
1.80488
1.77126
1.76889
1.74276
1.76296
1.76502
1.79239
1.76561
1.79623
1.78535
1.79482
1.80428
1.79457
1.79049
1.771
1.80344
1.76951
1.75307
1.81309
1.75235
1.76592
1.80412
1.7587
1.79644
1.75519
1.76715
1.78726
1.77274
1.75912
1.78704
1.77832
1.74122
1.75109
1.79828
1.79045
1.77934
1.77334
1.78494
1.75481
1.78169
1.78799
1.79793
1.8015
1.78253
1.76878
1.7916
1.77332
1.77582
1.78564
1.75919
1.7738
1.75927
1.77929
1.7386
1.7796
1.76944
1.7874
1.76335
1.79715
1.7787
1.74075
1.79262
1.75401
1.7776
1.77374
1.75389
1.50267
1.74718
1.75811
1.76431
1.78495
1.73142
1.78434
1.79434
1.81462
1.77715
1.80256
1.74103
1.75135
1.76718
1.75373
1.74018
1.77788
1.75934
1.75649
1.77568
1.75132
1.5613
1.78241
1.78172
1.7393
1.75658
1.78562
1.77461
1.80663
1.74108
1.79159
1.75707
1.77403
1.78328
1.73419
1.7545
1.79897
1.75515
1.76224
1.77677
1.80947
1.7992
1.8246
1.81079
1.80068
1.80958
1.79083
1.77738
1.79552
1.79433
1.78567
1.74167
1.77324
1.71125
1.78888
1.75746
1.78288
1.73652
1.76569
1.76324
1.76851
1.73511
1.81241
1.75072
1.77347
1.74151
1.7845
1.7696
1.78929
1.77479
1.79214
1.77013
1.78357
1.75653
1.77883
1.78166
1.82286
1.77162
1.77419
1.78185
1.75407
1.78078
1.7806
1.77391
1.74374
1.57233
1.59857
1.7093
1.76949
1.79232
1.77977
1.79075
1.77815
1.77986
1.74955
1.76167
1.76051
1.78531
1.47179
1.78051
1.7494
1.76617
1.76393
1.77557
1.78258
1.78777
1.78287
1.73789
1.75236
1.7655
1.76128
1.69531
1.76792
1.7534
1.77179
1.7751
1.76877
1.76308
1.75187
1.76438
1.57241
1.78074
1.72831
1.77436
1.76185
1.7612
1.76058
1.76438
1.77445
1.79839
1.77454
1.80436
1.49117
1.78621
1.78984
1.78986
1.78851
1.74951
1.79424
1.77637
1.79451
1.762
1.78422
1.79577
1.79401
1.78134
1.78572
1.76807
1.76665
1.75607
1.75341
1.76335
1.77327
1.75263
1.76229
1.73329
1.76631
1.76869
1.75131
1.73336
1.77843
1.75957
1.76133
1.78892
1.76899
1.76609
1.78587
1.7881
1.78109
1.7696
1.82456
1.51242
1.78364
1.76432
1.80827
1.78666
1.82528
1.78135
1.76894
1.78979
1.76791
1.78381
1.77438
1.61503
1.77936
1.78561
1.78316
1.80648
1.76884
1.79484
1.83418
1.79537
1.7626
1.79766
1.77837
1.79076
1.74261
1.76066
1.73845
1.79499
1.75657
1.7424
1.75765
1.75963
1.70896
1.7755
1.78161
1.76949
1.74707
1.78702
1.78475
1.7697
1.77223
1.76282
1.75927
1.74733
1.76378
1.75059
1.72932
1.76103
1.7875
1.77289
1.73488
1.69412
1.76615
1.748
1.76539
1.74239
1.75918
1.76413
1.76932
1.71456
1.75523
1.73576
1.77281
1.64966
1.76083
1.78007
1.76524
1.7824
1.77585
1.83416
1.75411
1.74956
1.7988
1.77319
1.76635
1.76232
1.78723
1.7686
1.79546
1.76007
1.79157
1.79889
1.45274
1.76428
1.78921
1.78656
1.74847
1.74943
1.51629
1.78209
1.77481
1.75579
1.78377
1.78034
1.76567
1.75433
1.75482
1.80354
1.77523
1.785
1.75508
1.80915
1.78595
1.76046
1.76083
1.76876
1.76002
1.76595
1.78895
1.7807
1.58198
1.78438
1.78337
1.78286
1.76159
1.77971
1.72291
1.76754
1.7513
1.75913
1.67733
1.6489
1.7623
1.76651
1.76818
1.79229
1.7125
1.7362
1.77679
1.76398
1.73104
1.7538
1.7853
1.78584
1.75331
1.74267
1.76089
1.78047
1.76993
1.79222
1.76444
1.75095
1.75878
1.76937
1.77716
1.78819
1.75981
1.74873
1.77331
1.79923
1.76176
1.7888
1.75369
1.75183
1.71199
1.75508
1.76614
1.77115
1.74253
1.7879
1.78431
1.77164
1.77755
1.73734
1.76867
1.72156
1.76425
1.75703
1.73897
1.7749
1.78031
1.78974
1.77854
1.52109
1.77804
1.75183
1.75564
1.73771
1.7712
1.76615
1.53168
1.78311
1.73692
1.48503
1.75462
1.8069
1.77495
1.76201
1.77861
1.51066
1.7573
1.7726
1.77496
1.79324
1.75743
1.79363
1.77365
1.75701
1.76094
1.75701
1.76244
1.76027
1.75612
1.78666
1.7723
1.78045
1.80714
1.76727
1.799
1.77273
1.80263
1.77164
1.77498
1.75397
1.80292
1.66549
1.76956
1.76244
1.79709
1.83462
1.76711
1.7886
1.75909
1.74812
1.74151
1.77145
1.76645
1.74469
1.78275
1.74942
1.7839
1.70085
1.77241
1.74218
1.76551
1.73739
1.70851
1.63882
1.77658
1.79745
1.75403
1.78534
1.75444
1.7627
1.64825
1.63223
1.75998
1.65701
1.75199
1.74462
1.7982
1.74929
1.78249
1.68065
1.49887
1.78397
1.78608
1.49942
1.78947
1.80242
1.74774
1.78545
1.67476
1.78117
1.7926
1.78956
1.52775
1.79956
1.79834
1.7139
1.78119
1.78254
1.7858
1.50193
1.77606
1.77804
1.78197
1.78998
1.75409
1.76878
1.75233
1.74993
1.76012
1.7505
1.75424
1.74072
1.66398
1.76607
1.73762
1.74133
1.79089
1.80608
1.7544
1.71053
1.78616
1.78173
1.75472
1.75822
1.7643
1.76525
1.80264
1.77839
1.79078
1.7548
1.76953
1.75882
1.7887
1.78256
1.79318
1.71428
1.76313
1.64551
1.75348
1.80884
1.77005
1.74377
1.78056
1.73956
1.70914
1.76542
1.77558
1.75253
1.47701
1.61104
1.7383
1.75588
1.76172
1.71851
1.73606
1.79127
1.69897
1.73695
1.78186
1.75325
1.81085
1.6776
1.78161
1.70415
1.78478
1.77211
1.77221
1.79368
1.7377
1.69756
1.73213
1.78959
1.77411
1.7754
1.79551
1.66247
1.77149
1.76095
1.77524
1.79
1.78085
1.74001
1.75758
1.48269
1.7854
1.79681
1.73874
1.75677
1.73575
1.75471
1.78061
1.77935
1.77591
1.78919
1.76681
1.75663
1.74996
1.82004
1.64421
1.75931
1.63936
1.76075
1.79206
1.74001
1.78797
1.82309
1.79859
1.77882
1.73951
1.68537
1.73304
1.53232
1.74703
1.76471
1.77161
1.74216
1.79715
1.7586
1.80605
1.6659
1.72516
1.74483
1.65475
1.78602
1.70653
1.70773
1.72934
1.77133
1.78896
1.75517
1.79661
1.64626
1.7643
1.51563
1.51896
1.77038
1.66509
1.76464
1.76348
1.78615
1.78318
1.73849
1.78405
1.7546
1.74391
1.65323
1.73523
1.78164
1.75222
1.74828
1.67054
1.78183
1.75373
1.7427
1.70436
1.77727
1.74163
1.75918
1.76765
1.78078
1.77707
1.76402
1.73028
1.76708
1.79629
1.77193
1.4981
1.51659
1.65796
1.78273
1.7018
1.76111
1.5225
1.81088
1.77124
1.76789
1.73505
1.79864
1.74013
1.73445
1.8096
1.80843
1.71698
1.81165
1.5657
1.71866
1.61399
1.7649
1.78716
1.76533
1.75674
1.75119
1.59159
1.73938
1.57542
1.7347
1.69629
1.78622
1.66132
1.78066
1.69825
1.77812
1.69858
1.64755
1.80005
1.74596
1.80029
1.72207
1.76645
1.70183
1.75236
1.76823
1.72032
1.74799
1.76116
1.74565
1.78344
1.5414
1.76304
1.76038
1.7384
1.71366
1.776
1.76222
1.70854
1.78085
1.77179
1.65523
1.74553
1.77983
1.49321
1.79773
1.55796
1.7501
1.79188
1.78291
1.62001
1.78668
1.79213
1.76653
1.75499
1.75805
1.7768
1.52149
1.73967
1.72019
1.79519
1.80594
1.66262
1.7919
1.69505
1.69176
1.56772
1.49281
1.52893
1.80492
1.67453
1.79145
1.73009
1.72545
1.74001
1.78318
1.66843
1.46663
1.71061
1.77513
1.76824
1.76641
1.49788
1.80706
1.76739
1.77025
1.80089
1.72563
1.67151
1.78011
1.71219
1.73994
1.73894
1.71009
1.71559
1.7432
1.76739
1.65442
1.63521
1.67516
1.7647
1.70929
1.69618
1.672
1.74926
1.67804
1.7873
1.79275
1.73982
1.58323
1.77196
1.76856
1.63095
1.76114
1.74131
1.80311
1.52629
1.77783
1.68597
1.77025
1.7905
1.74318
1.65821
1.81938
1.75004
1.75301
1.69418
1.64457
1.77744
1.78461
1.58013
1.58713
1.73658
1.58317
1.62103
1.7391
1.56525
1.78989
1.57906
1.67941
1.71277
1.68263
1.71034
1.68788
1.57388
1.74786
1.6623
1.78812
1.72798
1.78159
1.70916
1.71617
1.48998
1.71461
1.52573
1.55734
1.76011
1.7398
1.6946
1.80121
1.75584
1.7541
1.76998
1.5531
1.72021
1.78136
1.75022
1.7787
1.65761
1.79191
1.76866
1.75707
1.76147
1.76141
1.6953
1.71157
1.65618
1.7789
1.81569
1.7893
1.71013
1.64171
1.79222
1.68519
1.54552
1.61122
1.75716
1.70109
1.71382
1.69146
1.72649
1.7375
1.54901
1.76872
1.75275
1.5949
1.80031
1.70433
1.68511
1.78785
1.70327
1.79187
1.7444
1.64021
1.74563
1.58533
1.62077
1.79495
1.75428
1.53487
1.78315
1.69967
1.74062
1.75554
1.70893
1.76312
1.66125
1.73164
1.73627
1.71833
1.71052
1.76602
1.67856
1.58619
1.6392
1.53361
1.73879
1.71408
1.58474
1.78265
1.76956
1.5697
1.58703
1.7605
1.58434
1.6873
1.6375
1.67009
1.78149
1.65296
1.79664
1.73633
1.70588
1.64265
1.71729
1.65297
1.5098
1.60527
1.66412
1.57464
1.78964
1.67626
1.73113
1.61693
1.75602
1.74943
1.68964
1.60238
1.70021
1.62985
1.70295
1.76235
1.70818
1.52594
1.65011
1.64235
1.80402
1.79286
1.77946
1.79813
1.75605
1.76837
1.77021
1.77085
1.76864
1.80256
1.67554
1.77492
1.74711
1.71443
1.46557
1.77722
1.71475
1.75498
1.64421
1.78148
1.50159
1.53112
1.52072
1.76508
1.62919
1.65719
1.75879
1.60812
1.80369
1.60402
1.77592
1.81396
1.80015
1.8003
1.47365
1.70996
1.80993
1.6466
1.60364
1.6487
1.5509
1.63362
1.69042
1.61191
1.69002
1.70621
1.60051
1.63955
1.72268
1.70871
1.78677
1.7419
1.63666
1.66276
1.64947
1.74084
1.73087
1.78922
1.59013
1.52054
1.58525
1.70013
1.60517
1.58934
1.80319
1.77944
1.64576
1.74175
1.50317
1.51772
1.69807
1.52717
1.73363
1.74897
1.71696
1.68646
1.77459
1.77748
1.7105
1.72295
1.64529
1.53014
1.53638
1.778
1.62058
1.76033
1.64716
1.67263
1.69482
1.7427
1.75106
1.76103
1.80655
1.48128
1.62343
1.80003
1.72493
1.68563
1.80696
1.76272
1.75899
1.70153
1.64512
1.67618
1.54113
1.51891
1.68369
1.52905
1.63367
1.6492
1.5988
1.54632
1.69014
1.61226
1.76884
1.52968
1.52399
1.61714
1.6177
1.68436
1.59936
1.67391
1.59633
1.65466
1.60866
1.75626
1.71673
1.76166
1.72515
1.66299
1.67522
1.68317
1.73664
1.56023
1.66724
1.71177
1.75467
1.66698
1.74051
1.5533
1.7732
1.4679
1.50082
1.48072
1.79246
1.75476
1.72768
1.75762
1.72568
1.60102
1.78384
1.70451
1.68536
1.60272
1.66818
1.77593
1.54622
1.74637
1.74206
1.47025
1.56978
1.62573
1.60037
1.49339
1.65489
1.62988
1.74391
1.57968
1.74462
1.70535
1.54299
1.63502
1.74418
1.63211
1.69089
1.63492
1.69685
1.498
1.60108
1.63621
1.64402
1.51441
1.59416
1.51284
1.50115
1.75453
1.71739
1.55415
1.55504
1.69349
1.67214
1.61915
1.74049
1.70965
1.5089
1.57048
1.63532
1.51809
1.73815
1.72666
1.53836
1.52123
1.70506
1.52526
1.71923
1.7849
1.48034
1.77015
1.758
1.72129
1.4779
1.58166
1.49973
1.66642
1.77572
1.77459
1.60076
1.47361
1.64097
1.59263
1.76009
1.65917
1.60334
1.53344
1.57285
1.52474
1.59497
1.58312
1.59677
1.62248
1.60362
1.63637
1.48873
1.74574
1.58066
1.51983
1.6645
1.62409
1.50909
1.73345
1.64981
1.76665
1.52192
1.75783
1.75524
1.70422
1.62512
1.52017
1.70405
1.75821
1.54558
1.64231
1.5222
1.70784
1.5713
1.49742
1.50259
1.72392
1.55067
1.53523
1.70124
1.697
1.66888
1.70371
1.48943
1.52622
1.58696
1.66663
1.62964
1.77474
1.56865
1.77993
1.45953
1.50151
1.6449
1.56006
1.52516
1.64701
1.69363
1.53566
1.48838
1.58332
1.64812
1.75021
1.61684
1.50281
1.75705
1.58591
1.7592
1.49019
1.53827
1.58346
1.58458
1.5955
1.57241
1.57567
1.7813
1.78459
1.75593
1.74496
1.47799
1.53559
1.62291
1.70266
1.49888
1.53122
1.5576
1.49667
1.72636
1.74216
1.52764
1.7285
1.777
1.52847
1.68817
1.63044
1.51725
1.75671
1.51904
1.72165
1.72828
1.73203
1.77942
1.63241
1.60183
1.74959
1.75988
1.66126
1.51226
1.76352
1.75399
1.66524
1.74282
1.50923
1.75956
1.74052
1.67845
1.48164
1.58406
1.77579
1.5597
1.53153
1.75221
1.50474
1.48646
1.67228
1.7421
1.64463
1.68623
1.56007
1.7317
1.63924
1.63886
1.79226
1.50882
1.56305
1.58702
1.54161
1.48308
1.70696
1.639
1.70512
1.52501
1.51911
1.54311
1.7408
1.51088
1.70893
1.69992
1.74512
1.50043
1.69109
1.54394
1.50109
1.66262
1.52849
1.56068
1.54014
1.50045
1.51886
1.56881
1.68231
1.78233
1.75861
1.66333
1.55857
1.74461
1.51343
1.51888
1.51174
1.72904
1.71952
1.70448
1.71534
1.7055
1.67572
1.51957
1.77052
1.49163
1.52853
1.73462
1.48169
1.53575
1.76509
1.49565
1.53061
1.74527
1.60276
1.58341
1.53034
1.64557
1.66682
1.54569
1.75161
1.70588
1.70165
1.49626
1.7095
1.55367
1.56949
1.72102
1.51248
1.51188
1.73381
1.57234
1.5526
1.56495
1.47667
1.59816
1.6823
1.51822
1.71159
1.76796
1.56833
1.59683
1.61134
1.62811
1.74215
1.50977
1.75041
1.77427
1.5952
1.52175
1.47386
1.62857
1.48224
1.52694
1.7506
1.65713
1.54137
1.48566
1.57538
1.51176
1.5295
1.74641
1.70907
1.51145
1.58206
1.55017
1.52999
1.51364
1.54401
1.72656
1.49006
1.51289
1.47728
1.76828
1.49977
1.7554
1.58675
1.63
1.51409
1.70204
1.4788
1.51479
1.52027
1.48024
1.70834
1.73131
1.47797
1.72579
1.51163
1.66009
1.53813
1.76842
1.73547
1.59701
1.53375
1.72234
1.54984
1.5656
1.52581
1.62785
1.63068
1.55151
1.60751
1.50598
1.62345
1.68996
1.52849
1.61678
1.45543
1.773
1.57524
1.63684
1.48361
1.5668
1.49717
1.46769
1.59147
1.76183
1.58956
1.79521
1.76732
1.52984
1.6741
1.5211
1.4619
1.73285
1.73782
1.68195
1.54279
1.52815
1.46103
1.48968
1.74666
1.57654
1.49198
1.69644
1.60144
1.6095
1.51884
1.50067
1.69004
1.71167
1.52449
1.50954
1.72139
1.50856
1.74945
1.66056
1.74951
1.50253
1.50102
1.68565
1.56605
1.51778
1.57217
1.52092
1.56101
1.61298
1.52498
1.50653
1.73896
1.64679
1.4896
1.57756
1.66109
1.55445
1.67281
1.6842
1.59056
1.6224
1.51715
1.6593
1.46604
1.45687
1.4826
1.59488
1.6447
1.57557
1.52892
1.6871
1.53301
1.70934
1.59407
1.742
1.56337
1.76259
1.52418
1.73315
1.50467
1.54543
1.75854
1.57084
1.47166
1.51034
1.55339
1.7101
1.6928
1.57678
1.69158
1.681
1.5174
1.44645
1.47091
1.61328
1.49687
1.54774
1.52899
1.71363
1.49551
1.53293
1.67301
1.73399
1.65005
1.5027
1.60164
1.60421
1.57911
1.63062
1.56718
1.51753
1.50591
1.54995
1.55015
1.68766
1.52233
1.74168
1.52475
1.50857
1.75249
1.65741
1.49005
1.51889
1.75537
1.55561
1.5998
1.65712
1.50966
1.51362
1.77427
1.777
1.50942
1.56693
1.76541
1.51387
1.69283
1.49934
1.48127
1.64728
1.63634
1.81177
1.61262
1.5173
1.64149
1.60253
1.51501
1.76074
1.53339
1.47708
1.49052
1.54008
1.47814
1.51847
1.50692
1.55421
1.47955
1.61603
1.64564
1.63362
1.69712
1.512
1.48124
1.71011
1.56692
1.51257
1.49526
1.53878
1.6097
1.5651
1.56264
1.50653
1.69426
1.65696
1.6628
1.644
1.48656
1.50758
1.56382
1.56288
1.77291
1.54804
1.51267
1.57976
1.48215
1.4914
1.52244
1.45844
1.53163
1.49533
1.67753
1.5705
1.5029
1.77829
1.61143
1.52667
1.51461
1.51546
1.51104
1.48978
1.63079
1.521
1.48244
1.48325
1.51832
1.51193
1.53671
1.47894
1.56072
1.52013
1.70998
1.72833
1.64636
1.52376
1.47675
1.49979
1.51051
1.55835
1.47887
1.4763
1.72471
1.73365
1.73641
1.75082
1.54809
1.51782
1.51179
1.61408
1.52918
1.4815
1.75978
1.76691
1.49967
1.5585
1.5016
1.75347
1.52167
1.49463
1.52325
1.554
1.56612
1.55684
1.52618
1.51667
1.54758
1.67417
1.64093
1.52769
1.54962
1.45648