/*--------------------------------*- C++ -*----------------------------------*\
| =========                 |                                                 |
| \\      /  F ield         | OpenFOAM: The Open Source CFD Toolbox           |
|  \\    /   O peration     | Version:  2212                                  |
|   \\  /    A nd           | Website:  www.openfoam.com                      |
|    \\/     M anipulation  |                                                 |
\*---------------------------------------------------------------------------*/
FoamFile
{
    version     2.0;
    format      ascii;
    arch        "LSB;label=32;scalar=64";
    class       volScalarField;
    location    "0.022";
    object      k;
}
// * * * * * * * * * * * * * * * * * * * * * * * * * * * * * * * * * * * * * //

dimensions      [0 2 -2 0 0 0 0];

internalField   nonuniform List<scalar> 
31639
(
0.0368456
0.0361369
0.0367922
0.0379558
0.0363392
0.0356976
0.0359421
0.0372022
0.0368212
0.0375076
0.0375564
0.0373303
0.0364736
0.0376613
0.0356751
0.0354162
0.0369794
0.0359042
0.0350032
0.0361886
0.0334448
0.0375556
0.037819
0.0352695
0.0350912
0.0366439
0.0362241
0.031737
0.0358966
0.0378398
0.0374954
0.0356458
0.0376793
0.0351043
0.0341217
0.0377942
0.0327199
0.0381478
0.0376079
0.0323488
0.0341641
0.0337629
0.0373261
0.0375593
0.037761
0.0375051
0.0356924
0.0358926
0.036875
0.037849
0.0373573
0.0324648
0.0381358
0.0333209
0.0355096
0.0368091
0.0335545
0.0363767
0.0361468
0.0334686
0.0364164
0.0372953
0.035077
0.0359387
0.0367551
0.0377896
0.0363224
0.0363993
0.034573
0.0377687
0.037869
0.0346445
0.0371182
0.0362409
0.0380553
0.0340395
0.0375352
0.036016
0.0358776
0.0374846
0.0349268
0.0323015
0.0376846
0.0367557
0.0366869
0.0374657
0.0378752
0.0376636
0.0339858
0.0381308
0.0365291
0.0362222
0.0336608
0.0359766
0.0344371
0.0356658
0.0361489
0.0362574
0.0365137
0.0336339
0.0380459
0.0374274
0.0358052
0.0332133
0.0335253
0.0375983
0.0331248
0.0329105
0.0347383
0.0333426
0.0366888
0.0337358
0.0359843
0.0355301
0.0363107
0.033204
0.0360795
0.0360075
0.0377539
0.0360839
0.0371256
0.0373369
0.037024
0.036704
0.0364544
0.0377882
0.0362366
0.0348337
0.0345909
0.0372243
0.037375
0.0369929
0.0370883
0.0356509
0.037093
0.0364088
0.0335205
0.0331551
0.0372277
0.0363028
0.0362102
0.0375213
0.0375452
0.0328977
0.0327816
0.0378016
0.0374098
0.0338175
0.0335858
0.0375804
0.0348387
0.0364971
0.0350509
0.0370669
0.0339208
0.0378138
0.0362078
0.0346568
0.0338846
0.0352138
0.03751
0.0341426
0.0348007
0.0334215
0.0339719
0.035735
0.0339999
0.0378043
0.0372538
0.0329829
0.0344583
0.0354938
0.0341188
0.036488
0.0379694
0.0374991
0.0365709
0.0378961
0.0366029
0.0362226
0.0359209
0.0356244
0.0352355
0.0326394
0.0368105
0.0379609
0.0352354
0.0377783
0.0339553
0.0332376
0.0382222
0.0373344
0.0366767
0.0360168
0.0361805
0.0355628
0.0357219
0.0371617
0.0331975
0.0356804
0.0375948
0.0380705
0.0364192
0.03655
0.0365932
0.036257
0.0357234
0.0356469
0.0373677
0.0327083
0.0360525
0.0358875
0.0367677
0.0373905
0.0369916
0.0375516
0.0342207
0.0353375
0.0375264
0.0375636
0.0370127
0.0360109
0.0332698
0.0364961
0.0333626
0.0365299
0.037437
0.0351525
0.0339044
0.0371007
0.0367662
0.0380595
0.034025
0.0335486
0.0367057
0.036911
0.0334528
0.0373551
0.0350236
0.0330255
0.0358281
0.0365166
0.0358549
0.0352128
0.0352595
0.0369872
0.0356101
0.0353628
0.0334929
0.0361434
0.0352296
0.0342634
0.0353389
0.0378601
0.0376916
0.0356926
0.0341558
0.0370772
0.0368426
0.0361439
0.0379206
0.0374595
0.0371374
0.0376173
0.0357987
0.0362518
0.0329481
0.0350578
0.0370457
0.0353984
0.0367912
0.0353553
0.0365198
0.0378693
0.0379208
0.0364308
0.0334603
0.035904
0.0346645
0.0374062
0.036009
0.037636
0.0379574
0.0355683
0.0337802
0.0349324
0.0340112
0.0333292
0.0372025
0.034285
0.0379769
0.0356784
0.0352162
0.034287
0.0381077
0.0355374
0.0355366
0.0374431
0.036615
0.0350938
0.0361346
0.033946
0.0361664
0.0357332
0.0340777
0.0357662
0.0356544
0.0319892
0.0330591
0.037294
0.0378591
0.0370799
0.0334372
0.0343731
0.0371502
0.0343389
0.034382
0.0377696
0.0377606
0.0355513
0.0374865
0.0378641
0.0339558
0.0379725
0.0330955
0.0334628
0.0374285
0.0371289
0.0373167
0.037768
0.0370153
0.0341782
0.0356424
0.0357744
0.0376065
0.0380814
0.038114
0.0358649
0.0350847
0.0368047
0.037221
0.0366394
0.0351902
0.035975
0.0356703
0.0358259
0.0372486
0.035245
0.0339735
0.0372022
0.0383204
0.0356544
0.0379603
0.0373013
0.0359839
0.0340185
0.0358459
0.0359929
0.0334187
0.0378059
0.0341048
0.0366547
0.0376131
0.0329204
0.036217
0.0359765
0.0335659
0.0364505
0.0342756
0.0358748
0.0379903
0.0370885
0.0330374
0.0367322
0.0340867
0.0367503
0.0374013
0.0376684
0.0377276
0.0342596
0.0367991
0.0332734
0.035663
0.0330985
0.0376104
0.0371877
0.0376008
0.0374275
0.0347389
0.0378697
0.0362327
0.0368455
0.0359193
0.0346371
0.0360564
0.0366923
0.0364682
0.0367995
0.0365511
0.0371121
0.0358704
0.0339826
0.0363461
0.0373408
0.0370021
0.0329132
0.0376814
0.0373229
0.0360647
0.0364524
0.0368243
0.0364841
0.037454
0.033523
0.0367301
0.0375709
0.0330656
0.0365198
0.0367764
0.034333
0.0332833
0.0336098
0.0358069
0.0337242
0.0361838
0.036014
0.0355645
0.0380384
0.0338677
0.0371927
0.037727
0.0361124
0.0368788
0.0357514
0.0376284
0.0362629
0.0366146
0.0377737
0.0361293
0.0335683
0.0361615
0.0379234
0.0374996
0.0370379
0.0379817
0.0354032
0.0367533
0.037156
0.0378266
0.0380702
0.0339345
0.0360106
0.0324477
0.0361721
0.0357822
0.0339828
0.0334915
0.0356652
0.0367433
0.0372729
0.0336818
0.036926
0.0354147
0.0359312
0.0371603
0.0297227
0.0357466
0.0333431
0.0355015
0.0373771
0.0382654
0.0369547
0.0361177
0.0327918
0.036977
0.0360929
0.0371685
0.0334581
0.033916
0.0359438
0.0337969
0.0341366
0.036655
0.0334805
0.0355604
0.0336341
0.0370182
0.0336346
0.0378099
0.0372945
0.0373965
0.0374634
0.0351519
0.0375414
0.0377217
0.0366319
0.0373477
0.0363783
0.0372879
0.0382808
0.0355181
0.0375205
0.0378357
0.0359537
0.0345936
0.0378286
0.0362532
0.0325804
0.0332788
0.0363601
0.0378158
0.0377017
0.0356673
0.0380955
0.0384042
0.0371309
0.036563
0.0360454
0.036267
0.0342322
0.0358697
0.0368658
0.0379264
0.034994
0.0346686
0.0343414
0.0350759
0.0358708
0.0324992
0.0369898
0.0352736
0.0366932
0.0359421
0.0370375
0.0361983
0.0339932
0.036675
0.0374394
0.0344301
0.0371148
0.038263
0.0362082
0.0357978
0.0321402
0.0346171
0.0360202
0.0363158
0.0340868
0.0338117
0.0363816
0.0347717
0.0369688
0.0350555
0.0360763
0.0375296
0.0360989
0.0332976
0.0354428
0.0363956
0.0376166
0.0336111
0.0323386
0.0374525
0.0334433
0.0365813
0.0380249
0.0335794
0.0361922
0.0379747
0.0364557
0.033706
0.03763
0.0364535
0.0336166
0.0374341
0.0365914
0.0356143
0.0373198
0.0327589
0.034959
0.0361343
0.0356581
0.0355938
0.0368456
0.0380611
0.037465
0.0370452
0.0378483
0.0373136
0.0367766
0.0350988
0.0369268
0.0378336
0.0387865
0.0346584
0.0363563
0.0365094
0.0387142
0.0341576
0.0328479
0.0377664
0.0343602
0.037992
0.0354493
0.0336579
0.0360567
0.037446
0.0364827
0.036849
0.0331033
0.0370546
0.0362732
0.0331983
0.0377001
0.0372973
0.0312526
0.0340666
0.0344937
0.0359639
0.0363287
0.0363078
0.0360278
0.0362426
0.0372716
0.0363026
0.0361234
0.0342135
0.0377372
0.0335447
0.0362562
0.0360751
0.0357773
0.038225
0.0361858
0.0346534
0.0331137
0.0342621
0.0360455
0.0375378
0.0339393
0.0378157
0.0363322
0.0372073
0.0338839
0.0354862
0.0372407
0.0378961
0.0374497
0.036967
0.0364642
0.0363436
0.038083
0.0379712
0.0377245
0.0350398
0.0372341
0.0338111
0.0377475
0.0376705
0.0358712
0.0341778
0.0355412
0.0324417
0.0374419
0.0365488
0.0381495
0.0361794
0.0353246
0.0336944
0.0374374
0.0331803
0.0326474
0.0346195
0.0350761
0.0338884
0.0361775
0.0337006
0.0365075
0.0367488
0.0324065
0.0378932
0.0340287
0.034786
0.0354601
0.035226
0.0370817
0.0375669
0.0378344
0.0377569
0.0355593
0.0360714
0.0356752
0.0357458
0.0329005
0.0275713
0.0377238
0.0359228
0.0370775
0.0374684
0.0336364
0.037593
0.0379782
0.0371214
0.0371321
0.0371109
0.0366037
0.0377207
0.0379325
0.036365
0.037533
0.0373801
0.0343122
0.0374848
0.035516
0.0374059
0.0352514
0.035984
0.0349186
0.0381765
0.0357364
0.0364001
0.0363507
0.0342703
0.0377256
0.0364489
0.0354674
0.0338729
0.0369585
0.0328224
0.0371514
0.0372952
0.0354259
0.038039
0.0379565
0.0379669
0.0336586
0.036096
0.0364535
0.036578
0.034142
0.0369332
0.0370779
0.0352082
0.0361985
0.0349313
0.0368769
0.0358126
0.0356971
0.0328988
0.0371239
0.0367168
0.0373847
0.0351677
0.0360753
0.0364839
0.0359375
0.0353061
0.0364654
0.0371905
0.0358735
0.0328308
0.0330462
0.0356476
0.0326414
0.0336455
0.0367549
0.0366622
0.0371554
0.0327844
0.0356894
0.0375937
0.0339589
0.0330323
0.0361557
0.0342386
0.037373
0.0346765
0.0378618
0.0351848
0.0353162
0.0377538
0.0329765
0.0355794
0.0356499
0.037328
0.0377394
0.0375787
0.0344062
0.0370059
0.0378034
0.0355786
0.0378348
0.0372024
0.0370101
0.0378781
0.0362194
0.0384249
0.0379968
0.0382656
0.0368166
0.0356936
0.0363547
0.0360394
0.033694
0.03537
0.0369606
0.037336
0.0380953
0.0359036
0.0381025
0.0373623
0.0351077
0.03738
0.037533
0.0371883
0.0372359
0.0338071
0.0353392
0.0377708
0.0328145
0.0361201
0.0358866
0.0359282
0.0357129
0.037643
0.036778
0.0372944
0.0360209
0.0369048
0.0362539
0.037579
0.0364354
0.0358161
0.0339878
0.0374748
0.0343752
0.035555
0.0360428
0.0354349
0.0363745
0.0380455
0.0340313
0.0380149
0.0340619
0.0364473
0.03605
0.035837
0.0359571
0.0377057
0.0337658
0.0372305
0.0375438
0.0379149
0.0365829
0.0367963
0.032713
0.0378644
0.0374727
0.0370605
0.0371168
0.0374137
0.0360961
0.0367697
0.0364218
0.0339947
0.0360617
0.0378246
0.0330558
0.0347519
0.0387158
0.0374728
0.0350613
0.0354127
0.0368169
0.035097
0.0357089
0.0342182
0.0372533
0.0379771
0.0327927
0.0364114
0.0374322
0.0372735
0.0380045
0.0355259
0.0374011
0.034388
0.0342321
0.0380174
0.0376032
0.0357681
0.0338659
0.036799
0.0375953
0.0349635
0.0376848
0.0372058
0.0373737
0.0368112
0.0372693
0.036545
0.0363772
0.0356378
0.0351504
0.0331834
0.0363914
0.0363914
0.0339357
0.0374967
0.0331517
0.0354931
0.0357548
0.0340077
0.0359176
0.0353442
0.0368639
0.0364822
0.0373731
0.0339054
0.0340986
0.0356979
0.0336287
0.0352763
0.0374586
0.0357794
0.0376527
0.0364757
0.036155
0.0378239
0.0356402
0.0364671
0.0359221
0.0359768
0.0367748
0.0347144
0.0364468
0.0373076
0.0375775
0.0381452
0.033935
0.0333231
0.0360517
0.0375383
0.034165
0.0355957
0.0370058
0.0361605
0.0385022
0.0357705
0.0355716
0.0372644
0.0336223
0.0375254
0.0379902
0.0341142
0.035092
0.0359128
0.0355284
0.0379627
0.037777
0.0369268
0.0344904
0.037462
0.0335675
0.035916
0.0377124
0.0355279
0.0383622
0.0332803
0.0361124
0.036837
0.0362558
0.0335931
0.0331939
0.0373363
0.0377789
0.0355587
0.0375955
0.0369172
0.0358524
0.0339305
0.0347598
0.0368527
0.0360522
0.0361644
0.037985
0.0374781
0.03847
0.0376453
0.03658
0.0367412
0.0370626
0.0342034
0.0374485
0.0369478
0.0364208
0.0368058
0.0379852
0.0360573
0.0376248
0.035951
0.0328154
0.0380238
0.0354575
0.0378371
0.0355567
0.0372904
0.0343223
0.0368978
0.0385939
0.0362561
0.0363092
0.0337917
0.0371965
0.0379374
0.0366578
0.0336368
0.0388854
0.0360946
0.0365605
0.0377787
0.0375167
0.0372401
0.0359438
0.036305
0.0383876
0.0342977
0.0345942
0.0342872
0.0348998
0.0366893
0.0333779
0.0379124
0.0375088
0.0382375
0.0358248
0.0358447
0.0363576
0.0377357
0.0364046
0.036701
0.0377354
0.0380538
0.0364995
0.0373297
0.0361492
0.0358099
0.036916
0.0355794
0.0381571
0.0380905
0.0378081
0.0379781
0.0376807
0.0351761
0.0384651
0.0365309
0.0366967
0.0357101
0.036664
0.038102
0.0362445
0.0372185
0.03543
0.0361804
0.0369596
0.0346484
0.033983
0.0359277
0.0362008
0.0382487
0.0354757
0.0332114
0.0366218
0.037425
0.0350267
0.0355093
0.0363012
0.0379426
0.0378325
0.0355214
0.0352988
0.0362148
0.0374622
0.0356316
0.0365025
0.0364033
0.0336251
0.0358917
0.03572
0.0371146
0.0377123
0.0364212
0.0378966
0.0371997
0.0362766
0.0367955
0.0337614
0.0343189
0.0336422
0.0379528
0.0365832
0.0381256
0.0391148
0.0372428
0.0334786
0.0372416
0.0358088
0.0370937
0.0368926
0.0370864
0.0335101
0.0380669
0.0340241
0.0362063
0.0364511
0.0362261
0.0384207
0.0362045
0.0372387
0.0339238
0.0361002
0.0365977
0.0376405
0.0348732
0.0349414
0.0368763
0.037499
0.0367877
0.0368364
0.0380182
0.0339093
0.0362765
0.0357931
0.0350596
0.0371995
0.0381101
0.0379795
0.0374777
0.0380389
0.0343295
0.03421
0.0341817
0.0383388
0.0339189
0.0369751
0.0364851
0.0340265
0.0356011
0.0373864
0.0377439
0.0351081
0.0356412
0.0356547
0.0363921
0.0379691
0.0366552
0.0339444
0.0362921
0.0382115
0.0378018
0.0383414
0.0378011
0.038902
0.0379288
0.0374728
0.0347277
0.0337931
0.0365366
0.0349304
0.0380151
0.0342035
0.0366902
0.0358817
0.037688
0.0345621
0.0371508
0.0373711
0.0369353
0.0359071
0.0341411
0.0375806
0.0357187
0.0382405
0.0363789
0.0386562
0.0379495
0.0364468
0.0337749
0.0340775
0.0358992
0.0368453
0.0354762
0.0385606
0.0344444
0.0375907
0.0369641
0.0358823
0.03683
0.0375728
0.0378403
0.0377917
0.0381854
0.0367156
0.0366885
0.0335507
0.0352296
0.0376849
0.0345919
0.0368676
0.0359073
0.0340972
0.0361077
0.0361811
0.0359672
0.0370478
0.037491
0.0343715
0.035896
0.036467
0.0339822
0.0352996
0.0357142
0.0359711
0.0370612
0.0343289
0.0341564
0.0360682
0.0356035
0.0376477
0.0381974
0.0375268
0.0355359
0.0356757
0.0362862
0.0353016
0.0380137
0.0342038
0.0361823
0.0359599
0.0379306
0.0373939
0.0363766
0.0366927
0.0376625
0.0343059
0.036515
0.0379269
0.0356352
0.0317266
0.036
0.0341434
0.0366176
0.0333989
0.0381862
0.038136
0.0379085
0.0366882
0.0344269
0.0336474
0.037472
0.0382412
0.0380763
0.036421
0.0367326
0.0369705
0.038285
0.0375843
0.0334677
0.0365417
0.0364716
0.036896
0.0358039
0.0373125
0.0330735
0.0379748
0.0374876
0.0364095
0.0365487
0.0369982
0.036254
0.0379024
0.0370295
0.0344529
0.0360479
0.0372676
0.0358632
0.0364586
0.0369301
0.0335062
0.0341362
0.0376571
0.0381594
0.0375093
0.0379872
0.0371305
0.0373046
0.0365758
0.0364548
0.0367921
0.0375885
0.0356206
0.0362638
0.035197
0.0363326
0.0376484
0.0331454
0.0364859
0.0332219
0.0374882
0.0333109
0.0337917
0.0358692
0.0326586
0.0365325
0.0369403
0.0374589
0.0374671
0.0351529
0.035107
0.0385406
0.0353741
0.0345331
0.0363584
0.035069
0.0377282
0.0370597
0.0365927
0.0343283
0.0376829
0.0379432
0.0377209
0.0338687
0.0348868
0.036281
0.037786
0.0384269
0.0338585
0.0337276
0.0375756
0.0367681
0.0380456
0.0360656
0.033031
0.0369654
0.0375803
0.0338059
0.0332561
0.0376153
0.0342637
0.0341458
0.037702
0.0381267
0.0369589
0.0386225
0.0358281
0.0359642
0.0377755
0.0352745
0.0375557
0.0354427
0.0369768
0.0375099
0.0357072
0.0337881
0.0371277
0.0373453
0.0355086
0.0360019
0.0361499
0.0349035
0.0334414
0.0364744
0.0372677
0.0379086
0.0354314
0.0371534
0.0336291
0.0371154
0.0381266
0.0336246
0.0378523
0.0364894
0.0321141
0.0336901
0.0364594
0.0361043
0.0373019
0.0356162
0.0343192
0.0374285
0.0381926
0.0378796
0.0367414
0.037678
0.0336373
0.0377488
0.0362357
0.0337719
0.0339321
0.0321434
0.0337249
0.0370594
0.035871
0.0367833
0.0363619
0.0343341
0.0347038
0.0329334
0.0329848
0.0386747
0.0383331
0.034453
0.0379458
0.0375877
0.0344399
0.0359422
0.0365441
0.0349474
0.0353107
0.0375771
0.0348838
0.0332596
0.0377342
0.0384212
0.0353101
0.0378061
0.0363281
0.0347962
0.0342166
0.0362092
0.0337824
0.0339774
0.0365371
0.036816
0.0358555
0.0379571
0.0376549
0.0360644
0.0380468
0.0277954
0.0362132
0.0335331
0.0362838
0.0380627
0.0358279
0.035252
0.0359687
0.0339039
0.0368176
0.0360435
0.0351094
0.0340328
0.0326831
0.0326431
0.035544
0.0336972
0.0361323
0.0336895
0.0358313
0.0374999
0.0369184
0.0360638
0.0366303
0.0370413
0.0361425
0.0372252
0.0334411
0.0361437
0.0379234
0.0378114
0.0357346
0.0384426
0.0345434
0.0376512
0.0358776
0.0335212
0.0374539
0.0379479
0.036762
0.0371461
0.0379708
0.0368479
0.032768
0.0327948
0.0357733
0.0381014
0.0366799
0.0372135
0.0355304
0.0357653
0.0345894
0.0334133
0.0333281
0.0335856
0.036894
0.0365917
0.0378931
0.0353797
0.0357011
0.038277
0.0336282
0.0363485
0.0379674
0.0379444
0.035014
0.035523
0.0373775
0.0382089
0.0378589
0.0315921
0.0366094
0.037432
0.0368615
0.0364373
0.038712
0.0375737
0.0378861
0.03653
0.035142
0.036229
0.0380639
0.037091
0.0362451
0.033725
0.0375305
0.037551
0.0380486
0.0372633
0.03327
0.0324922
0.0358591
0.0371457
0.036491
0.0364571
0.0371617
0.0371763
0.0372599
0.035408
0.0370769
0.0363916
0.0375495
0.0341435
0.0340702
0.035404
0.0380968
0.0340265
0.0375416
0.033857
0.0358422
0.0362694
0.0381475
0.0359234
0.0373359
0.0379458
0.0376133
0.036597
0.0374502
0.0364513
0.0355967
0.0329171
0.0379752
0.0324895
0.033728
0.0316928
0.0328749
0.0333252
0.0356158
0.0364812
0.0339459
0.0354703
0.0322425
0.0344727
0.0356997
0.0377286
0.0331581
0.0339974
0.0372267
0.0331881
0.0356644
0.0374711
0.0369266
0.0361538
0.0341651
0.0335226
0.0353766
0.0379919
0.0351243
0.0339876
0.0367447
0.0355612
0.0367313
0.0359687
0.0343884
0.0380232
0.0331064
0.0339146
0.03627
0.0380271
0.0355558
0.0360631
0.0363523
0.0363545
0.0328345
0.034504
0.0356834
0.0379435
0.0370085
0.0337108
0.0327713
0.0361296
0.0378771
0.035863
0.0361219
0.0354104
0.0353701
0.0359666
0.033572
0.0377727
0.0352734
0.0336506
0.0326668
0.037198
0.0361139
0.0379954
0.0363618
0.037422
0.0336189
0.0360789
0.0329001
0.0327547
0.0378278
0.0343346
0.0361104
0.0362813
0.0363591
0.0337866
0.0378414
0.0373499
0.0378693
0.0368116
0.0318956
0.0363742
0.03273
0.0381931
0.0340967
0.0379462
0.0323992
0.0367211
0.0375185
0.0356301
0.0357879
0.032614
0.0351267
0.0360844
0.0374733
0.0369614
0.037713
0.0380309
0.0336018
0.0379174
0.0331522
0.0366282
0.0367826
0.0375162
0.0375607
0.0360378
0.038092
0.0358402
0.0349699
0.0349833
0.0366248
0.0379868
0.034654
0.0346253
0.0377652
0.0371186
0.0360844
0.038609
0.0367999
0.0368117
0.0375206
0.0373144
0.0379682
0.0357
0.0353092
0.0376541
0.0374018
0.0329187
0.0357613
0.0350575
0.0380458
0.0365829
0.0373221
0.0340073
0.0338402
0.0363694
0.037218
0.037595
0.0379439
0.0376667
0.0363316
0.03682
0.0340683
0.0367639
0.0363505
0.0376356
0.0379488
0.0377998
0.0362685
0.0377593
0.0346473
0.0376785
0.0349049
0.0357483
0.0355389
0.036377
0.0354226
0.0372779
0.0336831
0.0375935
0.0376838
0.0361037
0.0338374
0.038441
0.0368591
0.0376389
0.0361204
0.0363648
0.0372883
0.0334894
0.0377562
0.0362258
0.0366163
0.0347282
0.034873
0.0350743
0.0335094
0.0352656
0.0380329
0.0364901
0.0328653
0.0372224
0.03343
0.0366
0.0365921
0.0328729
0.0332231
0.0352036
0.036337
0.0373276
0.0354279
0.0368913
0.0360032
0.0329277
0.0353598
0.0376986
0.0377428
0.0377758
0.0369556
0.0368775
0.0339218
0.0335927
0.0379633
0.0358965
0.0367361
0.037566
0.0384559
0.0364188
0.0365564
0.0328788
0.0371594
0.0376905
0.0354128
0.0378021
0.0374925
0.0368358
0.0351352
0.0371673
0.0357086
0.0329304
0.0363266
0.0342318
0.0336769
0.0366366
0.0363938
0.0378351
0.0377684
0.036637
0.0378284
0.0326912
0.0354499
0.038269
0.038211
0.0334746
0.0366534
0.0341224
0.0351294
0.037612
0.0355647
0.0367351
0.0383084
0.0368824
0.0328147
0.0374659
0.0335989
0.0374291
0.0368883
0.0365828
0.0374515
0.0365843
0.0374884
0.0337486
0.0377293
0.037757
0.034262
0.0368473
0.0360384
0.0359583
0.0375229
0.0361404
0.03732
0.0380694
0.0377358
0.0363204
0.0379469
0.0362253
0.0368121
0.0348321
0.0350414
0.0336347
0.0328412
0.0365591
0.0369251
0.0361032
0.0378822
0.0355091
0.0378115
0.0330407
0.0381535
0.0380352
0.0370218
0.037613
0.0346195
0.0330804
0.0360635
0.0336623
0.0372267
0.0364053
0.0329469
0.0356254
0.0380834
0.0375166
0.0331001
0.0348359
0.0327784
0.0383018
0.0336051
0.037498
0.0346573
0.0340309
0.037794
0.0379001
0.0377968
0.0370863
0.0335637
0.0366826
0.0381979
0.0342374
0.0377609
0.037155
0.038058
0.0330157
0.0369978
0.0355327
0.0369985
0.0357857
0.0357047
0.0354235
0.0356382
0.036001
0.0357485
0.0369863
0.0359178
0.0380034
0.0346029
0.0359662
0.0365202
0.0373383
0.0380959
0.0340171
0.037075
0.0337711
0.0355209
0.0377561
0.0380437
0.0363251
0.0365114
0.0372093
0.0352993
0.0358482
0.0360337
0.033654
0.033318
0.0367141
0.0375439
0.0355318
0.0356517
0.0376219
0.0338642
0.0366468
0.0340104
0.0367574
0.0379118
0.0363546
0.0333902
0.0375841
0.0335868
0.0369378
0.0378093
0.03302
0.0382553
0.0343142
0.0354329
0.0358644
0.0332747
0.0350539
0.0352496
0.0326572
0.0377811
0.0381802
0.0324842
0.0352803
0.0370229
0.0368976
0.0366955
0.0383393
0.0377254
0.0357645
0.0348287
0.0333445
0.0326625
0.0317432
0.0379716
0.0372587
0.0367149
0.0368604
0.0334517
0.0336014
0.0357701
0.0377245
0.0325572
0.0367119
0.0360024
0.0361369
0.036823
0.0350927
0.0373702
0.0351294
0.0361123
0.0383603
0.0320103
0.0361269
0.037591
0.0375406
0.0366996
0.0374538
0.0367127
0.033466
0.0382975
0.038807
0.0360153
0.0363836
0.0349028
0.035984
0.0370833
0.0374875
0.0363956
0.0360429
0.0355056
0.0331693
0.03566
0.038006
0.0370355
0.0382847
0.0366734
0.0364529
0.0382412
0.0340605
0.0374913
0.0335138
0.0381742
0.0369934
0.0354063
0.0385239
0.0352401
0.0360284
0.0382598
0.0356226
0.0381633
0.0371809
0.0371981
0.0337815
0.0362973
0.0359219
0.0349302
0.0373704
0.0353653
0.0356374
0.0382305
0.0338548
0.0376701
0.0363138
0.0377617
0.0355934
0.036695
0.0338824
0.0345445
0.0384158
0.0338306
0.0362054
0.0375273
0.0336862
0.0360851
0.0375526
0.0352031
0.034094
0.0349334
0.035849
0.0353294
0.0375282
0.0359738
0.0379256
0.0367801
0.0377296
0.0330847
0.034661
0.0380061
0.0358683
0.0335861
0.0342083
0.036171
0.0311628
0.0331883
0.0360477
0.0358599
0.0378584
0.0352473
0.0374486
0.0378316
0.0378987
0.037343
0.0376296
0.0352379
0.0350245
0.0371235
0.0358
0.0352084
0.0377738
0.0359656
0.0331942
0.0332318
0.0357481
0.0315396
0.0371357
0.037389
0.0350131
0.0371471
0.0374023
0.0372548
0.0384702
0.0359096
0.0339479
0.0353768
0.0357628
0.0374857
0.0350432
0.0367749
0.0380687
0.0357259
0.035448
0.0365185
0.0379926
0.0373023
0.0390347
0.0378986
0.0363728
0.0367445
0.0344594
0.0357676
0.0378697
0.0346995
0.0378413
0.0351704
0.037287
0.0329533
0.0372523
0.0361139
0.0374921
0.0357233
0.0367357
0.0360688
0.037256
0.0328329
0.0346114
0.0359894
0.0354472
0.0362032
0.0364743
0.0363113
0.0378752
0.0367797
0.0335183
0.0351772
0.0336783
0.0363606
0.0363427
0.034033
0.0387178
0.0362207
0.0359822
0.0372867
0.0347129
0.0341704
0.0377868
0.0339706
0.0330222
0.0330641
0.0333403
0.0336841
0.0350751
0.0378236
0.037395
0.0357731
0.0366208
0.0373125
0.0359986
0.0371071
0.0331216
0.0376236
0.0283028
0.0374034
0.0334846
0.0334497
0.0374211
0.0332836
0.0361187
0.0369547
0.0374845
0.0351418
0.0363818
0.0354362
0.0359398
0.0346576
0.0369181
0.0363376
0.0373455
0.0362168
0.0338165
0.0369582
0.0356999
0.0358916
0.0333844
0.034402
0.034479
0.0330385
0.0332586
0.0361116
0.0357963
0.0342199
0.0355746
0.0378222
0.037623
0.0379906
0.0282893
0.0334791
0.0378581
0.033758
0.0374612
0.0330899
0.0377019
0.0375268
0.0376701
0.0336671
0.0360993
0.0380568
0.0379828
0.0368145
0.0378434
0.0360784
0.0365967
0.0358541
0.0333833
0.0366396
0.0353346
0.0361225
0.0361764
0.034372
0.0358141
0.0375281
0.0349486
0.0346864
0.033608
0.0368815
0.0369351
0.0329678
0.0361544
0.0360963
0.0370787
0.034007
0.0365085
0.0361131
0.0384446
0.0304933
0.0362848
0.0359488
0.0332879
0.0374918
0.0343756
0.0343364
0.0367728
0.0378168
0.0328958
0.0375276
0.036714
0.0341461
0.0331982
0.0378275
0.0377641
0.0332482
0.0361746
0.0329559
0.0345239
0.0378815
0.0355863
0.0369622
0.0376096
0.0378214
0.0353758
0.035294
0.0356686
0.0361975
0.0364027
0.0351178
0.0372545
0.0335219
0.0348359
0.0362131
0.035953
0.0368764
0.0356187
0.0369554
0.0372224
0.0361454
0.0377425
0.0368797
0.0356736
0.0349454
0.0369733
0.0354744
0.0349061
0.0367673
0.0379079
0.0370252
0.0368884
0.0344775
0.0369634
0.0350234
0.0336655
0.0357976
0.0366125
0.0337506
0.0368369
0.0352986
0.0322571
0.0330292
0.0372108
0.0317531
0.035829
0.0374462
0.036667
0.0338266
0.0369191
0.0387007
0.0336771
0.0334934
0.0341146
0.0374763
0.0360915
0.0359561
0.0378499
0.0333516
0.0371408
0.0360626
0.037929
0.0382175
0.0286264
0.0361513
0.0372927
0.0376087
0.0362988
0.0355501
0.0312069
0.0368499
0.0377352
0.0349837
0.0332022
0.0358653
0.0372969
0.0365991
0.0333535
0.0363212
0.0371429
0.0375788
0.0357774
0.0362692
0.0329395
0.033642
0.0335676
0.036306
0.0356353
0.0365294
0.0379281
0.0376108
0.0321351
0.0374526
0.0376305
0.0367897
0.0354219
0.0373988
0.0352696
0.033928
0.0352398
0.0363977
0.0353295
0.0335356
0.0367336
0.0357628
0.0373591
0.0342714
0.032589
0.0353394
0.0377746
0.0372388
0.0352019
0.0357065
0.0375496
0.0376388
0.0353142
0.0353317
0.0372535
0.0378111
0.0370092
0.0379082
0.0370947
0.0365878
0.0330747
0.0357366
0.0337239
0.037182
0.0372842
0.0352162
0.0336004
0.0381387
0.0334657
0.0354943
0.0341737
0.0360312
0.0326507
0.0366422
0.0360466
0.0360473
0.0361307
0.0345409
0.037744
0.0339476
0.0369961
0.0359422
0.0359192
0.0330867
0.0372692
0.0366716
0.0335759
0.0347331
0.0360158
0.0358866
0.0367965
0.0301893
0.036716
0.0355185
0.0361456
0.0349138
0.0351372
0.0350462
0.0304628
0.0376626
0.0358308
0.0238292
0.0336721
0.0366384
0.0375835
0.0370461
0.0342198
0.0312099
0.0372443
0.0336154
0.037186
0.0378265
0.0365605
0.034289
0.0374068
0.0332052
0.032863
0.0328357
0.0368317
0.0358598
0.0354172
0.0378943
0.0369569
0.0365889
0.0344997
0.0323853
0.0381092
0.0362825
0.0382785
0.0372799
0.0338058
0.0357875
0.0365882
0.0342571
0.0361093
0.0351961
0.0360528
0.0392271
0.0364388
0.0357021
0.0334718
0.0365085
0.0356837
0.0370759
0.0356204
0.0332099
0.0340998
0.0365717
0.0370492
0.0344855
0.0372123
0.0347962
0.0367452
0.0349973
0.0350097
0.0308996
0.0378317
0.0371467
0.036525
0.03794
0.0357762
0.0343738
0.033404
0.0310849
0.036755
0.0337999
0.0360787
0.0356225
0.0375788
0.0359325
0.0373925
0.035332
0.0247222
0.0338481
0.03745
0.0261074
0.0360497
0.0381185
0.0369417
0.0378371
0.0339952
0.0340213
0.0344686
0.037996
0.0305741
0.0381213
0.0337805
0.0319068
0.0371925
0.0340843
0.037508
0.0250656
0.0326074
0.0367016
0.0374324
0.0378555
0.0366804
0.0375068
0.0366779
0.0365768
0.0372083
0.0369786
0.0357155
0.0355671
0.0308802
0.0373925
0.0355073
0.0352489
0.0379274
0.0378969
0.0371459
0.0338267
0.0376313
0.0368141
0.0354248
0.034279
0.0330742
0.0369835
0.0378426
0.0373094
0.037613
0.0368068
0.0362828
0.0332358
0.0372295
0.0359929
0.0361269
0.0360895
0.0331904
0.0317801
0.0353378
0.0385801
0.0367822
0.0365851
0.0340761
0.0351919
0.0350958
0.0337095
0.0376223
0.0358274
0.0285062
0.0300687
0.0326074
0.033947
0.0373081
0.036378
0.0367593
0.034988
0.0324344
0.0368773
0.0374735
0.0325065
0.0383375
0.0335392
0.0378493
0.0350903
0.0372928
0.0375463
0.0362113
0.0369385
0.0357767
0.034601
0.0342333
0.0350516
0.0369487
0.0362078
0.0341937
0.0352552
0.0365143
0.0332228
0.0359929
0.0342921
0.0375148
0.035288
0.0359516
0.0295683
0.0375123
0.0380101
0.036052
0.0369572
0.0352762
0.0357997
0.0375598
0.0365375
0.036534
0.0380253
0.0362539
0.0335842
0.0332684
0.0386459
0.0339297
0.0335299
0.0333192
0.0372313
0.0379525
0.0366638
0.037891
0.0386671
0.0378975
0.0367282
0.0355123
0.0341032
0.0368069
0.0322613
0.0363287
0.0365984
0.0354543
0.0351247
0.0343215
0.0362801
0.0380871
0.0327444
0.0354073
0.0365341
0.0330408
0.0375555
0.0316984
0.0325679
0.0336469
0.0379008
0.0339355
0.0334234
0.0342458
0.0333376
0.0362963
0.030831
0.0314618
0.035981
0.0342152
0.0324864
0.0359104
0.0338166
0.034657
0.0364949
0.0345952
0.0333333
0.0368928
0.0348414
0.0350958
0.0333786
0.0355526
0.0352898
0.0315649
0.0377628
0.036082
0.0368946
0.035368
0.0338141
0.0333136
0.0358884
0.0356294
0.037774
0.0361849
0.0373301
0.0347008
0.0360766
0.0374092
0.0375869
0.0308017
0.0316344
0.0334404
0.0373555
0.0334485
0.0360273
0.028977
0.0347497
0.0364016
0.0353434
0.0362059
0.0343147
0.0355813
0.035617
0.0377167
0.0338978
0.0357927
0.0383329
0.033238
0.035996
0.0340245
0.0369342
0.0341911
0.0333883
0.0362592
0.0335054
0.030482
0.0318478
0.0334661
0.0348287
0.0314244
0.0378265
0.0347698
0.0326727
0.0357873
0.0373355
0.0359598
0.0319177
0.0381809
0.0366857
0.0332791
0.0356435
0.0357598
0.0341432
0.0358126
0.03602
0.0361499
0.0332059
0.0326196
0.0357822
0.0339569
0.0314999
0.0323957
0.0331057
0.0365156
0.0331606
0.0371053
0.0356578
0.0363251
0.0343454
0.0375218
0.0338927
0.0361362
0.034491
0.0249686
0.0378146
0.0317587
0.0361668
0.0374198
0.037656
0.0306495
0.037407
0.0377502
0.0336594
0.0363
0.0356134
0.0344048
0.0305619
0.0361019
0.0345441
0.0371367
0.0381945
0.0351601
0.0378871
0.0342822
0.0344781
0.0328355
0.030967
0.0316673
0.0377269
0.0313922
0.037182
0.0345393
0.0322541
0.0349841
0.0376146
0.0315535
0.0266179
0.0341465
0.0366567
0.0375716
0.0363363
0.024511
0.0347101
0.0373432
0.0365068
0.0381352
0.0354564
0.0318164
0.0377274
0.0317953
0.0367414
0.0349199
0.0349579
0.0349275
0.0370013
0.0334936
0.0338336
0.031236
0.0342563
0.0370035
0.0363383
0.0360527
0.0329969
0.0336854
0.035044
0.0335649
0.0363888
0.032568
0.0332299
0.0363259
0.03749
0.0327636
0.0372852
0.0343927
0.0384489
0.0321986
0.0377059
0.0356947
0.0363592
0.0361174
0.0345516
0.033819
0.038499
0.0358777
0.0358942
0.0358865
0.0332722
0.0369216
0.0378384
0.0330024
0.0336731
0.0347392
0.0320586
0.0345098
0.0365403
0.0302072
0.0378563
0.0307826
0.035108
0.0364171
0.0317721
0.0349156
0.0358202
0.0334909
0.0356984
0.0339434
0.0358174
0.03215
0.0365838
0.0322993
0.0350843
0.0280155
0.0360488
0.0321592
0.0331245
0.0364334
0.0331981
0.034274
0.0381302
0.0362315
0.0363465
0.0374963
0.0312279
0.0362652
0.0338473
0.0359579
0.0358231
0.0352174
0.0373636
0.0362449
0.0328857
0.0327184
0.0371858
0.036005
0.0362693
0.0310327
0.0375288
0.0385601
0.0369429
0.0361953
0.0337501
0.0336695
0.0353188
0.0327992
0.0331303
0.0367952
0.0356158
0.0346988
0.035405
0.035272
0.0357198
0.0320953
0.033947
0.0332192
0.0306741
0.0379473
0.0356948
0.0340707
0.0373516
0.0358219
0.034409
0.0369816
0.0313471
0.0334993
0.0318398
0.0326354
0.0379405
0.0366435
0.0295556
0.0374133
0.0318739
0.0357604
0.0359478
0.03571
0.0374461
0.0350572
0.0361844
0.0351013
0.0349991
0.0347888
0.0371152
0.0319273
0.0326323
0.0348268
0.0307459
0.0345784
0.0315752
0.033574
0.0376703
0.0355144
0.0292403
0.0296631
0.033011
0.0324078
0.034621
0.0335236
0.0351077
0.0363721
0.0304771
0.0359829
0.034836
0.0346047
0.0319021
0.0355515
0.0314236
0.028976
0.0333177
0.0331655
0.0329416
0.0340833
0.0343443
0.0350352
0.0326936
0.0373419
0.0327604
0.0356015
0.0335166
0.0356887
0.0342926
0.0324056
0.0362572
0.0353726
0.0306809
0.0336298
0.0348511
0.0382318
0.0373088
0.0363982
0.037867