/*--------------------------------*- C++ -*----------------------------------*\
| =========                 |                                                 |
| \\      /  F ield         | OpenFOAM: The Open Source CFD Toolbox           |
|  \\    /   O peration     | Version:  2212                                  |
|   \\  /    A nd           | Website:  www.openfoam.com                      |
|    \\/     M anipulation  |                                                 |
\*---------------------------------------------------------------------------*/
FoamFile
{
    version     2.0;
    format      ascii;
    arch        "LSB;label=32;scalar=64";
    class       volScalarField;
    location    "0.022";
    object      nut;
}
// * * * * * * * * * * * * * * * * * * * * * * * * * * * * * * * * * * * * * //

dimensions      [0 2 -1 0 0 0 0];

internalField   nonuniform List<scalar> 
31639
(
6.89885e-05
6.64494e-05
6.81671e-05
7.25051e-05
6.68813e-05
6.51596e-05
6.48762e-05
6.97147e-05
6.88761e-05
7.09031e-05
7.07512e-05
7.02857e-05
6.75827e-05
7.19945e-05
6.52742e-05
6.33866e-05
6.93378e-05
6.56601e-05
6.31637e-05
6.67621e-05
5.64215e-05
7.10073e-05
7.20158e-05
6.35758e-05
6.27232e-05
6.82477e-05
6.69525e-05
5.96396e-05
6.52926e-05
7.20582e-05
7.09565e-05
6.47287e-05
7.16632e-05
6.29241e-05
5.86145e-05
7.17833e-05
5.43754e-05
7.28984e-05
7.12499e-05
5.28035e-05
5.91248e-05
5.79649e-05
7.05225e-05
7.1131e-05
7.15643e-05
7.10201e-05
6.50236e-05
6.57283e-05
6.91431e-05
7.21884e-05
7.05634e-05
5.39224e-05
7.26473e-05
5.56721e-05
6.4578e-05
6.8596e-05
5.70664e-05
6.71622e-05
6.65383e-05
5.66234e-05
6.75422e-05
7.01999e-05
6.18891e-05
6.60388e-05
6.86648e-05
7.21443e-05
6.77353e-05
6.72401e-05
6.0158e-05
7.1973e-05
7.21677e-05
6.24696e-05
6.98504e-05
6.68577e-05
7.24956e-05
5.81445e-05
7.11093e-05
6.60536e-05
6.58271e-05
7.07329e-05
6.24377e-05
5.25704e-05
7.15886e-05
6.82958e-05
6.87721e-05
7.08334e-05
7.22122e-05
7.14399e-05
5.90778e-05
7.29047e-05
6.7741e-05
6.70029e-05
5.77221e-05
6.60893e-05
6.11112e-05
6.51561e-05
6.66344e-05
6.69513e-05
6.75956e-05
5.71821e-05
7.27809e-05
7.06345e-05
6.57899e-05
5.60139e-05
5.73432e-05
7.12004e-05
5.56386e-05
5.49468e-05
6.13748e-05
5.58214e-05
6.92434e-05
5.77866e-05
6.58395e-05
6.42606e-05
6.72232e-05
5.57452e-05
6.54204e-05
6.53818e-05
7.13999e-05
6.62826e-05
6.98426e-05
7.03214e-05
6.96721e-05
6.86079e-05
6.73041e-05
7.19019e-05
6.67025e-05
6.21575e-05
6.11788e-05
7.02587e-05
7.07994e-05
6.99353e-05
7.02578e-05
6.47427e-05
6.98583e-05
6.73361e-05
5.69229e-05
5.57982e-05
7.00801e-05
6.69566e-05
6.67484e-05
7.10689e-05
7.10192e-05
5.51592e-05
5.4191e-05
7.22693e-05
7.08739e-05
5.77131e-05
5.72826e-05
7.1087e-05
6.12044e-05
6.72298e-05
6.32187e-05
6.98076e-05
5.82848e-05
7.21634e-05
6.69261e-05
6.04028e-05
5.90293e-05
6.34317e-05
7.10461e-05
5.87703e-05
6.09458e-05
5.64932e-05
5.81728e-05
6.55341e-05
5.81962e-05
7.19616e-05
7.01606e-05
5.55967e-05
6.19919e-05
6.46517e-05
5.86492e-05
6.76218e-05
7.26375e-05
7.09805e-05
6.7782e-05
7.22505e-05
6.79573e-05
6.71222e-05
6.5936e-05
6.55167e-05
6.43819e-05
5.3896e-05
6.84686e-05
7.25318e-05
6.46387e-05
7.18405e-05
5.80012e-05
5.62319e-05
7.31417e-05
7.03982e-05
6.88464e-05
6.62145e-05
6.6792e-05
6.46513e-05
6.47162e-05
6.99917e-05
5.62223e-05
6.49788e-05
7.14943e-05
7.25136e-05
6.8569e-05
6.88833e-05
6.76053e-05
6.67923e-05
6.53875e-05
6.52841e-05
7.03781e-05
5.4006e-05
6.61779e-05
6.52882e-05
6.82441e-05
7.0704e-05
6.9206e-05
7.14334e-05
5.92655e-05
6.32148e-05
7.05252e-05
7.12701e-05
6.95298e-05
6.56264e-05
5.61169e-05
6.6898e-05
5.63079e-05
6.69233e-05
7.04312e-05
6.27632e-05
5.81531e-05
6.97586e-05
6.86605e-05
7.28663e-05
5.91882e-05
5.67282e-05
6.90228e-05
6.95441e-05
5.74454e-05
7.10497e-05
6.14872e-05
5.55411e-05
6.56978e-05
6.85483e-05
6.61824e-05
6.33065e-05
6.19586e-05
6.93706e-05
6.52073e-05
6.44202e-05
5.77869e-05
6.63854e-05
6.4386e-05
5.87607e-05
6.33403e-05
7.22453e-05
7.15302e-05
6.45361e-05
5.89768e-05
6.97766e-05
6.91064e-05
6.59121e-05
7.23494e-05
7.09452e-05
6.95475e-05
7.13008e-05
6.55053e-05
6.66843e-05
5.56049e-05
6.28048e-05
7.05091e-05
6.47491e-05
6.94577e-05
6.40046e-05
6.74318e-05
7.17921e-05
7.22873e-05
6.72468e-05
5.70293e-05
6.5511e-05
6.09589e-05
7.07932e-05
6.60671e-05
7.11268e-05
7.2439e-05
6.41886e-05
5.8113e-05
6.08546e-05
5.87387e-05
5.62181e-05
7.0361e-05
5.96342e-05
7.20696e-05
6.55299e-05
6.35356e-05
5.95751e-05
7.27483e-05
6.44198e-05
6.28081e-05
7.09919e-05
6.71877e-05
6.1115e-05
6.63033e-05
5.90784e-05
6.66736e-05
6.55514e-05
5.85254e-05
6.54161e-05
6.53245e-05
5.2402e-05
5.50661e-05
7.0384e-05
7.20185e-05
7.00351e-05
5.65506e-05
5.91365e-05
6.9856e-05
6.00638e-05
6.08905e-05
7.18039e-05
7.17458e-05
6.48417e-05
7.10963e-05
7.22244e-05
5.83799e-05
7.27871e-05
5.52086e-05
5.61784e-05
7.0693e-05
6.99473e-05
7.05635e-05
7.20084e-05
6.95856e-05
5.93916e-05
6.56907e-05
6.56637e-05
7.10599e-05
7.23308e-05
7.27329e-05
6.56401e-05
6.40181e-05
6.83057e-05
7.00669e-05
6.88328e-05
6.38747e-05
6.6536e-05
6.52603e-05
6.59056e-05
7.03473e-05
6.45927e-05
5.824e-05
6.94219e-05
7.35182e-05
6.48561e-05
7.21246e-05
7.10975e-05
6.61934e-05
5.86272e-05
6.58559e-05
6.60371e-05
5.62422e-05
7.17674e-05
5.90155e-05
6.79433e-05
7.11596e-05
5.50271e-05
6.66188e-05
6.59995e-05
5.70456e-05
6.77147e-05
5.9109e-05
6.61341e-05
7.23874e-05
6.93969e-05
5.50743e-05
6.86304e-05
5.90238e-05
6.86926e-05
7.07427e-05
7.14529e-05
7.1078e-05
5.91597e-05
6.92836e-05
5.63412e-05
6.51582e-05
5.57085e-05
7.16485e-05
7.02548e-05
7.12722e-05
7.07393e-05
6.19715e-05
7.19582e-05
6.65382e-05
6.83821e-05
6.5869e-05
5.98577e-05
6.66613e-05
6.90938e-05
6.82208e-05
6.94486e-05
6.81483e-05
6.96379e-05
6.59606e-05
5.79549e-05
6.67663e-05
7.05023e-05
6.95482e-05
5.51295e-05
7.13186e-05
7.04296e-05
6.61334e-05
6.83872e-05
6.91317e-05
6.73124e-05
7.14471e-05
5.72336e-05
6.8711e-05
7.1317e-05
5.52119e-05
6.77039e-05
6.83751e-05
5.93044e-05
5.65004e-05
5.72452e-05
6.45559e-05
5.69229e-05
6.64348e-05
6.6524e-05
6.39166e-05
7.21993e-05
5.80961e-05
7.02508e-05
7.18368e-05
6.64515e-05
6.95311e-05
6.5256e-05
7.10409e-05
6.65977e-05
6.71676e-05
7.22439e-05
6.65391e-05
5.70719e-05
6.66663e-05
7.21338e-05
7.09073e-05
6.95034e-05
7.24685e-05
6.4642e-05
6.87568e-05
6.98603e-05
7.2268e-05
7.24543e-05
5.84847e-05
6.58895e-05
5.34442e-05
6.57504e-05
6.54986e-05
5.82253e-05
5.60482e-05
6.49304e-05
6.93185e-05
7.04267e-05
5.72014e-05
6.92649e-05
6.34202e-05
6.60614e-05
6.98741e-05
5.32073e-05
6.55049e-05
5.59191e-05
6.47732e-05
7.07263e-05
7.32444e-05
6.95062e-05
6.64234e-05
5.52474e-05
6.93992e-05
6.67157e-05
7.00774e-05
5.6533e-05
5.78697e-05
6.59713e-05
5.77432e-05
5.89693e-05
6.86325e-05
5.65485e-05
6.45841e-05
5.75077e-05
6.93288e-05
5.77845e-05
7.20698e-05
7.04087e-05
7.06756e-05
7.12965e-05
6.15003e-05
7.08634e-05
7.15007e-05
6.80473e-05
7.03152e-05
6.71614e-05
7.04608e-05
7.30611e-05
6.41363e-05
7.1323e-05
7.2274e-05
6.6173e-05
6.16785e-05
7.22585e-05
6.68633e-05
5.4086e-05
5.54559e-05
6.69404e-05
7.12878e-05
7.18806e-05
6.52299e-05
7.26481e-05
7.32047e-05
6.98069e-05
6.75242e-05
6.56137e-05
6.72618e-05
5.94507e-05
6.57273e-05
6.8702e-05
7.22258e-05
6.10139e-05
6.07029e-05
5.98988e-05
6.3511e-05
6.59832e-05
5.40566e-05
6.95855e-05
6.33081e-05
6.88897e-05
6.63578e-05
7.00412e-05
6.66735e-05
5.82641e-05
6.81233e-05
7.13708e-05
6.03059e-05
7.01947e-05
7.30589e-05
6.6937e-05
6.55524e-05
6.03344e-05
6.04905e-05
6.62898e-05
6.70332e-05
5.86663e-05
5.80601e-05
6.71465e-05
6.25414e-05
6.93919e-05
6.16682e-05
6.59032e-05
7.0986e-05
6.64942e-05
5.66824e-05
6.25468e-05
6.70765e-05
7.15372e-05
5.7162e-05
5.34556e-05
7.07086e-05
5.67174e-05
6.7893e-05
7.27246e-05
5.71355e-05
6.68632e-05
7.17927e-05
6.6984e-05
5.66511e-05
7.11255e-05
6.66614e-05
5.73395e-05
7.07544e-05
6.77229e-05
6.49233e-05
7.06673e-05
5.48985e-05
6.31085e-05
6.6211e-05
6.5093e-05
6.24526e-05
6.75246e-05
7.18152e-05
7.1503e-05
6.98932e-05
7.20298e-05
7.06677e-05
6.94509e-05
6.25817e-05
6.92887e-05
7.19033e-05
7.45853e-05
6.06455e-05
6.71414e-05
6.78573e-05
7.4135e-05
5.87437e-05
5.48033e-05
7.19448e-05
6.09257e-05
7.26665e-05
6.44751e-05
5.7952e-05
6.66953e-05
7.09316e-05
6.66083e-05
6.90495e-05
5.61114e-05
7.02543e-05
6.77129e-05
5.55108e-05
7.18351e-05
7.0162e-05
5.81555e-05
5.86519e-05
5.92852e-05
6.54723e-05
6.71048e-05
6.69774e-05
6.60194e-05
6.69105e-05
7.0345e-05
6.70326e-05
6.64655e-05
5.88945e-05
7.21075e-05
5.6399e-05
6.6737e-05
6.60715e-05
6.47745e-05
7.32662e-05
6.6715e-05
6.09133e-05
5.57416e-05
5.83685e-05
6.59886e-05
7.14263e-05
5.9307e-05
7.21965e-05
6.61927e-05
7.02901e-05
5.79466e-05
6.4713e-05
6.98976e-05
7.23248e-05
7.09097e-05
6.97809e-05
6.7407e-05
6.62863e-05
7.24872e-05
7.22647e-05
7.14122e-05
6.13878e-05
7.08e-05
5.83415e-05
7.17133e-05
7.07388e-05
6.56633e-05
5.92601e-05
6.46759e-05
5.38083e-05
7.11056e-05
6.72486e-05
7.2799e-05
6.65259e-05
6.40636e-05
5.79977e-05
7.14199e-05
5.62492e-05
5.36196e-05
5.95745e-05
6.12442e-05
5.86834e-05
6.63484e-05
5.70488e-05
6.88917e-05
6.86355e-05
5.34141e-05
7.23132e-05
5.83288e-05
6.24955e-05
6.47944e-05
6.39342e-05
6.98263e-05
7.15646e-05
7.25279e-05
7.17311e-05
6.51287e-05
6.67779e-05
6.47288e-05
6.5169e-05
5.54311e-05
4.61094e-05
7.17025e-05
6.58223e-05
6.98058e-05
7.06656e-05
5.73619e-05
7.12096e-05
7.24731e-05
6.9776e-05
7.01872e-05
6.98817e-05
6.79624e-05
7.17212e-05
7.24554e-05
6.70106e-05
7.08545e-05
7.06713e-05
5.93163e-05
7.09186e-05
6.43423e-05
7.0541e-05
6.43048e-05
6.62725e-05
6.25564e-05
7.29342e-05
6.50592e-05
6.71009e-05
6.63086e-05
5.85551e-05
7.20267e-05
6.77619e-05
6.40793e-05
5.77262e-05
6.95472e-05
5.51271e-05
7.07016e-05
6.97858e-05
6.4522e-05
7.22359e-05
7.25704e-05
7.20124e-05
5.7277e-05
6.6412e-05
6.63437e-05
6.70838e-05
5.90548e-05
6.95202e-05
7.04289e-05
6.38213e-05
6.66047e-05
6.33225e-05
6.91267e-05
6.47732e-05
6.57254e-05
5.50504e-05
7.01174e-05
6.84712e-05
7.13357e-05
6.20103e-05
6.65844e-05
6.78641e-05
6.60538e-05
6.3256e-05
6.74377e-05
7.02122e-05
6.55711e-05
5.49824e-05
5.54031e-05
6.54024e-05
5.46372e-05
5.86484e-05
6.79988e-05
6.79055e-05
7.03799e-05
5.48412e-05
6.55912e-05
7.16573e-05
5.90344e-05
5.59508e-05
6.74229e-05
5.93541e-05
6.9536e-05
6.03611e-05
7.20095e-05
6.26683e-05
6.37901e-05
7.19476e-05
5.55334e-05
6.49892e-05
6.5103e-05
7.04795e-05
7.14821e-05
7.14872e-05
5.94954e-05
6.96984e-05
7.16048e-05
6.43369e-05
7.2134e-05
7.00282e-05
6.94288e-05
7.18737e-05
6.69728e-05
7.34544e-05
7.24684e-05
7.30455e-05
6.90289e-05
6.46226e-05
6.71886e-05
6.64653e-05
5.74015e-05
6.49597e-05
6.86784e-05
7.07771e-05
7.23795e-05
6.53945e-05
7.28125e-05
7.02603e-05
6.38796e-05
7.02615e-05
7.1006e-05
6.97636e-05
6.98982e-05
5.81376e-05
6.45658e-05
7.17307e-05
5.45213e-05
6.61181e-05
6.5771e-05
6.57885e-05
6.54118e-05
7.18583e-05
6.9493e-05
7.06353e-05
6.66376e-05
6.93097e-05
6.75008e-05
7.09361e-05
6.74196e-05
6.51405e-05
5.8482e-05
7.10303e-05
5.90466e-05
6.4692e-05
6.62469e-05
6.43579e-05
6.76392e-05
7.24311e-05
5.8221e-05
7.25364e-05
5.85808e-05
6.74111e-05
6.52639e-05
6.56919e-05
6.61e-05
7.1933e-05
5.77028e-05
7.00918e-05
7.09091e-05
7.17271e-05
6.74543e-05
6.84309e-05
5.41726e-05
7.2038e-05
7.06838e-05
6.97905e-05
6.99939e-05
7.07781e-05
6.65221e-05
6.74656e-05
6.72985e-05
5.92236e-05
6.61375e-05
7.20293e-05
5.59051e-05
6.07105e-05
7.42158e-05
7.07659e-05
6.27652e-05
6.45038e-05
6.77511e-05
6.31871e-05
6.54967e-05
6.00722e-05
7.00844e-05
7.20871e-05
5.4452e-05
6.74531e-05
7.12472e-05
7.00656e-05
7.18196e-05
6.48979e-05
7.0745e-05
5.96042e-05
5.9051e-05
7.24012e-05
7.09838e-05
6.6004e-05
5.88437e-05
6.95951e-05
7.10542e-05
6.13331e-05
7.12921e-05
7.07723e-05
7.10029e-05
6.88629e-05
7.09738e-05
6.73793e-05
6.76862e-05
6.55161e-05
6.36474e-05
5.65007e-05
6.77551e-05
6.72813e-05
5.90477e-05
7.1314e-05
5.56632e-05
6.46596e-05
6.59064e-05
5.84411e-05
6.57346e-05
6.40556e-05
6.95606e-05
6.75715e-05
7.05431e-05
5.75965e-05
5.83957e-05
6.50927e-05
5.76835e-05
6.41203e-05
7.09911e-05
6.5505e-05
7.13398e-05
6.69208e-05
6.65298e-05
7.14201e-05
6.44941e-05
6.7168e-05
6.6097e-05
6.59029e-05
6.87245e-05
6.0019e-05
6.72072e-05
7.01336e-05
7.16476e-05
7.3029e-05
5.75362e-05
5.7075e-05
6.61998e-05
7.13435e-05
5.97389e-05
6.50083e-05
6.84391e-05
6.65245e-05
7.3754e-05
6.5873e-05
6.50904e-05
6.98353e-05
5.73551e-05
7.11743e-05
7.17825e-05
5.88275e-05
6.28953e-05
6.5855e-05
6.41794e-05
7.22933e-05
7.14635e-05
6.86247e-05
5.9675e-05
7.0774e-05
5.73589e-05
6.53318e-05
7.0904e-05
6.3336e-05
7.32793e-05
5.61562e-05
6.63474e-05
6.86005e-05
6.68909e-05
5.65531e-05
5.63037e-05
7.1181e-05
7.17392e-05
6.47489e-05
7.17764e-05
6.85079e-05
6.59651e-05
5.80624e-05
6.04856e-05
6.81165e-05
6.6573e-05
6.64428e-05
7.24432e-05
7.10649e-05
7.34537e-05
7.17374e-05
6.82018e-05
6.83365e-05
6.99083e-05
5.82929e-05
7.05384e-05
6.93142e-05
6.73881e-05
6.80847e-05
7.19023e-05
6.5771e-05
7.18117e-05
6.57614e-05
5.45732e-05
7.26854e-05
6.34019e-05
7.19868e-05
6.46067e-05
7.0588e-05
5.89901e-05
6.93978e-05
7.40581e-05
6.6423e-05
6.69851e-05
5.7279e-05
7.03005e-05
7.23429e-05
6.85079e-05
5.766e-05
7.48538e-05
6.68462e-05
6.86297e-05
7.1828e-05
7.07409e-05
7.02019e-05
6.58957e-05
6.63901e-05
7.3366e-05
5.8803e-05
5.95638e-05
5.88458e-05
6.15434e-05
6.80823e-05
5.62853e-05
7.22888e-05
7.1086e-05
7.27194e-05
6.54094e-05
6.62407e-05
6.71637e-05
7.17642e-05
6.70281e-05
6.75335e-05
7.16012e-05
7.19218e-05
6.6691e-05
7.07009e-05
6.67357e-05
6.54904e-05
6.98031e-05
6.44343e-05
7.27856e-05
7.25808e-05
7.24353e-05
7.24493e-05
7.17633e-05
6.31077e-05
7.37734e-05
6.74705e-05
6.8291e-05
6.53001e-05
6.81641e-05
7.30989e-05
6.67811e-05
7.03047e-05
6.45242e-05
6.6584e-05
6.95433e-05
6.00477e-05
5.74116e-05
6.58721e-05
6.56396e-05
7.25609e-05
6.38792e-05
5.62646e-05
6.82964e-05
7.04942e-05
6.12496e-05
6.41696e-05
6.71772e-05
7.241e-05
7.22157e-05
6.49335e-05
6.19709e-05
6.67097e-05
7.00682e-05
6.47017e-05
6.80919e-05
6.71352e-05
5.67214e-05
6.47401e-05
6.41923e-05
6.95734e-05
7.14375e-05
6.7037e-05
7.19811e-05
6.99078e-05
6.7066e-05
6.82716e-05
5.8933e-05
6.0655e-05
5.62234e-05
7.1676e-05
6.76643e-05
7.23611e-05
7.52358e-05
7.00671e-05
5.67536e-05
6.98559e-05
6.49538e-05
6.93596e-05
6.90602e-05
6.99595e-05
5.67059e-05
7.27804e-05
5.84386e-05
6.69819e-05
6.79609e-05
6.62687e-05
7.34529e-05
6.60688e-05
6.96239e-05
5.92335e-05
6.61209e-05
6.72703e-05
7.04713e-05
6.28071e-05
6.04735e-05
6.94984e-05
7.12427e-05
6.8786e-05
6.92478e-05
7.24032e-05
5.85197e-05
6.6232e-05
6.56458e-05
6.15348e-05
7.05476e-05
7.247e-05
7.23826e-05
7.1176e-05
7.28605e-05
5.94744e-05
5.85707e-05
5.90577e-05
7.32076e-05
5.73152e-05
6.97514e-05
6.83442e-05
5.86308e-05
6.46267e-05
7.05708e-05
7.13288e-05
6.27074e-05
6.41619e-05
6.49927e-05
6.72535e-05
7.2181e-05
6.80884e-05
5.88646e-05
6.69808e-05
7.28252e-05
7.16255e-05
7.27818e-05
7.20501e-05
7.47918e-05
7.23939e-05
7.06432e-05
5.98318e-05
5.75933e-05
6.72464e-05
6.27871e-05
7.21254e-05
5.7795e-05
6.80833e-05
6.60233e-05
7.20664e-05
5.97322e-05
6.93284e-05
7.0548e-05
6.83626e-05
6.50133e-05
5.8404e-05
7.06125e-05
6.3989e-05
7.27834e-05
6.71237e-05
7.46427e-05
7.2377e-05
6.74131e-05
5.7239e-05
5.8188e-05
6.58968e-05
6.81676e-05
6.38087e-05
7.37537e-05
5.91156e-05
7.17583e-05
6.97839e-05
6.48589e-05
6.91162e-05
7.10794e-05
7.17555e-05
7.19761e-05
7.27972e-05
6.80326e-05
6.89832e-05
5.69345e-05
6.38375e-05
7.17448e-05
5.96603e-05
6.90872e-05
6.56027e-05
5.91515e-05
6.66047e-05
6.89644e-05
6.61196e-05
6.97078e-05
7.076e-05
5.87495e-05
6.57827e-05
6.73442e-05
5.80012e-05
6.39761e-05
6.54866e-05
6.50555e-05
6.96245e-05
5.9209e-05
5.89381e-05
6.62127e-05
6.46087e-05
7.14837e-05
7.30996e-05
7.15763e-05
6.50619e-05
6.52607e-05
6.73762e-05
6.41212e-05
7.2043e-05
5.9036e-05
6.67664e-05
6.59569e-05
7.23667e-05
6.98692e-05
6.62448e-05
6.70491e-05
7.11631e-05
5.87951e-05
6.73921e-05
7.21242e-05
6.4559e-05
5.11638e-05
6.67609e-05
5.78128e-05
6.84767e-05
5.58499e-05
7.28259e-05
7.24163e-05
7.19026e-05
6.81351e-05
5.95774e-05
5.74726e-05
7.0689e-05
7.281e-05
7.20709e-05
6.71519e-05
6.73885e-05
6.96306e-05
7.30287e-05
7.1582e-05
5.68864e-05
6.64351e-05
6.77321e-05
6.91261e-05
6.51215e-05
6.99279e-05
5.6275e-05
7.23925e-05
7.09596e-05
6.81596e-05
6.77298e-05
6.96078e-05
6.68636e-05
7.24149e-05
6.9145e-05
5.95857e-05
6.64421e-05
6.96751e-05
6.57887e-05
6.78794e-05
6.88582e-05
5.62307e-05
6.03125e-05
7.13185e-05
7.26934e-05
7.08403e-05
7.23625e-05
7.02671e-05
7.10083e-05
6.87431e-05
6.73947e-05
6.89819e-05
7.12812e-05
6.45797e-05
6.64062e-05
6.40252e-05
6.70359e-05
7.11576e-05
5.56132e-05
6.79909e-05
5.62945e-05
7.0847e-05
5.65341e-05
5.76713e-05
6.59682e-05
5.46333e-05
6.64782e-05
6.85826e-05
7.0974e-05
7.09418e-05
6.3213e-05
6.33618e-05
7.38009e-05
6.18556e-05
5.91903e-05
6.59646e-05
6.28891e-05
7.17916e-05
6.89014e-05
6.8085e-05
5.86724e-05
7.09685e-05
7.21178e-05
7.19766e-05
5.77168e-05
6.11148e-05
6.67108e-05
7.14802e-05
7.32939e-05
5.89672e-05
5.71219e-05
7.03389e-05
6.74651e-05
7.26569e-05
6.64854e-05
5.5507e-05
6.92483e-05
7.09737e-05
5.80196e-05
5.59357e-05
7.14432e-05
6.01158e-05
5.97266e-05
7.19063e-05
7.2706e-05
6.95374e-05
7.41707e-05
6.59126e-05
6.49728e-05
7.14511e-05
6.32537e-05
7.16282e-05
6.40812e-05
6.92255e-05
7.14106e-05
6.55775e-05
5.8117e-05
7.02947e-05
7.11073e-05
6.4981e-05
6.62755e-05
6.71606e-05
6.16159e-05
6.25903e-05
6.78726e-05
6.92976e-05
7.21036e-05
6.43008e-05
7.01574e-05
5.70598e-05
6.98379e-05
7.29749e-05
5.65691e-05
7.15275e-05
6.75329e-05
5.28546e-05
5.79689e-05
6.74315e-05
6.64536e-05
7.02866e-05
6.45791e-05
5.93183e-05
7.12031e-05
7.2898e-05
7.21864e-05
6.86286e-05
7.18813e-05
5.72843e-05
7.15986e-05
6.67464e-05
5.75535e-05
5.85078e-05
5.2393e-05
5.8682e-05
6.98329e-05
6.51023e-05
6.83654e-05
6.70681e-05
6.12081e-05
6.23822e-05
5.51851e-05
5.51427e-05
7.42253e-05
7.31426e-05
5.93165e-05
7.17953e-05
7.07242e-05
5.90887e-05
6.59087e-05
6.75124e-05
6.10251e-05
6.39697e-05
7.18623e-05
6.02147e-05
5.53658e-05
7.20365e-05
7.3461e-05
6.30005e-05
7.1674e-05
6.57175e-05
6.09335e-05
5.90986e-05
6.66047e-05
5.77625e-05
5.79842e-05
6.76124e-05
6.93183e-05
6.59854e-05
7.18395e-05
7.1558e-05
6.60986e-05
7.24927e-05
4.78622e-05
6.64063e-05
5.72669e-05
6.71838e-05
7.24232e-05
6.58803e-05
6.34262e-05
6.61167e-05
5.87821e-05
6.8763e-05
6.62914e-05
6.35644e-05
5.8124e-05
5.49502e-05
5.42729e-05
6.44813e-05
5.76513e-05
6.64534e-05
5.81503e-05
6.53573e-05
7.15425e-05
6.88667e-05
6.56684e-05
6.78735e-05
6.94005e-05
6.64625e-05
7.03498e-05
5.6647e-05
6.72596e-05
7.25439e-05
7.21695e-05
6.54476e-05
7.3802e-05
6.07988e-05
7.10122e-05
6.57748e-05
5.69741e-05
7.00708e-05
7.24673e-05
6.92263e-05
7.01129e-05
7.22461e-05
6.8633e-05
5.44884e-05
5.53877e-05
6.548e-05
7.2783e-05
6.83216e-05
7.05738e-05
6.39225e-05
6.50679e-05
6.09592e-05
5.65503e-05
5.64193e-05
5.66548e-05
6.97872e-05
6.79614e-05
7.22432e-05
6.4476e-05
6.47363e-05
7.309e-05
5.61329e-05
6.70682e-05
7.23081e-05
7.22016e-05
6.35344e-05
6.44491e-05
7.04466e-05
7.28994e-05
7.21104e-05
5.80261e-05
6.72347e-05
7.02217e-05
6.87975e-05
6.73201e-05
7.43906e-05
7.11092e-05
7.20684e-05
6.76278e-05
6.2848e-05
6.69393e-05
7.21268e-05
7.01763e-05
6.68421e-05
5.73921e-05
7.13831e-05
7.08915e-05
7.21258e-05
7.03348e-05
5.67984e-05
5.37383e-05
6.57463e-05
6.99272e-05
6.63564e-05
6.77796e-05
7.01239e-05
7.0257e-05
7.08702e-05
6.42658e-05
6.98803e-05
6.69262e-05
7.07498e-05
5.77341e-05
5.73348e-05
6.42572e-05
7.1842e-05
5.87957e-05
7.11008e-05
5.8151e-05
6.56527e-05
6.68509e-05
7.24693e-05
6.57224e-05
7.07762e-05
7.1443e-05
7.12166e-05
6.8143e-05
7.0299e-05
6.74433e-05
6.43571e-05
5.51605e-05
7.25421e-05
5.31248e-05
5.64327e-05
5.74606e-05
5.56346e-05
5.6022e-05
6.50021e-05
6.7407e-05
5.85051e-05
6.41657e-05
5.31026e-05
5.95221e-05
6.52418e-05
7.15515e-05
5.59638e-05
5.78135e-05
7.03545e-05
5.60522e-05
6.56853e-05
7.0492e-05
6.85432e-05
6.6733e-05
5.86188e-05
5.67315e-05
6.45463e-05
7.23835e-05
6.11991e-05
5.82523e-05
6.82105e-05
6.42773e-05
6.80737e-05
6.61306e-05
5.86584e-05
7.24061e-05
5.54621e-05
5.72159e-05
6.59301e-05
7.1964e-05
6.3936e-05
6.58991e-05
6.63199e-05
6.71855e-05
5.4737e-05
5.9769e-05
6.50608e-05
7.25787e-05
6.9351e-05
5.66985e-05
5.41225e-05
6.62854e-05
7.25573e-05
6.59391e-05
6.63751e-05
6.39642e-05
6.45858e-05
6.6226e-05
5.74361e-05
7.19016e-05
6.34025e-05
5.781e-05
5.37998e-05
7.02896e-05
6.66925e-05
7.27077e-05
6.8094e-05
7.06047e-05
5.7269e-05
6.5872e-05
5.50785e-05
5.35399e-05
7.11802e-05
5.89762e-05
6.56092e-05
6.68868e-05
6.93542e-05
5.7986e-05
7.22459e-05
7.06994e-05
7.22449e-05
6.87733e-05
5.07655e-05
6.6991e-05
5.54053e-05
7.28642e-05
5.85086e-05
7.22607e-05
5.34527e-05
6.8188e-05
7.02748e-05
6.40721e-05
6.50347e-05
5.40712e-05
6.2612e-05
6.66243e-05
7.12965e-05
6.92532e-05
7.16089e-05
7.24657e-05
5.70805e-05
7.21948e-05
6.23679e-05
6.79702e-05
6.81717e-05
7.09415e-05
7.06683e-05
6.67924e-05
7.27575e-05
6.53763e-05
6.2836e-05
6.30009e-05
6.78735e-05
7.22589e-05
6.21272e-05
6.03494e-05
7.17572e-05
6.96374e-05
6.63711e-05
7.43066e-05
6.84893e-05
6.83936e-05
7.06816e-05
7.12418e-05
7.22417e-05
6.58664e-05
6.41984e-05
7.11313e-05
7.03429e-05
5.95468e-05
6.57738e-05
6.25756e-05
7.26558e-05
6.77993e-05
7.07228e-05
5.82796e-05
5.86582e-05
6.70914e-05
7.03153e-05
7.13777e-05
7.25781e-05
7.13513e-05
6.77261e-05
6.91545e-05
5.878e-05
6.71586e-05
6.70873e-05
7.13993e-05
7.23831e-05
7.19368e-05
6.59848e-05
7.21563e-05
5.9748e-05
7.18856e-05
6.24946e-05
6.55772e-05
6.48357e-05
6.70374e-05
6.46595e-05
7.03283e-05
5.75737e-05
7.11546e-05
7.14666e-05
6.599e-05
5.84095e-05
7.33292e-05
6.96162e-05
7.1757e-05
6.64138e-05
6.72031e-05
7.02236e-05
5.69445e-05
7.19787e-05
6.60096e-05
6.76283e-05
6.20807e-05
6.24197e-05
6.17004e-05
5.69253e-05
6.3775e-05
7.2818e-05
6.74407e-05
5.57453e-05
6.94145e-05
5.66279e-05
6.8091e-05
6.78474e-05
5.49758e-05
5.65311e-05
6.30411e-05
6.75986e-05
7.02919e-05
6.42745e-05
7.02764e-05
6.59977e-05
6.07763e-05
6.34311e-05
7.19664e-05
7.20357e-05
7.14891e-05
6.9795e-05
6.85726e-05
5.75067e-05
5.79762e-05
7.2289e-05
6.50012e-05
6.74822e-05
7.11729e-05
7.36389e-05
6.70871e-05
6.85775e-05
5.47938e-05
7.04055e-05
7.13582e-05
6.40437e-05
7.2225e-05
7.1572e-05
6.83661e-05
6.41419e-05
6.98434e-05
6.45845e-05
5.55201e-05
6.71617e-05
5.85391e-05
5.69048e-05
6.77497e-05
6.69424e-05
7.1175e-05
7.12964e-05
6.77644e-05
7.1562e-05
5.39345e-05
6.42869e-05
7.2942e-05
7.28899e-05
5.638e-05
6.72382e-05
5.96664e-05
6.4065e-05
7.17098e-05
6.42699e-05
6.8905e-05
7.3251e-05
6.92648e-05
5.50124e-05
7.11159e-05
5.71575e-05
7.12697e-05
6.96715e-05
6.82274e-05
7.11428e-05
6.78135e-05
7.13923e-05
5.79241e-05
7.20818e-05
7.2017e-05
5.93742e-05
6.87061e-05
6.63915e-05
6.55588e-05
7.06965e-05
6.63025e-05
7.051e-05
7.24477e-05
7.21683e-05
6.68123e-05
7.22658e-05
6.66805e-05
6.94834e-05
6.03402e-05
6.36479e-05
5.70454e-05
5.58298e-05
6.81251e-05
6.88635e-05
6.63754e-05
7.21156e-05
6.52574e-05
7.21752e-05
5.56164e-05
7.27833e-05
7.26458e-05
6.91358e-05
7.17948e-05
6.00988e-05
5.53635e-05
6.6319e-05
5.65853e-05
7.05341e-05
6.71407e-05
5.49462e-05
6.53545e-05
7.24973e-05
7.03232e-05
5.61921e-05
6.1831e-05
5.45069e-05
7.29024e-05
5.72096e-05
7.05447e-05
6.25753e-05
5.75754e-05
7.16533e-05
7.24214e-05
7.18885e-05
6.99393e-05
5.79772e-05
6.89091e-05
7.29011e-05
5.94865e-05
7.14552e-05
6.99405e-05
7.22411e-05
5.57064e-05
6.98836e-05
6.45023e-05
6.94526e-05
6.46197e-05
6.54723e-05
6.43709e-05
6.44462e-05
6.5113e-05
6.52636e-05
6.97755e-05
6.61039e-05
7.25044e-05
6.01872e-05
6.59705e-05
6.75564e-05
7.03169e-05
7.26189e-05
5.69465e-05
7.01314e-05
5.84945e-05
6.5183e-05
7.21102e-05
7.25426e-05
6.6072e-05
6.81791e-05
7.01263e-05
6.43424e-05
6.62298e-05
6.60102e-05
5.73459e-05
5.66383e-05
6.82189e-05
7.09264e-05
6.68499e-05
6.46326e-05
7.10792e-05
5.83609e-05
6.80336e-05
5.81468e-05
6.89758e-05
7.22539e-05
6.6857e-05
5.6647e-05
7.10261e-05
5.71658e-05
6.86217e-05
7.17144e-05
5.58941e-05
7.28861e-05
5.95614e-05
6.41491e-05
6.56435e-05
5.65087e-05
6.27818e-05
6.41755e-05
5.39319e-05
7.1797e-05
7.30181e-05
5.31738e-05
6.35057e-05
6.98301e-05
6.85209e-05
6.81428e-05
7.3082e-05
7.1641e-05
6.57829e-05
6.23468e-05
5.60252e-05
5.43952e-05
5.93781e-05
7.2708e-05
7.07548e-05
6.92643e-05
6.90191e-05
5.72553e-05
5.77438e-05
6.57314e-05
7.1675e-05
5.45124e-05
6.85426e-05
6.64391e-05
6.57307e-05
6.94842e-05
6.3813e-05
7.06667e-05
6.1826e-05
6.66983e-05
7.35592e-05
5.20165e-05
6.73719e-05
7.17746e-05
7.10039e-05
6.92854e-05
7.06386e-05
6.81149e-05
5.67719e-05
7.32228e-05
7.41531e-05
6.63846e-05
6.74148e-05
6.37195e-05
6.64472e-05
6.94277e-05
7.00757e-05
6.73066e-05
6.60968e-05
6.51024e-05
5.61658e-05
6.48418e-05
7.25297e-05
6.99175e-05
7.34396e-05
6.77984e-05
6.66325e-05
7.29458e-05
5.81814e-05
7.06528e-05
5.70782e-05
7.27247e-05
6.96046e-05
6.43584e-05
7.36686e-05
6.37815e-05
6.61547e-05
7.30234e-05
6.49385e-05
7.29661e-05
7.08853e-05
7.04711e-05
5.74662e-05
6.68875e-05
6.60183e-05
6.14483e-05
7.06789e-05
6.46462e-05
6.52751e-05
7.31481e-05
5.76132e-05
7.17757e-05
6.69258e-05
7.1899e-05
6.49756e-05
6.8018e-05
5.77864e-05
5.97349e-05
7.37274e-05
5.77864e-05
6.66982e-05
7.07453e-05
5.75917e-05
6.59936e-05
7.10766e-05
6.34004e-05
5.89783e-05
6.24297e-05
6.50056e-05
6.46125e-05
7.12257e-05
6.5823e-05
7.24246e-05
6.90444e-05
7.12889e-05
5.53852e-05
6.21139e-05
7.25202e-05
6.6013e-05
5.71122e-05
5.93766e-05
6.7137e-05
5.81639e-05
5.67382e-05
6.65198e-05
6.55972e-05
7.2267e-05
6.45791e-05
7.07354e-05
7.17873e-05
7.12368e-05
7.06216e-05
7.06989e-05
6.41886e-05
6.30398e-05
7.01875e-05
6.5773e-05
6.41121e-05
7.22305e-05
6.61709e-05
5.64576e-05
5.59739e-05
6.56726e-05
5.73412e-05
6.96335e-05
7.06138e-05
6.3435e-05
7.07009e-05
7.05099e-05
7.03887e-05
7.37261e-05
6.66571e-05
5.78935e-05
6.41049e-05
6.48851e-05
7.09175e-05
6.37315e-05
6.93734e-05
7.25028e-05
6.54477e-05
6.41742e-05
6.75518e-05
7.17943e-05
6.96038e-05
7.51583e-05
7.13872e-05
6.61242e-05
6.71507e-05
5.96763e-05
6.47801e-05
7.18846e-05
6.03927e-05
7.21727e-05
6.39191e-05
7.0565e-05
5.71121e-05
6.98179e-05
6.67893e-05
7.09578e-05
6.61404e-05
6.87871e-05
6.64039e-05
7.06363e-05
5.5916e-05
5.94873e-05
6.65848e-05
6.37651e-05
6.77349e-05
6.70966e-05
6.70582e-05
7.21561e-05
6.85977e-05
5.64203e-05
6.29158e-05
5.7234e-05
6.77404e-05
6.68254e-05
5.85083e-05
7.40134e-05
6.66478e-05
6.56775e-05
7.0223e-05
6.18268e-05
5.90108e-05
7.21699e-05
5.85487e-05
5.62824e-05
6.25767e-05
6.25823e-05
5.9741e-05
6.25738e-05
7.18375e-05
7.07139e-05
6.43161e-05
6.78784e-05
7.03989e-05
6.66634e-05
7.03447e-05
5.60824e-05
7.13593e-05
4.8984e-05
7.07164e-05
5.76825e-05
5.70156e-05
7.14488e-05
5.61521e-05
6.58653e-05
6.87497e-05
7.09296e-05
6.39541e-05
6.79812e-05
6.40131e-05
6.60035e-05
6.37659e-05
6.93836e-05
6.77756e-05
7.08446e-05
6.65028e-05
5.81871e-05
6.97253e-05
6.54749e-05
6.57106e-05
6.3792e-05
5.98151e-05
6.19058e-05
5.53658e-05
5.65044e-05
6.66387e-05
6.55033e-05
5.97321e-05
6.41888e-05
7.15899e-05
7.17899e-05
7.19897e-05
4.83014e-05
5.64754e-05
7.20684e-05
5.73029e-05
7.06177e-05
5.63273e-05
7.12998e-05
7.13496e-05
7.1169e-05
5.7896e-05
6.57345e-05
7.25862e-05
7.23758e-05
6.84753e-05
7.21786e-05
6.62579e-05
6.82303e-05
6.58839e-05
5.72031e-05
6.85184e-05
6.33678e-05
6.70048e-05
6.68368e-05
6.13452e-05
6.53558e-05
7.16644e-05
6.2768e-05
6.24701e-05
5.71599e-05
6.9575e-05
6.97074e-05
5.46803e-05
6.65026e-05
6.63979e-05
6.92856e-05
5.82087e-05
6.73512e-05
6.6328e-05
7.29046e-05
5.53325e-05
6.6433e-05
6.59223e-05
5.51509e-05
7.08064e-05
5.82656e-05
5.95667e-05
6.87994e-05
7.19132e-05
5.5089e-05
7.10551e-05
6.83689e-05
6.49748e-05
5.57451e-05
7.21225e-05
7.19797e-05
5.50741e-05
6.65829e-05
5.44608e-05
5.84846e-05
7.19355e-05
6.46627e-05
6.83992e-05
7.15842e-05
7.18919e-05
6.4633e-05
6.3675e-05
6.58646e-05
6.56958e-05
6.7896e-05
6.37017e-05
7.10667e-05
5.7475e-05
6.39091e-05
6.64743e-05
6.5298e-05
6.91658e-05
6.53565e-05
6.87812e-05
6.98674e-05
6.6443e-05
7.23408e-05
6.94398e-05
6.51032e-05
6.28998e-05
6.97549e-05
6.46976e-05
6.34116e-05
6.90874e-05
7.23528e-05
6.95913e-05
7.05914e-05
6.31495e-05
6.96241e-05
6.31563e-05
5.77792e-05
6.6192e-05
6.85792e-05
5.81133e-05
6.90243e-05
6.54041e-05
5.33529e-05
5.65651e-05
7.02941e-05
5.50072e-05
6.56137e-05
7.08959e-05
6.85474e-05
5.77769e-05
6.90778e-05
7.34926e-05
5.81909e-05
5.77075e-05
5.82293e-05
7.12855e-05
6.63706e-05
6.60241e-05
7.21427e-05
5.66039e-05
6.91463e-05
6.65007e-05
7.2269e-05
7.3074e-05
5.07675e-05
6.66687e-05
6.99568e-05
7.12528e-05
6.78215e-05
6.50169e-05
5.78047e-05
6.8578e-05
7.22076e-05
6.27338e-05
5.56207e-05
6.50263e-05
7.0905e-05
6.87183e-05
5.70547e-05
6.58319e-05
6.99424e-05
7.12017e-05
6.56393e-05
6.54403e-05
5.46772e-05
5.78603e-05
5.75923e-05
6.70701e-05
6.4936e-05
6.80061e-05
7.23713e-05
7.1495e-05
5.87489e-05
7.07489e-05
7.14629e-05
6.83246e-05
6.41035e-05
7.07309e-05
6.49804e-05
5.86126e-05
6.38189e-05
6.77784e-05
6.6973e-05
6.13848e-05
6.89111e-05
6.51613e-05
7.10407e-05
5.89791e-05
5.58153e-05
6.47384e-05
7.22779e-05
7.07522e-05
6.44269e-05
6.54271e-05
7.10789e-05
7.13956e-05
6.40153e-05
6.44697e-05
7.09323e-05
7.2268e-05
6.96475e-05
7.21638e-05
7.01875e-05
6.88081e-05
5.59787e-05
6.49606e-05
5.7596e-05
6.95819e-05
7.10929e-05
6.3827e-05
5.7299e-05
7.27593e-05
5.7213e-05
6.33867e-05
5.99341e-05
6.66976e-05
5.60435e-05
6.88506e-05
6.62135e-05
6.60287e-05
6.74237e-05
6.00576e-05
7.18567e-05
5.85442e-05
6.93002e-05
6.69218e-05
6.56521e-05
5.72304e-05
7.08571e-05
6.88846e-05
5.83453e-05
6.11722e-05
6.55741e-05
6.47618e-05
6.8516e-05
5.39254e-05
6.82355e-05
6.48127e-05
6.69756e-05
6.31332e-05
6.27348e-05
6.25886e-05
5.45272e-05
7.15955e-05
6.65234e-05
3.44132e-05
5.81567e-05
6.68621e-05
7.16229e-05
7.01001e-05
5.92539e-05
5.8031e-05
7.10424e-05
5.7373e-05
7.01153e-05
7.1812e-05
6.84524e-05
5.89953e-05
7.10026e-05
5.64781e-05
5.51968e-05
5.52281e-05
6.92743e-05
6.57474e-05
6.4286e-05
7.23352e-05
6.93583e-05
6.76723e-05
5.92761e-05
5.34118e-05
7.26562e-05
6.68337e-05
7.31551e-05
7.0602e-05
5.7947e-05
6.57178e-05
6.68263e-05
6.34162e-05
6.63156e-05
6.32582e-05
6.50955e-05
7.54867e-05
6.76249e-05
6.41384e-05
5.73208e-05
6.86214e-05
6.58047e-05
6.9839e-05
6.46453e-05
5.68934e-05
5.87023e-05
6.88081e-05
6.92513e-05
6.29288e-05
7.03154e-05
6.25478e-05
6.88294e-05