/*--------------------------------*- C++ -*----------------------------------*\
| =========                 |                                                 |
| \\      /  F ield         | OpenFOAM: The Open Source CFD Toolbox           |
|  \\    /   O peration     | Version:  2212                                  |
|   \\  /    A nd           | Website:  www.openfoam.com                      |
|    \\/     M anipulation  |                                                 |
\*---------------------------------------------------------------------------*/
FoamFile
{
    version     2.0;
    format      ascii;
    arch        "LSB;label=32;scalar=64";
    class       volScalarField;
    location    "0.022";
    object      p;
}
// * * * * * * * * * * * * * * * * * * * * * * * * * * * * * * * * * * * * * //

dimensions      [0 2 -2 0 0 0 0];

internalField   nonuniform List<scalar> 
31639
(
0.0154195
0.0107652
0.0176558
0.00790579
0.0108539
0.0151673
0.0169288
0.0161491
0.0114987
0.00980556
0.0168443
0.0109441
0.0113629
0.0147808
0.0128864
0.0180328
0.0208917
0.0213842
0.00352361
0.0164155
0.0119423
0.00923604
0.0125923
0.00779553
0.0135008
0.0159774
0.015551
0.0489745
0.0162376
0.0161972
0.00870966
0.0230813
0.0115227
0.00627121
0.0280539
0.0161462
0.0092943
0.0167942
0.0167933
0.0137663
0.0110297
0.0157424
0.0123316
0.0171171
0.0176169
0.00738592
0.0110279
0.008738
0.0188371
0.00793142
0.00732592
0.00590326
0.028476
0.0174568
0.00573232
0.0213578
0.00941442
0.0156243
0.0107837
0.00751708
0.00827607
0.0158035
0.0130824
0.0160834
0.0283034
0.00464598
0.00285597
0.00900438
0.0111438
0.00698068
0.00997911
0.0210542
0.00970518
0.00415926
0.0286635
0.0228171
0.00995391
0.00922705
0.0106925
0.010083
0.0153668
0.0147315
0.0145131
0.00811645
0.0143693
0.0133385
0.012385
0.00872121
0.00278978
0.0115958
0.00660149
0.020936
0.00774968
0.0103167
0.00493858
0.0155296
0.00841858
0.0059478
0.0112565
0.0149068
0.0264946
0.0265011
0.0135214
0.0102984
0.0057284
0.00716265
0.0150934
0.00762257
0.0087924
0.0136727
0.0168741
0.0147561
0.0157483
0.00928649
0.00414298
0.0164474
0.0281204
0.0174059
0.0266272
0.00830838
0.0233008
0.00720336
0.003734
0.00792547
0.0150533
0.0147467
0.0106762
0.00803614
0.00980034
0.0118709
0.0278862
0.00123356
0.0178346
0.00420542
0.00503169
0.00898634
0.00940013
0.0102999
0.00738644
0.00824705
0.00818948
0.0121298
0.0132115
0.00757677
0.0110562
0.0143857
0.0268247
0.00937566
0.0138934
0.0286367
0.00842722
0.0192378
0.00604002
0.00542452
0.00704211
0.00541346
0.00396565
0.00991232
0.0188137
0.00892614
0.00492362
0.0210917
0.00945938
0.0156995
0.0224334
0.0225057
0.0174787
0.0196424
0.00618316
0.00430824
0.0199651
0.0148146
0.020011
0.0114785
0.0142601
0.00965298
0.0129109
0.0231992
0.00902043
0.013603
0.0113194
0.018567
0.0158028
0.0164517
0.0165328
0.0160853
0.019375
0.0135963
0.0148157
0.0183129
0.0186323
0.00978878
0.0189269
0.00580506
0.00657776
0.00686383
0.00661399
0.0104929
0.00676036
0.0166683
0.0140325
0.0212023
0.0185875
0.0196449
0.00960761
0.00804707
0.00336765
0.00570814
0.0236607
0.00649507
0.0064549
0.0137738
0.0266473
0.0142796
0.0171707
0.0144012
0.0144666
0.0143735
0.020106
0.0108165
0.0111935
0.0137271
0.0145317
0.0201341
0.0175192
0.0100134
0.0181114
0.0176812
0.0125483
0.0229639
0.00607438
0.0166273
0.0210962
0.0182889
0.0188144
0.00323354
0.00298782
0.0191548
0.0157778
0.00571905
0.00814745
0.017277
0.02006
0.0188582
0.00834972
0.0216209
0.00640838
0.0223913
0.0182581
0.00327677
0.000947721
0.00739004
0.0187181
0.0214897
0.0104421
0.0111856
0.0156285
0.00484717
0.0154381
0.0178547
0.00747859
0.00602243
0.0104717
0.0147875
0.0106213
0.0143345
0.00239101
0.0271441
0.0170188
0.0152519
0.0347355
0.0070979
0.0155401
0.0192275
0.00926527
0.0181581
0.00661791
0.0201921
0.00899187
0.00740157
0.0226103
0.0232432
0.0231273
0.0306612
0.0165822
0.0166169
0.0202285
0.0193151
0.00369537
0.0185958
0.0207209
0.00167482
0.00600991
0.00604607
0.0175532
0.00519546
0.0209984
0.00282085
0.00828564
0.00954498
0.00886217
0.0201247
0.00640805
0.0057845
0.0128483
0.00516993
0.014681
0.00343141
0.0124123
0.0202541
0.00857898
0.0338646
0.0271363
0.0120428
0.0110975
0.0155881
0.00299585
0.0234292
0.0181636
0.0178588
0.0171713
0.00719131
0.0261804
0.00536528
0.014117
0.019174
0.0172252
0.0193422
0.00623566
0.00722057
0.00748936
0.0078946
0.0204429
0.00591148
0.0211809
0.028184
0.0288456
0.00895112
0.0196555
0.0220897
0.00503695
0.00247604
0.0215152
0.0045359
0.00646063
0.0199673
0.00550271
0.0176292
0.0174366
0.02623
0.00984208
0.0201481
0.00984062
0.0186347
0.00572695
0.0075413
0.00640311
0.0128975
0.0131179
0.0192624
0.0211717
0.0130352
0.0337595
0.00370656
0.00903788
0.00817824
0.00439046
0.0130322
0.0139536
0.0193578
0.012673
0.0236754
0.0148469
0.00698244
0.00471375
0.00786273
0.0271831
0.0227164
0.0190266
0.0237241
0.017997
0.00589962
0.0088076
0.00589115
0.00541942
0.00514505
0.00632412
0.0108976
0.000625537
0.021668
0.0032466
0.0240336
0.00640915
0.0200974
0.00559548
0.020558
0.0217748
0.0164679
0.00791007
0.0318387
0.0213738
0.0167933
0.0161042
0.00540927
0.0189482
0.00296237
0.00838102
0.00847487
0.0087744
0.016548
0.00727109
0.00850748
0.0188014
0.0349012
0.0173042
0.0190021
0.0139303
0.0148778
0.0133457
0.0110923
0.0107017
0.0262103
0.0127058
0.00114943
0.0189167
0.0344557
0.0122877
0.0256816
0.0148297
0.0176405
0.00775772
0.00640254
0.0201295
0.00732954
0.0160737
0.0160992
0.0196004
0.00482607
0.00594787
0.0209338
0.00888606
0.00315848
0.00378118
0.0144981
0.0050373
0.00901409
0.00949226
0.0219137
0.0214559
0.023196
0.0218711
0.0190745
0.00929896
0.0195222
0.00880832
0.0208194
0.0233599
0.00724895
0.0191454
0.00807322
0.0157443
0.0225021
0.0149073
0.00403043
0.0184104
0.051197
0.00400107
0.0120472
0.00817962
0.0178737
0.00230458
0.00623743
0.00742321
0.00619087
0.019532
0.00159028
0.0124399
0.0252425
0.0111436
0.0129322
0.00751263
0.0274077
0.00484786
0.010218
0.026231
0.0337264
0.0122593
0.0175405
0.0142929
0.00953076
0.00740474
0.00569311
0.0229993
0.00269142
0.0152178
0.0146268
0.0138333
0.00417523
0.00633439
0.0221196
0.024987
0.00325926
0.00367101
0.00411059
0.00242151
0.0294933
0.00850362
0.0035357
0.0235612
0.0261976
0.0234211
0.00497944
0.0211042
0.0196378
0.0223041
0.00254128
0.0262026
0.0262754
-0.00034531
0.0227455
0.0219683
0.0228745
0.0145785
0.0244192
0.00111138
0.00401342
0.022186
0.00333788
0.0040475
0.00683059
0.0165823
0.0112068
0.0205006
0.00138414
0.00733502
0.0117652
0.0246644
0.00159068
0.0195252
0.00302479
0.0340931
0.0344969
0.00816467
0.0492761
0.00838911
0.00836101
0.013593
0.0139453
0.00965286
0.0132657
0.0354617
0.00975919
0.0191851
0.000818354
0.00870604
0.0134782
0.0076561
0.0218935
0.00167856
0.00526288
0.0132111
0.00475467
0.0119868
0.0122222
0.00659606
0.0276384
0.00479922
0.003425
0.00058044
0.0153915
0.025161
0.00380629
0.000811846
0.00465073
0.00516647
0.00401052
0.0234201
1.11717e-05
0.00161563
0.00112206
0.0210199
0.00265697
0.0220418
0.0225508
0.0235015
0.00693616
0.000128133
0.000416309
0.0035801
0.00106938
0.0144605
0.00126103
0.0144396
0.022898
0.00196139
0.00841666
0.0112931
0.0274779
0.0253988
0.0199389
0.00958246
0.00460381
0.0264011
0.0227215
0.00215171
0.00234968
0.00983569
0.0165919
0.00684783
0.0015242
0.000157657
0.00116221
0.0219555
0.0183645
0.00844333
0.0504067
0.0180899
0.014048
0.00974837
0.0151611
0.0194921
0.0193556
0.0135355
0.00865353
0.010875
0.0112549
0.0183999
0.00422554
0.0131908
0.00157718
0.0143881
0.033436
0.0232322
0.0214848
0.0159556
0.0126401
0.0304357
0.0142023
0.0170114
0.00752387
0.0269962
0.0254724
0.00376136
0.0139647
0.0158454
0.000318987
0.0309149
0.00853071
0.00146191
0.00416249
0.00237979
0.0274661
0.0250805
0.02559
0.00386976
0.000177359
0.0217113
0.0146368
0.0229201
0.0236505
0.0236377
0.00153847
0.000133265
0.0224904
0.01955
0.0201736
0.0236911
0.00134817
0.00849887
0.0346961
0.00493033
0.00276968
0.0243375
0.0137918
0.00585553
0.0221806
0.0218446
0.0177561
0.0103136
0.00683449
0.016159
0.00930231
0.000519651
0.000908733
0.00183351
0.00686648
0.00262809
0.0275106
0.00983608
0.000759502
0.000831258
0.0210689
0.007475
0.000946192
0.0510424
0.00692281
0.00828542
0.0111122
0.0125541
0.0106578
0.0136041
0.0128786
0.00863154
0.0099129
0.0143098
0.009099
0.00850695
0.00965967
0.0127598
0.02426
0.013774
0.0130186
0.0213101
0.0275424
0.0232112
0.00652629
0.0128066
0.00370188
0.0144904
0.0284172
0.00109702
0.00265782
0.00237951
0.00739184
0.00855985
0.0211508
0.0201959
0.00605213
0.00249702
0.0165141
0.0273889
0.000724568
0.0225378
0.00895367
0.0207221
0.0191001
0.0200379
0.0259007
0.0241358
0.0310684
0.022041
0.0184874
0.0230447
0.020753
0.0214525
0.00774046
0.0270002
0.00761463
0.00202002
0.00508496
0.0209489
0.000151665
0.0174048
0.00412308
0.005757
0.0174325
0.010494
0.0260165
0.00488146
0.0182635
0.00592487
0.0299755
0.00866441
0.000899643
0.00128175
0.0244977
0.0163759
0.00110659
0.00272142
0.00160242
0.00526441
0.000724384
0.000374577
0.0206449
0.0199592
0.000300992
0.0200475
0.0177568
0.0214301
0.0117719
0.0116769
0.00942872
0.0150981
0.0157792
0.00738533
0.00119172
0.0138361
0.0189208
0.0139953
0.0259547
0.0231784
0.0138603
0.02246
0.00860346
0.0347803
0.00408258
0.0227508
0.0136116
0.000160609
0.015478
0.00396183
0.0082254
0.003455
0.00349278
0.0174411
0.0246513
0.00608467
0.0218512
0.00100543
0.00111564
0.00102522
0.0287203
0.0288686
0.02746
0.0295545
0.0243952
0.0225322
0.00759685
0.00496223
0.00838566
0.00221762
0.0160946
0.00722372
0.0189773
0.0105014
0.00840754
0.00264177
-0.000106473
0.00615162
0.00328512
0.0256224
0.0111733
0.00604859
0.00579438
0.0107475
0.00109968
0.0180088
0.0058701
0.0225433
0.00435815
0.00297194
0.0148532
0.0147953
0.0228932
0.0272562
0.0239228
0.0182527
0.0103033
0.0111698
0.0216719
0.000207794
0.0011647
0.0213268
0.0217834
-9.94173e-05
0.000520682
0.00311866
0.0214918
0.00571505
0.0130861
0.0277303
0.0269793
0.0137909
0.0323349
0.0104277
0.00904195
0.00930413
0.00603716
0.00375309
0.0226288
0.00384296
0.013855
0.0167671
0.0255447
0.00807823
0.00928941
0.00887901
0.0205511
0.0208102
0.0208976
0.029625
0.00278174
0.024021
0.0237054
0.0241937
0.0131479
0.000500363
0.0283693
0.0292749
0.0269861
0.0159356
0.0168386
0.0184121
0.0171685
0.0204114
0.0157259
0.000614211
0.0215211
0.0100256
0.00690025
0.0218744
0.0016666
0.000995819
0.00382833
0.00357819
0.0262168
0.0105696
0.00390681
0.00542448
0.00951882
0.0194078
0.00912675
0.00839046
0.017538
0.0122862
0.00038768
0.0225761
0.0143168
0.0236892
0.0119873
0.00249641
0.0184039
0.0182745
0.000907839
0.0105625
0.00985253
0.000774075
0.000926544
0.0223686
0.0256956
0.0103882
0.0133786
0.00156812
0.0238003
0.0296232
0.0248119
0.0171428
0.00803556
0.0231099
0.0175299
0.00931569
0.0129062
0.00720115
0.00729922
0.0116297
0.0220111
0.00400914
0.0144025
0.00912778
0.008242
0.000284898
0.024575
0.00968367
0.0253815
0.00703521
0.0207916
0.024045
0.0119557
0.0120369
0.0250577
0.0202957
0.0227947
0.00886398
0.0102789
0.0201735
0.0192742
0.0152804
0.0161666
0.0234916
0.0240536
0.0315939
0.0186233
0.0210087
0.00136778
0.000938791
0.021521
0.0196509
0.0101036
0.0233134
0.00337531
0.0164786
0.0183362
0.0229748
0.00285576
0.0235788
0.0214477
0.0255614
0.0242662
0.025394
0.0120226
0.0218312
0.00971144
0.0167492
0.0162991
0.0154854
0.0263815
0.0244527
0.0236745
0.0200283
0.010894
0.0141998
0.0156314
0.0240432
0.0154411
9.47035e-05
0.02506
0.0275617
0.0130321
0.0110483
0.00462136
0.00337399
0.00918949
0.024288
0.00763486
0.00818727
0.0298678
0.0122339
0.00456882
0.00628962
0.000572466
0.0116621
0.0132211
0.0120168
0.0223575
0.00084701
0.025907
0.00230157
0.025199
0.0243528
0.0297195
0.0115072
0.0118007
0.0100942
0.0188774
0.0167708
0.0196991
0.0302571
0.0220495
0.0233745
0.0154419
0.018808
0.0111781
0.0197437
0.0171525
0.00375407
0.00336743
0.0138717
0.00115291
0.00988609
0.0260805
0.027467
0.00505179
0.0252647
0.0164739
0.0265492
0.0145467
0.0149809
0.00204289
0.00111311
0.0193415
0.0174644
0.00846063
0.0111265
0.0104923
0.0162104
0.0112321
0.0219179
0.0235143
0.0300691
0.0231455
0.0250017
0.0151737
0.0106937
0.0125015
0.00112204
0.00213699
0.00412011
0.0110153
0.00992432
0.0174137
0.0102571
0.0183341
0.0207524
0.0229813
0.010635
0.00664925
0.0308191
0.0161616
0.0275151
0.0271628
0.0121492
0.0277605
0.00286003
0.0233137
0.00703018
0.013275
0.00530919
0.0102835
0.0114685
0.0263289
0.0267403
0.000826875
0.0240981
0.0286843
0.0328508
0.010733
0.0202608
0.0232496
0.0236299
0.00954904
0.010293
0.0219029
0.0331164
0.0218152
0.00405232
0.0193035
0.0323996
0.0187587
0.0186005
0.0179856
0.00893786
0.0271706
0.0234602
0.0274015
0.00243011
0.0195072
0.00165667
0.01622
0.022999
0.00492716
0.0231129
0.00709965
0.0220112
0.0299348
0.0129767
0.000677405
0.0146201
0.0157254
0.000902218
0.00971418
0.00989435
0.0155091
0.01133
0.0315275
0.0252389
0.00995334
0.00983841
0.024441
0.0137652
0.0232398
0.030606
0.0236848
0.000869853
0.000834315
0.025053
0.0217512
0.0152862
0.0169656
0.019472
0.0161138
0.0167463
0.027319
0.0240063
0.0288188
0.0216403
0.018965
0.00273352
0.0277614
0.00366708
0.0105314
0.0259308
0.0277518
0.02243
0.0117611
0.010496
0.000587162
0.0242839
0.0150977
0.0257113
0.0141694
0.0271994
0.0288349
0.0182285
0.0194627
0.0116624
0.00570408
0.0314435
0.0150369
0.0193005
0.0149806
0.0138546
0.0200258
0.0318348
0.0184284
0.017349
0.0342301
0.0030079
0.026892
0.0166266
0.0331116
0.0172161
0.0138659
0.0267243
0.0273277
0.0049504
0.0102829
0.00573784
0.0070302
0.0236345
0.0125781
0.013653
0.000592797
0.0109424
0.0396535
0.0112079
0.0117487
0.0161698
0.0166867
0.0157917
0.024901
0.025509
0.0185063
0.00991797
0.0252741
0.0142176
0.0261885
0.0234584
0.0236462
0.0260832
0.0266445
0.0244958
0.00939044
0.000807773
0.0279437
0.00849986
0.02944
0.0327967
0.0307252
0.0112355
0.0280763
0.0188603
0.00302943
0.00248797
0.00413757
0.0250992
0.0260203
0.0258353
0.0239832
0.0286132
0.0117047
0.00974297
0.0262757
0.0291657
0.0139264
0.0258953
0.0278009
0.0184649
0.0107439
0.0315915
0.0282078
0.0243039
0.019735
0.0251807
0.0205797
0.0271448
0.00230941
0.020444
0.0242965
0.0278062
0.0198989
0.0263846
0.0132718
0.0332688
0.0208032
0.00281352
0.0252121
0.0060735
0.000198681
0.00573861
0.0198735
0.0169178
0.0196385
0.0251758
0.0273711
0.0104306
0.0216922
0.0124109
0.0169008
0.0159691
0.0157617
0.00970761
0.0257439
0.0173137
0.0179267
0.025529
0.0179551
0.00897067
0.00861733
0.0180258
0.0189149
0.0172239
0.0240026
0.0245385
0.00143961
0.0169823
0.0255447
0.0244059
0.0176658
0.0180459
0.0148554
0.018426
0.0321819
0.0016033
0.00887419
0.02681
0.00417221
0.011862
0.012822
0.0122448
0.0298806
0.0316623
0.00398418
0.0323737
0.0287951
0.0206657
0.020617
0.0292652
0.0213535
0.0270754
0.025412
0.00514081
0.0113459
0.0307973
0.000576764
0.000879582
0.0294076
0.0274305
0.00478755
0.0290969
0.0214017
0.0188127
0.0122186
0.0276184
0.0269841
0.00983552
0.025549
0.0237584
0.0209157
0.0186831
0.00118252
0.00202714
0.00140861
0.0215129
0.0246851
0.0159006
0.0281024
0.0311003
0.0153731
0.0136631
0.00960773
0.00575496
0.0340496
0.000169532
0.00393082
0.0123149
0.00152258
0.000362337
0.000671744
0.0131308
0.00963195
0.00121928
0.0423635
0.0267571
0.0202924
0.0313309
0.0175161
0.0336006
0.00551354
0.0108402
0.0113245
0.0323436
0.0324052
0.017567
0.0092139
0.0184505
0.0166572
0.0217548
0.0201853
0.0210321
0.0245912
0.00185972
0.0262224
0.0264956
0.0267086
0.0259791
0.021812
0.0215103
0.0165772
0.0152531
0.0279219
0.0242308
0.00786217
0.00614947
0.0164555
0.0235285
0.0313878
0.00765999
0.00884211
0.00919175
0.0234348
0.029611
0.031164
0.0305658
0.00251819
0.0015254
0.0291065
0.000948435
0.0286135
0.0297732
0.00606237
0.00839822
0.0037744
0.0278455
0.0106093
0.0244618
0.0192232
0.0193622
0.0300589
0.0306232
0.0138184
0.0336265
0.033289
0.0226902
0.0208576
0.000148301
0.000842143
0.0231606
0.020982
0.0253601
0.0328998
0.0500149
0.0335448
0.0264275
0.033541
0.0266113
0.00334169
0.0245537
0.0283004
0.00385631
0.0265298
0.00651464
0.000759899
0.0260122
0.000950177
0.0121711
0.0132168
0.0130758
0.012052
0.000591921
0.00259175
0.00834694
0.0318494
0.0296652
0.0215557
0.0128449
0.0162253
0.0102725
0.0129122
0.00953482
0.0124783
0.0122281
0.0110464
0.0227806
0.0195219
0.0261689
0.0193916
0.0262073
0.00186799
0.025655
0.00137821
0.0338771
0.0264615
0.0173162
0.0218031
0.010617
0.0138968
0.00484423
0.00358717
0.00851893
0.00575779
0.0157046
0.0256562
0.0120338
0.020133
0.018366
0.00726741
0.0180892
0.0317498
0.00180016
0.00411429
0.00173305
0.020974
0.0298599
0.0241723
0.00784955
0.00622526
0.0294007
0.00382204
0.0295265
0.0279788
0.0509288
0.0296492
0.0293147
0.0334832
0.0313674
0.0301811
0.0235401
0.00608335
0.0243474
0.00579678
0.0249464
0.0258419
3.11108e-05
0.03155
0.0147677
0.00296003
0.0247849
0.0311862
0.0244305
0.0280182
0.0244355
0.0123947
0.0151425
0.023515
0.0265479
0.029025
0.0311445
0.000972529
0.00415258
0.0198731
0.0262949
0.0246771
0.0218756
0.0229835
0.00169353
0.0218907
0.0118248
0.0124182
0.01207
0.0105331
0.0139815
0.0168348
0.000718635
0.0268188
0.0279359
0.0236309
0.00157482
0.0277705
0.0169114
0.0178051
0.0201127
0.0209815
0.0244753
0.0191546
0.0431166
0.0049497
0.0174503
0.0271132
0.0209378
0.0209538
0.0040898
0.0190878
0.0297489
0.0334739
0.0245159
0.0112723
0.0288934
0.0103547
0.0192912
0.0307608
0.0324745
0.019311
0.0327982
0.0324898
0.0323003
0.0301031
0.0203987
0.0313255
0.029631
0.0259545
0.0116752
0.0234002
0.00924263
0.00259799
0.0239999
0.00760786
0.0305177
0.0310919
0.0303008
0.028202
0.0179089
0.0283864
0.0320542
0.010063
0.00708307
0.013929
0.0343793
0.023444
0.022558
0.00583005
0.005095
0.0270631
0.0017379
0.0164762
0.0336803
0.0289396
0.0246917
0.0254599
0.0153101
0.0135342
0.00360482
0.026209
0.000408321
0.00958873
0.0293271
0.00133253
0.00366928
0.00566863
0.00750403
0.00441619
0.0207537
0.0232271
0.0271163
0.0178206
0.0109764
0.0392401
0.0109272
0.012631
0.013449
0.0282501
0.0255191
0.0320237
0.0288747
0.00910564
0.0161258
0.0157033
0.015675
0.0182795
0.0221549
0.0222361
0.0258553
0.024639
0.022964
0.0169199
0.0125842
0.0128127
0.00317249
0.0243037
0.0289134
0.010372
0.00429367
0.0434375
0.016413
0.0296647
0.0199723
0.0300581
0.0360673
0.023329
0.0105115
0.00894419
0.0192613
0.0319645
0.030608
0.00793941
0.0339743
0.000358648
-0.000188221
0.0293138
0.0326769
0.0163769
0.0135538
0.0274199
0.00707098
0.030616
0.0329959
0.0133141
0.0269588
0.0280412
0.0417023
0.00757693
0.031603
0.0185736
0.0193489
0.0265899
0.0316858
0.00364217
0.0248299
0.0339352
0.0330526
0.0353448
0.0076148
0.0277353
0.0270205
0.00391627
0.0219144
0.0316454
0.0226657
0.00324515
0.00987285
0.0209278
0.00687133
0.022927
0.00980743
0.000861258
0.00111119
0.0139782
0.00402325
0.0301255
0.017644
0.00778449
0.0135106
0.031272
0.0313281
0.0277312
0.0290097
0.0307941
0.0177935
0.00323014
0.00670623
0.0154144
0.0262696
0.0263518
0.0270633
0.0273899
0.018794
0.0183889
0.0166451
0.022803
0.0202638
0.0203878
0.0219866
0.0332787
0.0240067
0.0263367
0.0224892
0.0249378
0.024659
0.0125184
0.0241976
0.0189705
0.0117377
0.0170403
0.038443
0.0191901
0.0428202
0.0252947
0.0073989
0.0114552
0.0222531
0.0363588
0.0204713
0.0193248
0.00872394
0.0254226
0.000868995
0.00222898
0.00044144
0.031592
0.0313637
0.0318359
0.0164076
0.0344246
0.00616161
0.0326481
0.0330793
0.0317875
0.00336774
0.0363091
0.0320788
0.00249514
0.0339669
0.0193394
0.0202617
0.0190694
0.0264637
0.0287506
0.0235995
0.0248425
0.026241
0.0163164
0.0157385
0.00409221
0.0330631
0.0260253
0.0297609
0.0227026
0.0289362
0.0323745
0.0120676
0.0311172
0.0032236
0.0232531
0.0110408
0.00129694
0.000219834
0.0140376
0.029103
0.0110461
0.0265783
0.0270218
0.00914811
0.0283781
0.0106545
0.0340856
0.0270169
0.0336048
0.0253384
0.0138063
0.0267568
0.0279963
0.0310843
0.00720872
0.027548
0.0275276
0.0288717
0.0310664
0.0221863
0.0292842
0.0236187
0.00323287
0.0280584
0.00716614
0.0209967
0.0221382
0.0152218
0.0242494
0.0366729
0.0185612
0.017171
0.0180744
0.0125956
0.0235246
0.00879144
0.0156714
0.0288216
0.0137257
0.0271863
0.00819573
0.029095
0.0242769
0.00761713
0.0205803
0.030297
0.0080391
0.0238793
0.0157244
0.0021681
0.000283586
0.00221222
0.0304302
0.0199985
0.0227959
0.0173998
0.0170543
0.030531
0.0331218
0.0320361
0.0243339
0.0315662
0.0257978
0.033403
0.0175779
0.0340334
0.0338149
0.03379
0.0327145
0.0318347
0.00385193
0.0267264
0.0318948
0.0243783
0.0220038
0.0354899
0.0319428
0.0160966
0.0331648
0.00338285
0.0301481
0.0314881
0.0220551
0.0210253
0.0285325
0.0298298
0.028424
0.00143817
0.0332272
0.0250781
0.00950428
0.000545873
0.0328909
0.0101543
0.00427865
0.00278701
0.000395946
0.0235702
0.00754615
0.0395941
0.0120466
0.0283098
0.0152054
0.0115408
0.0165733
0.027682
0.0118772
0.0327846
0.0273116
0.016091
0.0307334
0.0274498
0.0236014
0.0368444
0.0248995
0.0316328
0.0203764
0.034133
0.0202609
0.0201221
0.00428147
0.0255761
0.0242489
0.0257296
0.0295937
0.0216988
0.0342413
0.025629
0.0249049
0.0035195
0.00771817
0.0343987
0.018134
0.00676405
0.0182865
0.0454254
0.0110567
0.0355408
0.00830272
0.00161422
0.0136885
0.0142234
0.012657
0.0235363
0.00732859
0.0219403
0.0274397
0.0196426
0.0066067
0.00717281
0.0321786
0.00206023
0.0239787
0.0223077
0.0148457
0.0300416
0.0358434
0.0156332
0.0300004
0.0280748
0.0248757
0.000511148
0.0242456
0.0270867
0.0320076
0.0327194
0.0369738
0.0343015
0.00430633
0.00286803
0.0346321
0.00419291
0.0310703
0.0332655
0.0308483
0.00672849
0.0379805
0.0146484
0.0275535
0.0330802
0.0298585
0.0307466
0.0295285
0.0281153
0.0257324
0.0151476
0.0282255
0.0213426
0.00250787
0.0140152
0.0308726
0.0280847
0.036422
0.0384335
0.00198937
0.0200773
0.0033009
0.0062885
0.0323366
0.00622374
0.00531755
0.0339671
0.00786006
0.0132454
0.0196043
0.0327372
0.000361913
0.0320502
0.02759
0.0152669
0.0315288
0.033526
0.0173929
0.0315922
0.025606
0.0339725
0.0315164
0.0310053
0.0228974
0.0351463
0.0244857
0.0071693
0.0075498
0.0341307
0.0254211
0.0312055
0.037913
0.0280665
0.0299384
0.0373777
0.0075218
0.0339646
0.0331643
0.0340857
0.0187281
0.0491051
0.00578568
0.00968101
0.0151577
0.0139887
0.0368357
0.0111582
0.0270596
0.0214799
0.0224267
0.0209808
0.00768819
0.0138532
0.00900826
0.0320289
0.00153577
0.0341063
0.0347335
0.0352157
0.0166566
0.0291986
0.0436481
0.0271193
0.00246795
0.0311952
0.0105752
0.013174
0.0358878
0.0168618
0.0354408
0.036036
0.0241116
0.00391611
0.0319634
0.0307228
0.0318403
0.0237168
0.0314697
0.031432
0.0303608
0.0267975
0.0275947
0.0283984
0.0285409
0.0234873
0.0218838
0.00219085
0.0327514
0.0198484
0.0212425
0.0231835
0.0118303
0.00994654
0.0394768
0.0306974
0.0281103
0.0357801
0.0370023
0.0139331
0.00573361
0.00962822
0.0387253
0.0199854
0.0102385
0.0330943
0.0086911
0.0288437
0.0166061
0.00733619
0.00701211
0.0271052
0.0157928
0.0296952
0.00123303
0.0261734
0.0027761
0.0283351
0.0162629
0.0236943
0.0242948
0.0230486
0.0298063
0.0288951
0.0325482
0.0101037
0.04459
0.0430141
0.0377548
0.0259555
0.0256982
0.0200482
0.0271861
0.0303842
0.0319331
0.0364992
0.00013563
0.0142395
0.0157456
0.0482376
0.0326838
0.00407932
0.0336335
0.00418736
0.0192254
0.0220526
0.0135222
0.00987368
0.0379479
0.0306866
0.0105093
0.0207262
0.0391718
0.013397
0.00830102
0.000707979
0.0191475
0.00287192
0.0352533
0.00836171
0.0374164
0.0445005
0.0114309
0.0311783
0.000426862
0.000453792
0.010884
0.0361244
0.0360884
0.0343997
0.0305252
0.00231464
0.0235529
0.0504932
0.0225968
0.0303591
0.028951
0.0300772
0.0305012
0.0241666
0.0334419
0.0295965
0.0104541
0.00259563
0.0029225
0.00293005
0.028399
0.0317474
0.0178242
0.0316942
0.00754097
0.00780991
0.0088742
0.0273576
0.0370052
0.0365179
0.0383382
0.021647
0.0108381
0.0336173
0.0102576
0.027192
0.0295037
0.0305867
0.0167001
0.0335706
0.0152415
0.0278234
0.0288951
0.027641
0.0146531
0.0207545
0.0513872
0.012967
0.00333181
0.0263616
0.0225631
0.0281231
0.0182195
0.0212145
0.0228719
0.0244074
0.0201999
0.0294289
0.0427098
0.0219157
0.0330505
0.0152726
0.0270939
0.0206701
0.0261396
0.0283967
0.0268428
0.0362117
0.00519634
0.0355421
0.0235151
0.00114185
0.0154652
0.0372854
0.0333679
0.0197826
0.00471631
0.0301558
0.0109604
0.0383521
0.0110065
0.0312162
0.0295273
0.0348047
0.0263587
0.0320775
0.0219075
0.00370938
0.0287234
0.00333632
0.0349062
0.000351177
0.00118413
0.00736375
0.00269891
0.0238958
0.00127529
0.0386825
0.038952
0.032687
0.033642
0.0366507
0.036697
0.0354732
0.0359618
0.0100962
0.0391344
0.0353369
0.00784824
0.0334849
0.0412145
0.0231321
0.000146725
0.032248
0.0350777
0.0301524
0.0281062
0.0316974
0.0377343
0.00361784
0.0332174
0.0016543
0.000911953
0.000127763
0.028927
0.0204883
0.0089633
0.0168342
0.0329029
0.0484426
0.0230689
0.03006
0.0308565
0.0375254
0.00303832
0.0509676
0.0345918
0.0101027
0.0245934
0.0119804
0.0258298
0.0318233
0.0121967
0.0341359
0.0265761
0.0144733
0.0226822
0.0139238
0.028045
0.0225676
0.0359407
0.0369228
0.0106092
0.0192477
0.0232922
0.0227509
0.0308335
0.0434962
0.0157911
0.0307335
0.0234808
0.0155568
0.0199554
0.0392307
0.0220457
0.0202851
-0.000120959
0.0416641
0.0408597
0.00134309
0.0336309
0.00260762
0.0253212
0.0385228
0.00578499
0.0357638
0.0357151
0.0379814
0.0364428
0.0292752
0.0300904
0.0328746
0.00900693
0.0316641
0.0110618
0.00298051
0.0168375
0.00457234
0.0300334
0.0325707
0.0139507
0.0139464
0.0170046
0.0381128
0.00433947
0.0325357
0.0194491
0.0376237
0.0266559
0.0368083
0.0354733
0.0396799
0.0352433
0.0016612
0.0234494
0.0350855
0.0244843
0.0319069
0.0307782
0.00654012
0.0370018
0.028054
0.0387747
0.000113951
0.0352869
0.00896733
0.0190403
0.00257281
0.0300499
0.0291346
0.0456016
0.0278403
0.00935973
0.0345173
0.0329511
0.00102714
0.000710745
0.0449579
0.0308088
0.0107884
0.0499415
0.0123653
0.0194681
0.0336339
0.000460456
0.00391963
0.0509264
0.00985522
0.0147411
0.0145711
0.0239848
0.0328781
0.0190193
0.0138634
0.0336264
0.037824
0.0349962
0.0326451
0.0192356
0.0329183
0.023124
0.0142188
0.0290101
0.0285869
0.0231993
0.0262495
0.01908
0.0179265
0.0332187
0.0341495
0.0346142
0.0288418
0.0409537
0.0278369
0.028885
0.0271613
0.0285038
0.0344531
0.0247933
0.00557713
0.0375002
0.0363261
0.0338648
0.00581471
0.032302
0.0281009
0.0314833
0.028661
0.0384725
0.0336577
0.00445896
0.0136544
0.0380557
0.0383829
0.0414501
0.00374667
0.0185573
0.0130507
0.035448
0.0342916
0.0367609
0.0411096
0.0414936
0.035645
0.0407227
0.0351444
0.0345888
0.0222454
0.03672
0.0311071
0.0407387
0.0491437
0.0308189
0.0288107
0.0508435
0.0254613
0.0181738
0.037945
0.0209288
0.0406919
0.00118067
0.0316369
0.0195851
0.0469147
0.0305053
0.0290628
0.0387632
0.0186879
0.0012641
0.0171838
0.0472321
0.000360554
-0.000147231
0.0311946
0.012226
0.0131652
0.0129649
0.0093225
0.00792139
0.00884265
0.00717985
0.0139671
0.0361915
0.0405501
0.00417322
0.0365229
0.0323941
0.00329135
0.0306367
0.0374488
0.0379583
0.0214378
0.0263536
0.0201925
0.0371491
0.0209835
0.032421
0.0288299
0.02141
0.0297861
0.0364002
0.0206457
0.0202491
0.0295436
0.0290216
0.0245892
0.0396126
0.00469209
0.0416955
0.0252815
0.0217157
0.0238622
0.037501
0.0164287
0.012683
0.0376468
0.0333731
0.0342873
0.0366654
0.046746
0.0423654
0.0378745
0.0341782
0.037338
0.0393125
0.0380544
0.0236234
0.0399858
0.0382485
0.01115
0.0342077
0.0253532
0.0399002
0.0331113
0.0392962
0.01979
0.0353539
0.0249806
0.029065
0.0367641
0.0397692
0.0108198
0.03247
0.0258169
0.0249712
0.0263569
0.0407114
0.0332773
0.0351366
0.000738776
0.029837
0.000120251
0.0349877
0.00299651
0.0479273
0.0121449
0.0248108
0.00979961
0.00945197
0.00851026
0.0321922
0.0350296
0.0240822
0.0246707
0.0321398
0.0219515
0.0367954
0.0377521
0.027434
0.0414332
0.0359122
0.0416776
0.0360969
0.0337112
0.0388314
0.0219412
0.0283976
0.0293671
0.0233397
0.00531065
0.0391688
0.0384899
0.0455615
0.0119398
0.0359672
0.0320281
0.0127632
0.0291331
0.035621
0.0310369
0.0405711
0.0385303
0.0367781
0.0400704
0.0297998
0.0382956
0.0399415
0.0386416
0.0379239
0.0316542
0.0354548
0.0280176
0.0410586
0.0343577
0.0509901
0.0502506
0.0331091
0.040588
0.0325647
0.0319977
0.0311517
0.0266147
0.0375876
0.0333232
0.0359684
0.0376119
0.0411368
0.0361812
0.030816
0.0343423
0.0344007
0.0401328
0.0332449
0.0355048
0.0378053
0.0392445
0.00283091
0.0362587
0.00388068
0.00445963
0.00490559
0.00247093
0.0357213
0.00768223
0.000849965
0.0262413
0.035436
0.0484217
0.0492747
0.0409497
0.032738
0.0401009
0.0218439
0.0450987
0.0289867
0.0318243
0.0347055
0.0375483
0.0245952
0.0370667
0.0386681
0.0280903
0.0300788
0.0386225
0.0303619
0.0445523
0.0388412
0.0430952
0.0133483
0.00242792
0.0359185
0.0355799
0.0349807
0.0432781
0.0366963
0.0440972
0.0367788
0.0396001
0.0232484
0.041179
0.0297221
0.0397326
0.0315093
0.0402237
0.0413435
0.0251907
0.0365235
0.0271223
0.0378842
0.0269996
0.0382328
0.0332306
0.0319685
0.0382292
0.0369206
0.0332641
0.0368678
0.0253025
0.0441551
0.0344641
0.0366087
0.0377974
0.0393839
0.0107815
0.0266481
0.039886
0.00395786
0.00524987
0.0407143
0.0357542
0.000631132
0.0485856
0.0323199
0.0447942
0.0351943
0.0306663
0.0306928
0.042328
0.0354339
0.0303824
0.0319845
0.0344798
0.0353793
0.0350485
0.0455546
0.038915
0.0391159
0.0263052
0.026394
0.0412139
0.0332841
0.0390023
0.0390087
0.0440231
0.0484038
0.0463713
0.0309218
0.0412043
0.0325224
0.0382719
0.0373957
0.0320387
0.0146795
0.0405831
0.0489178
0.0397692
0.0305522
0.0352073
0.0305593
0.0503568
0.0282048
0.0362004
0.0306539
0.0320943
0.0383731
0.0405719
0.032357
0.0388172
0.0380591
0.0345263
0.0394451
0.0382852
0.0382529
0.0342448
0.0411875
0.0414227
0.0406924
0.0349064
0.0401445
0.0402495
0.0398425
0.0127307
0.0407953
0.0289519
0.029924
0.0367492
0.0439612
0.029233
0.0355544
0.0412538
0.0348694
0.0356763
0.0308374
0.0462004
0.0343785
0.040426
0.0292979
0.0293749
0.0353416
0.0409288
0.0291215
0.0347768
0.0344711
0.0402602
0.0409352
0.0348314
0.0351917
0.0438777
0.0437715
0.0360256
0.0432461
0.042374
0.0381418
0.043456
0.0178018
0.0432615
0.0409207
0.0402319
0.0406613
0.0388917
0.0406335
0.0449116
0.0366724
0.0404492
0.0322808
0.0369811
0.0332705
0.0381992
0.0382078
0.0462982
0.0389336
0.0459988
0.0461345
0.0331063
0.0378042
0.0396299
0.0265993
0.034147
0.0354408
0.0354657
0.0451013
0.0392582
0.030684
0.0350075
0.0286347
0.0418009
0.0291035
0.0305087
0.0349131
0.0356626
0.0361646
0.0404633
0.0399195
0.0405097
0.0336678
0.0296737
0.0317988
0.0397329
0.0414012
0.0272447
0.0407596