/*--------------------------------*- C++ -*----------------------------------*\
| =========                 |                                                 |
| \\      /  F ield         | OpenFOAM: The Open Source CFD Toolbox           |
|  \\    /   O peration     | Version:  2212                                  |
|   \\  /    A nd           | Website:  www.openfoam.com                      |
|    \\/     M anipulation  |                                                 |
\*---------------------------------------------------------------------------*/
FoamFile
{
    version     2.0;
    format      ascii;
    arch        "LSB;label=32;scalar=64";
    class       surfaceScalarField;
    location    "0.022";
    object      phi;
}
// * * * * * * * * * * * * * * * * * * * * * * * * * * * * * * * * * * * * * //

dimensions      [0 3 -1 0 0 0 0];

oriented        oriented;

internalField   nonuniform List<scalar> 
68568
(
-1.43892e-07
1.48836e-07
-2.81596e-08
2.32154e-08
1.39116e-07
-7.09908e-08
-7.40988e-08
5.97309e-09
1.67819e-07
-1.28418e-07
-5.72473e-08
1.78464e-08
-4.31957e-09
2.20307e-09
-1.60496e-07
1.62613e-07
-1.28334e-09
1.3453e-07
9.95086e-10
-1.34242e-07
1.33197e-07
-4.80363e-10
-1.22086e-07
-1.06312e-08
7.94689e-08
-8.47581e-08
1.24058e-07
-1.18769e-07
-3.75245e-08
-2.56043e-08
1.42598e-07
1.24723e-07
-1.48613e-08
-1.05164e-07
-4.69758e-09
1.43083e-07
5.08538e-08
-5.48201e-08
9.59146e-08
1.31152e-07
-5.92475e-08
-6.14904e-08
-1.92089e-07
1.82589e-07
-1.34306e-07
6.57062e-08
-5.49923e-09
1.74161e-07
-1.79688e-07
1.32915e-08
-7.76507e-09
-6.74902e-08
-4.94366e-08
1.15816e-07
1.11072e-09
1.21834e-07
8.41203e-08
-1.24921e-07
-8.10334e-08
-4.87015e-08
-7.50945e-08
1.09771e-07
1.40249e-08
1.08076e-07
-1.12931e-07
-4.38462e-08
1.06582e-07
-4.41613e-09
-5.91063e-10
-1.01574e-07
8.21494e-08
-1.47875e-07
7.41775e-08
-8.45191e-09
1.08752e-07
-4.96053e-10
-1.0821e-07
-4.57824e-11
-1.69655e-08
8.68647e-09
1.33878e-07
-1.25599e-07
-4.38956e-08
1.8138e-07
-2.62231e-08
-1.11261e-07
-6.12215e-10
-3.37151e-10
-1.30527e-07
1.31477e-07
-7.2194e-08
-4.66647e-08
1.12258e-07
6.60102e-09
-9.3472e-08
-3.81465e-08
-1.22731e-08
-6.24553e-08
1.3635e-07
8.25471e-09
7.44629e-08
4.43466e-08
-2.84097e-08
-9.03997e-08
-6.5195e-08
-9.62784e-08
1.23949e-07
4.66189e-08
-1.15288e-07
3.47388e-09
1.46837e-07
-7.86487e-08
-1.38303e-07
7.01149e-08
-1.28907e-08
2.47389e-09
1.13158e-07
-1.02741e-07
1.50459e-07
-3.1513e-08
-1.06929e-08
-1.08253e-07
1.15484e-07
-8.87865e-08
-5.65609e-08
2.98636e-08
-2.50308e-10
1.05831e-07
-1.05582e-07
6.14379e-13
1.16929e-07
8.23108e-08
-8.25257e-08
6.4706e-10
-4.32113e-10
4.11717e-08
-1.53075e-07
8.91817e-08
2.27219e-08
-1.5626e-07
1.35792e-07
6.16398e-08
-7.17421e-08
-1.61222e-10
-2.90641e-10
-7.9243e-10
1.10524e-07
-9.7907e-10
1.08859e-07
-1.08635e-07
-4.25526e-10
2.02162e-10
-2.57187e-08
-1.52483e-07
1.14941e-07
1.86176e-07
-1.41851e-07
-1.59266e-07
-5.92034e-08
-9.95429e-08
2.8058e-07
-1.40464e-07
1.57809e-07
-1.32592e-07
1.15248e-07
-1.20072e-07
6.39083e-08
-5.32674e-09
1.10571e-07
-1.0793e-07
-3.41864e-09
7.77691e-10
9.46073e-08
2.4338e-08
1.12761e-08
-1.30221e-07
2.05345e-09
-1.47266e-07
1.42676e-07
3.30529e-08
-2.84632e-08
-8.00427e-09
-9.07931e-08
9.84442e-08
3.53166e-10
-1.73613e-07
1.32598e-07
1.76684e-07
-1.34077e-07
-3.63296e-10
-2.74523e-10
1.8673e-09
-1.54507e-09
1.04683e-07
-1.05005e-07
3.81144e-08
-1.11048e-07
-2.16078e-09
8.9093e-08
-9.52493e-08
3.61936e-09
2.53691e-09
-8.25957e-08
1.37336e-07
-6.06325e-08
5.89268e-09
1.42043e-07
-7.36465e-08
-7.17974e-08
3.4009e-09
8.8198e-08
-8.83741e-08
-4.36083e-10
-1.0779e-07
-1.7483e-09
1.11741e-07
7.28828e-08
6.88e-08
-7.41161e-09
-1.34271e-07
-5.72499e-09
1.31079e-07
-1.26079e-07
7.25031e-10
8.59184e-08
-1.45332e-07
-3.04128e-09
1.04505e-07
-1.74908e-08
3.254e-08
-1.19554e-07
1.44248e-07
-2.24336e-08
-1.6344e-07
4.1626e-08
3.93436e-08
7.87351e-08
-1.14971e-08
6.23232e-08
-1.23427e-07
6.77901e-08
-6.68661e-09
1.30422e-07
-1.31601e-07
-1.04676e-10
-9.68627e-08
1.38106e-07
-3.05879e-08
-1.06549e-08
-1.98034e-07
-1.45691e-07
2.78138e-07
6.55872e-08
-1.11391e-07
1.99009e-09
1.14507e-07
-6.42766e-09
1.30851e-07
-1.38792e-07
-5.18994e-08
5.98411e-08
-1.21472e-07
6.27503e-08
6.46275e-08
-5.90623e-09
-6.88805e-08
-4.88865e-08
-4.70253e-08
-9.79022e-08
9.82229e-08
-3.20582e-10
-8.17103e-14
3.86e-08
1.68056e-07
-6.46129e-08
1.01475e-07
-6.07725e-08
4.83901e-08
-7.07786e-08
-7.77798e-08
1.44634e-07
3.92468e-09
-5.34034e-10
-2.11328e-07
-6.36023e-10
2.12498e-07
7.19263e-08
-4.49925e-08
8.1925e-08
-1.01923e-10
6.29358e-08
-6.28468e-08
1.29558e-11
-1.835e-08
1.35201e-07
6.44757e-08
-1.81327e-07
1.6459e-07
-8.31494e-08
-8.63698e-08
4.92957e-09
1.15862e-07
3.65102e-08
-3.49959e-08
-1.17376e-07
1.57272e-07
-7.41917e-08
7.35698e-08
-1.56651e-07
3.38756e-08
1.26741e-08
1.10723e-07
-8.57129e-08
8.16364e-08
-1.5642e-07
1.20747e-07
7.7394e-10
-1.1762e-07
-3.901e-09
-3.81614e-08
-2.70006e-07
1.88095e-07
8.13012e-08
8.30205e-08
-6.513e-09
-5.31418e-10
4.83427e-10
9.03901e-08
-9.03421e-08
-1.19644e-07
1.19585e-07
-2.78444e-10
-5.81085e-08
1.16095e-07
5.92177e-09
6.99035e-09
8.41343e-08
-4.70782e-09
-8.64169e-08
-1.23787e-07
5.46387e-08
8.64273e-08
-1.72795e-08
-4.25929e-08
-7.80857e-08
-9.84879e-09
-8.00664e-08
1.55965e-07
5.40303e-09
6.99852e-08
7.30393e-08
-1.38137e-07
-4.88758e-09
1.10386e-07
7.02493e-10
-1.10977e-07
-1.1168e-10
-6.07098e-09
-1.59962e-07
-1.32034e-08
1.67922e-07
-4.17442e-09
1.13224e-07
-1.15673e-07
5.56953e-08
-7.32391e-09
9.45516e-08
-4.5652e-10
-9.30128e-08
-1.08231e-09
1.18149e-07
-7.97853e-10
1.31194e-07
-4.447e-08
7.78658e-08
8.22971e-11
-1.00444e-07
-3.32407e-09
1.08085e-07
-4.31628e-09
8.82581e-08
-4.85402e-08
-8.74381e-08
1.43785e-10
8.72306e-08
6.36623e-11
-3.38908e-08
-1.31658e-07
1.40656e-07
2.4892e-08
-1.87429e-09
1.26234e-07
-1.23999e-07
-3.61661e-10
-8.50627e-08
-3.54184e-08
1.21081e-07
-6.00265e-10
-4.1685e-09
2.08513e-09
-1.05706e-07
-1.58293e-07
8.49741e-08
7.86757e-08
-5.35734e-09
2.19103e-10
-9.78166e-08
9.77943e-08
-1.96888e-10
1.32977e-07
-6.28876e-10
-1.13888e-10
-1.06656e-07
2.64697e-10
1.06505e-07
-7.38329e-08
1.98657e-08
6.32747e-08
1.27083e-07
-6.95752e-08
4.81504e-09
1.35497e-07
-1.34627e-07
-1.3761e-08
-1.20279e-07
1.35583e-07
1.84829e-08
-3.37867e-08
6.97806e-08
-7.10248e-08
1.45492e-07
3.80273e-09
1.08822e-07
1.46213e-07
-1.27139e-09
-1.46816e-07
6.59174e-08
-1.37742e-07
-4.12773e-09
7.59523e-08
1.38515e-07
-7.64428e-08
7.91273e-09
9.67707e-08
-9.47162e-08
-1.08804e-07
5.59065e-08
-2.96283e-08
-1.45167e-07
1.38455e-07
-1.84475e-08
2.51594e-08
1.58127e-07
4.38375e-08
-4.5766e-08
-1.55664e-07
-7.1522e-08
-2.89711e-08
7.80122e-08
2.24809e-08
-1.26255e-07
6.63326e-08
-5.25111e-08
1.12434e-07
-1.46504e-07
-3.20689e-09
1.52611e-07
-2.89979e-09
-1.0486e-07
1.99116e-08
-6.15561e-08
-1.58179e-07
-6.18267e-09
9.17829e-08
-1.39977e-09
-1.08871e-07
-4.67352e-10
-1.05182e-07
1.35403e-07
-7.15186e-08
5.8893e-09
1.50837e-07
-8.04521e-08
-7.68955e-08
6.51034e-09
-1.29523e-07
1.74047e-07
-4.47421e-08
2.18585e-10
7.98332e-08
-8.004e-08
-1.29316e-07
9.19163e-08
7.17927e-09
-2.3249e-09
6.25365e-10
1.01473e-07
-1.00975e-07
-1.12301e-09
1.83216e-07
-4.64859e-08
-1.0022e-07
-1.04851e-07
1.04932e-07
1.1139e-07
-1.06714e-07
-2.59066e-09
-1.67405e-09
9.87949e-08
-9.73958e-08
2.74913e-10
-9.14546e-09
-1.30653e-07
1.27524e-07
1.22747e-08
-1.34726e-07
1.51241e-07
-9.65878e-09
-6.85663e-09
1.17437e-07
-3.27208e-08
-8.56085e-08
9.8357e-09
-7.57753e-09
-9.40199e-08
9.35932e-08
3.16471e-08
-6.34046e-09
-1.30167e-07
-1.96128e-08
1.07031e-07
-8.12404e-08
-6.17804e-09
1.53984e-07
-6.3576e-09
-1.31256e-08
-1.34501e-07
1.50772e-07
5.68346e-11
-2.39471e-09
-1.48434e-07
1.31878e-07
-1.40186e-09
-5.39818e-11
1.25284e-07
-1.25508e-07
1.88039e-10
3.54397e-11
-1.20738e-07
-7.92273e-08
1.21879e-07
2.03985e-08
-1.64304e-07
-1.07413e-07
1.07328e-07
-2.22319e-11
1.06935e-10
-1.29639e-07
-6.94382e-09
1.85721e-09
-9.88339e-08
-7.86526e-11
9.89104e-08
2.13854e-12
-1.18395e-07
-4.55134e-10
1.18889e-07
-3.93275e-11
-1.13061e-08
1.21125e-07
-1.00309e-07
-7.89211e-09
-9.93692e-08
9.91449e-08
1.10432e-10
2.56003e-08
2.753e-08
8.02649e-08
-1.32709e-07
7.025e-08
-7.04694e-08
1.38809e-07
-1.3859e-07
9.99215e-08
-7.87373e-08
-2.3447e-08
2.26284e-09
8.11645e-08
1.97541e-08
-1.03721e-07
5.06311e-09
5.54312e-09
-1.04946e-07
1.19004e-07
-1.96012e-08
-4.77467e-10
9.91072e-08
-9.82686e-08
-3.61213e-10
-1.36078e-07
-8.34752e-09
1.58798e-07
1.98579e-07
-8.48135e-08
1.7932e-07
1.48564e-07
-7.43135e-08
5.58286e-09
-3.85572e-08
2.47762e-08
-1.04604e-07
1.20482e-07
8.51341e-08
9.027e-08
-7.34806e-09
8.98852e-08
7.01833e-08
-1.54531e-07
-5.53721e-09
7.91784e-08
7.66148e-08
-7.22949e-09
1.17593e-07
-7.2512e-08
8.02029e-08
7.14574e-08
-1.21064e-07
5.74021e-08
-7.7955e-09
5.53754e-10
-9.56229e-08
-1.20923e-09
2.07376e-10
-2.97606e-07
1.77294e-07
1.57836e-07
-1.09147e-07
2.49347e-08
9.00092e-09
4.1676e-08
4.354e-08
-9.42169e-08
-1.23339e-07
1.80639e-09
1.2263e-07
-1.0971e-09
-9.5054e-08
9.46621e-08
-1.08435e-11
4.02828e-10
1.23087e-07
-1.59611e-07
1.88811e-07
-1.52288e-07
1.47268e-08
-1.42939e-09
1.21233e-07
-3.04719e-08
7.15907e-09
-7.06685e-08
9.39814e-08
-6.95925e-08
1.34609e-07
5.23329e-09
-1.40701e-07
7.27564e-08
7.31308e-08
-5.18578e-09
-1.06003e-07
-2.40991e-08
1.1049e-07
4.17415e-10
7.36352e-08
-4.47736e-11
-7.40078e-08
1.40289e-07
-6.42351e-08
7.4405e-08
1.23644e-09
-1.13286e-10
9.73068e-12
-9.32627e-08
1.70487e-07
-4.5592e-08
-2.80561e-08
-9.68392e-08
1.30054e-08
2.84441e-08
-1.23831e-07
8.54247e-08
-3.29366e-08
2.17718e-08
1.62667e-07
3.47423e-08
1.59832e-07
-1.79015e-07
-6.07859e-08
-6.49969e-08
5.50345e-09
1.26425e-07
6.10554e-09
-6.88624e-08
-6.93663e-08
1.31133e-07
7.09598e-09
-3.32826e-09
9.89286e-08
-1.34157e-07
-1.71075e-10
6.75283e-08
-6.8039e-09
-6.57248e-10
-1.29326e-07
7.86449e-11
1.29905e-07
-1.28739e-07
1.55587e-07
-3.81524e-08
1.06236e-08
-8.99872e-09
4.87669e-08
1.06444e-07
-1.23213e-07
7.17342e-08
-2.56308e-08
7.71096e-08
-1.34956e-07
9.09617e-08
-1.24062e-07
1.22463e-07
3.27314e-10
8.88654e-08
2.1236e-08
-1.59538e-07
-2.07768e-08
1.59078e-07
-1.75445e-07
9.62036e-08
-1.32086e-07
-1.62276e-09
1.58746e-07
2.34823e-08
6.42833e-08
-9.22006e-08
4.43504e-09
1.04397e-07
-7.18614e-08
-2.60799e-10
-9.62248e-08
2.38598e-10
-2.26114e-07
2.26046e-07
-5.68336e-10
-9.18707e-08
-9.57504e-08
-8.99306e-08
9.75492e-08
-1.06988e-07
8.11263e-08
-1.02851e-07
1.63651e-08
5.35936e-09
1.20933e-07
-8.72232e-08
-8.93327e-09
-1.48742e-07
-1.10748e-08
2.03711e-08
1.39446e-07
-2.97022e-07
-3.77161e-10
-1.2664e-07
1.25939e-07
1.69797e-10
-8.99784e-08
-6.1815e-11
1.09532e-10
-1.36154e-08
-9.0662e-08
1.45454e-07
-4.11763e-08
1.03713e-07
5.15804e-09
4.19013e-08
-1.30207e-07
1.2924e-07
-3.44882e-09
-5.9773e-08
1.41399e-07
-9.50803e-08
2.93354e-10
-1.23281e-07
-3.51773e-10
8.88403e-08
-9.05382e-08
1.52794e-10
-6.41273e-08
-6.40971e-08
1.20508e-07
7.71668e-09
1.09053e-07
1.71184e-08
-9.36713e-08
-3.25006e-08
8.01228e-09
1.47564e-07
-1.55616e-07
-2.38852e-09
-1.06903e-07
-1.86228e-08
1.22787e-07
-2.27236e-11
-1.22909e-07
1.44456e-10
2.31443e-08
7.25032e-09
5.25047e-08
-8.28994e-08
-1.3729e-07
7.34695e-08
-5.04197e-09
-1.10543e-07
1.05806e-07
-7.11132e-09
-2.99276e-10
1.17556e-07
3.3662e-10
-7.78625e-08
-6.98144e-08
1.40761e-07
6.91616e-09
1.25465e-07
-6.71193e-08
-6.47789e-08
6.43316e-09
1.24868e-07
-2.03776e-09
-4.31708e-11
-9.80071e-08
-8.80128e-08
9.60415e-08
-1.21275e-07
-4.50162e-08
-8.06833e-09
1.74743e-07
-1.02121e-07
2.84374e-08
-1.2435e-07
7.72522e-11
-1.01573e-07
4.95038e-10
-6.08301e-10
1.3021e-07
2.46943e-08
-2.64462e-08
-1.28458e-07
4.45516e-08
-1.24869e-07
-1.03602e-10
-2.19008e-11
3.73662e-08
-1.87018e-07
-7.57997e-08
1.27451e-07
8.6454e-08
1.98101e-08
-1.40828e-07
-1.76282e-08
1.38646e-07
-7.90817e-08
6.43027e-09
1.28515e-07
-1.27723e-07
8.88864e-08
4.02072e-08
-1.37053e-09
-4.52112e-10
1.05823e-10
-9.36547e-08
6.43849e-08
-4.62095e-09
-1.36681e-09
-2.64987e-09
-2.35852e-09
9.17995e-08
-8.67911e-08
7.93866e-08
1.01767e-07
-9.99147e-08
-8.12389e-08
1.43386e-07
-1.60128e-07
2.55174e-10
2.61752e-10
1.51775e-07
-9.74641e-09
-1.33342e-07
-4.09114e-08
1.47489e-07
1.08595e-08
1.14738e-07
-1.08281e-07
-5.4859e-09
-9.71402e-10
-8.38964e-10
1.10133e-07
1.591e-07
-5.5265e-08
-2.35983e-09
9.03895e-08
-8.02537e-08
-5.1679e-10
3.96368e-10
1.35617e-07
-1.45706e-07
4.2308e-09
1.32904e-07
7.04942e-09
-1.18001e-08
1.24419e-07
-1.55659e-07
3.31418e-08
1.02315e-09
8.71721e-08
-8.57746e-10
-8.73375e-08
-1.14222e-07
1.14333e-07
-1.00841e-10
1.08209e-09
-3.05294e-10
-1.08642e-07
1.07832e-07
-2.93707e-11
-1.06841e-07
-2.38468e-10
1.75808e-10
6.93382e-08
-9.90927e-08
-7.42129e-08
1.03967e-07
4.40076e-11
-1.12263e-07
1.12372e-07
-1.52733e-10
-4.71716e-08
1.16606e-07
-4.06666e-08
-1.87579e-08
-1.3645e-07
7.11383e-08
-6.21017e-09
2.72217e-08
-1.54024e-08
1.02919e-07
-1.31608e-07
6.32028e-08
6.11756e-08
7.22928e-09
-1.53014e-07
-1.06717e-07
1.07889e-07
-1.22046e-07
-4.16517e-08
5.58086e-08
1.25663e-07
-1.26367e-07
2.54125e-10
4.49542e-10
-1.59181e-09
-1.77357e-07
6.27065e-11
1.78886e-07
-1.01565e-07
2.2296e-11
1.0152e-07
-1.23361e-07
6.5276e-11
3.86435e-10
7.0078e-08
-1.24081e-07
-6.78319e-09
1.59464e-10
-1.25449e-07
-2.17826e-10
7.41877e-08
7.40392e-08
-5.551e-09
-7.15062e-08
-7.18658e-08
1.37067e-07
6.30489e-09
-1.13457e-07
9.65737e-10
1.12383e-07
1.08268e-10
1.20144e-07
2.96525e-08
1.07401e-07
-1.54305e-08
1.04771e-07
-5.44024e-09
-9.61772e-08
4.53209e-08
4.36507e-08
7.20559e-09
6.94674e-08
1.24111e-07
-7.64373e-08
-1.13488e-07
7.09638e-08
-6.89791e-08
-1.26938e-07
-1.02022e-07
1.11964e-07
1.16997e-07
1.0549e-07
-1.10914e-10
1.11811e-07
-1.13069e-07
1.37774e-09
-1.189e-10
-1.26817e-07
-1.24908e-07
8.16583e-10
9.25832e-11
1.63912e-08
3.98244e-08
-1.58271e-07
1.48255e-08
-4.13731e-08
1.89273e-07
1.29387e-07
-8.10809e-08
-5.35085e-08
4.83305e-09
1.85404e-08
-2.03534e-08
1.28257e-07
-3.19547e-08
-7.59491e-08
1.03016e-07
-6.31914e-10
-1.02133e-07
-2.50562e-10
-3.95695e-08
-1.39885e-07
2.77363e-07
-9.79083e-08
1.01197e-07
-7.6791e-08
-9.23733e-10
8.55452e-11
9.92871e-08
-2.65427e-10
7.07742e-08
-7.11605e-08
1.18475e-07
-1.54178e-07
-1.25648e-07
7.64844e-08
1.2192e-07
-2.20596e-09
-2.94198e-08
-7.87895e-08
6.87387e-08
8.19943e-08
8.36715e-09
1.23342e-07
-1.21435e-07
1.59068e-09
1.43622e-07
-7.73093e-08
6.81794e-09
1.14003e-07
-1.49323e-07
1.30154e-07
-8.38289e-08
-3.14448e-08
-1.37114e-08
1.94318e-09
1.00104e-07
-1.11193e-07
6.60789e-08
-1.24924e-07
-5.28248e-09
1.44807e-07
1.26654e-08
-4.19852e-08
1.24248e-07
-8.18663e-08
-2.46924e-09
-2.4966e-08
1.35237e-07
-1.5147e-07
4.11992e-08
1.12212e-07
2.00446e-08
-5.35216e-08
-8.89823e-10
-1.24474e-07
1.23947e-07
-8.75407e-10
-2.88213e-08
2.19647e-08
-9.38097e-08
1.00666e-07
7.32544e-08
-1.37523e-07
-5.09723e-09
-1.31221e-07
1.31568e-07
-1.8735e-10
-7.42379e-08
1.53027e-07
-1.18358e-07
-7.02259e-08
-7.76515e-08
1.62199e-08
-9.75024e-08
-4.94369e-11
2.07304e-07
-3.21687e-09
-1.03967e-07
-1.03328e-07
-7.14623e-08
1.28407e-07
2.21193e-07
-2.28438e-10
-8.64015e-08
3.15509e-11
8.65984e-08
3.1223e-08
1.09684e-07
-7.11216e-10
1.44719e-07
5.95308e-09
9.33903e-08
5.51451e-08
2.7058e-09
7.12793e-08
-1.37335e-07
-5.4505e-09
-7.06981e-08
-7.9873e-08
1.41585e-07
8.98628e-09
-8.78941e-08
-4.20871e-09
-4.07439e-09
-2.50795e-08
-1.22879e-07
1.09673e-07
-8.28355e-11
-1.19222e-07
-3.18469e-09
1.16682e-07
-8.65401e-08
-1.31657e-07
9.37907e-08
1.24406e-07
-1.08618e-07
3.77169e-08
7.40625e-08
-3.16152e-09
6.82099e-08
6.80865e-08
-1.29333e-07
-6.96385e-09
-6.94597e-08
-6.68411e-08
1.30065e-07
6.2362e-09
5.01242e-08
4.65921e-08
-1.06648e-07
9.93204e-09
-6.50536e-08
1.08392e-07
-3.5293e-08
-8.04536e-09
1.02664e-07
-1.03064e-07
-2.5744e-10
-9.09958e-08
5.21819e-10
7.91696e-08
1.02332e-07
-2.72646e-08
-1.54237e-07
-3.01464e-08
8.57679e-08
3.71945e-08
-9.2816e-08
-9.51604e-08
4.07616e-11
9.66958e-08
-1.5761e-09
-7.13315e-08
-4.10245e-08
9.20026e-08
1.20281e-07
-3.34409e-09
6.80402e-08
-1.26626e-07
6.35962e-08
-5.01088e-09
-5.33335e-08
3.60305e-08
-1.12854e-07
1.1271e-08
1.29864e-07
-1.02471e-07
-3.83987e-08
1.09585e-07
7.86937e-08
-7.17911e-08
7.31633e-10
-1.19032e-07
-9.43831e-11
5.34955e-08
-4.06201e-08
1.00328e-07
-1.14216e-07
5.49014e-08
5.20676e-08
7.2471e-09
7.15664e-08
-4.81282e-09
3.79995e-08
6.16392e-08
7.39249e-09
8.88248e-09
1.23014e-07
-9.97567e-09
-5.78785e-09
-7.99437e-08
7.79898e-08
1.30211e-07
-7.23194e-08
-1.51919e-07
1.52441e-07
1.58718e-07
5.68977e-08
-5.41034e-08
-1.61513e-07
1.40919e-08
-1.25521e-07
1.34573e-07
-7.6331e-08
-7.00826e-08
1.39802e-07
6.61136e-09
-4.36029e-08
-1.04977e-07
1.72371e-09
6.62232e-08
-6.62031e-09
1.26241e-07
-5.09488e-10
-6.82213e-11
2.16053e-08
-8.32459e-08
8.88623e-08
1.65917e-10
1.66189e-10
-1.31554e-07
-1.71983e-09
8.68708e-08
-8.48848e-08
1.11778e-08
-8.15693e-08
1.39369e-07
-6.89776e-08
-2.69853e-08
-1.3078e-07
1.11864e-09
1.56647e-07
8.99692e-08
-1.73341e-07
6.79355e-08
1.5436e-08
-1.19484e-07
8.76561e-08
-9.48124e-08
9.77113e-08
-5.53985e-10
-9.67594e-08
-3.97977e-10
-4.4538e-08
-1.25237e-07
4.48835e-08
1.24892e-07
-7.09391e-08
-1.19056e-07
1.45046e-07
4.49483e-08
-2.82737e-09
-1.39066e-07
1.39586e-07
2.307e-09
-1.21837e-07
1.2175e-07
-1.50439e-09
-1.39696e-07
1.23404e-07
-6.21602e-08
1.33483e-07
6.91282e-08
-5.7181e-09
7.45911e-08
-1.33632e-07
-6.20234e-08
-1.2299e-07
8.49687e-08
-9.92687e-08
-1.33011e-08
1.3752e-07
-8.50513e-08
-3.40447e-08
1.17459e-07
-1.15392e-07
-3.28362e-09
1.21632e-09
-9.48761e-08
-2.35595e-09
3.96939e-09
2.43079e-10
-1.45941e-07
1.4287e-07
-8.82296e-08
-4.69101e-10
8.04637e-10
-8.99401e-08
7.56159e-08
1.4791e-08
-4.66706e-10
-5.38821e-08
-1.29303e-07
1.73871e-07
9.31436e-09
1.12434e-07
-5.4597e-10
5.50934e-08
4.66616e-08
-1.10711e-07
8.95545e-09
-1.06433e-07
-5.49572e-10
1.06719e-07
2.62901e-10
-1.03653e-07
1.47179e-08
-2.41345e-08
6.1237e-08
-1.18249e-07
4.98677e-08
7.14445e-09
-4.53089e-09
-9.16713e-08
4.33146e-09
1.39793e-09
-1.30166e-07
1.82963e-09
5.21943e-08
7.22962e-08
-1.28189e-07
2.07837e-08
9.57684e-08
1.99702e-08
1.24243e-07
-1.24799e-07
5.93144e-10
-3.68354e-11
-2.00271e-07
1.88932e-07
8.34982e-08
-7.21588e-08
5.51406e-08
-1.42371e-07
1.09275e-07
-2.20445e-08
7.25701e-08
-6.57946e-09
-6.55137e-10
4.93995e-11
5.63318e-08
-5.9623e-08
-1.12817e-07
1.59836e-07
-1.32081e-07
1.10395e-07
-1.46621e-08
6.17958e-10
-1.46632e-07
1.46099e-07
1.26058e-07
-1.5363e-07
-1.24976e-09
-8.48445e-08
-8.07654e-08
1.59025e-07
6.585e-09
9.21511e-08
-1.85791e-11
-9.21529e-08
2.03741e-11
-1.43641e-07
7.69166e-08
7.13887e-08
-4.66444e-09
-1.93971e-07
1.20071e-07
-1.34283e-07
2.08182e-07
-1.86859e-07
2.47079e-08
-4.447e-08
-1.09564e-07
-1.59037e-07
9.72952e-08
3.67756e-08
-1.41747e-08
-1.24761e-07
1.36064e-07
2.87242e-09
-3.17136e-09
-1.08277e-07
-9.28876e-09
1.17484e-07
-1.04723e-07
1.08783e-07
-3.26343e-08
1.64862e-07
9.44502e-08
1.57054e-07
-1.25526e-07
-1.19126e-07
4.6726e-10
1.16184e-07
-1.16716e-07
6.5045e-11
1.00266e-07
-1.0858e-07
3.78359e-09
-7.79073e-08
-6.72991e-10
6.76985e-08
1.01991e-07
-4.34487e-08
6.25329e-08
-1.20082e-07
-4.61133e-09
-1.4299e-10
1.12989e-07
-1.12962e-07
1.16273e-10
-1.17015e-07
-1.45662e-10
1.17941e-07
-7.81031e-10
-1.18769e-07
4.34125e-08
-3.29242e-08
-1.16122e-08
9.72682e-08
7.82467e-08
-9.99732e-10
-1.74515e-07
2.7155e-09
-1.64622e-10
-1.69796e-08
8.07263e-08
-1.4465e-07
8.09037e-08
-1.24826e-07
1.26674e-07
6.53299e-08
-6.14501e-09
2.68617e-08
-1.29934e-07
-3.67257e-08
1.39798e-07
4.07241e-08
1.20988e-08
3.52405e-08
-8.80634e-08
6.89654e-08
7.48054e-08
-1.37613e-07
-6.15758e-09
-1.03167e-07
1.01415e-07
1.75978e-09
-7.95041e-12
-6.78469e-08
7.3898e-09
5.54365e-08
-5.34109e-08
1.24723e-07
-1.26749e-07
-1.04188e-07
2.19814e-07
-4.55404e-08
-7.00855e-08
8.552e-08
-7.21614e-08
-7.47101e-08
6.13515e-08
6.7923e-08
-5.57731e-08
-1.36175e-07
5.3096e-08
8.84164e-09
5.78967e-08
7.97657e-08
7.5238e-08
7.68047e-08
-1.45811e-07
-6.23141e-09
1.34426e-07
8.02256e-09
-6.13348e-09
-1.36315e-07
1.0249e-07
8.55058e-10
-3.2918e-10
9.67581e-08
-9.84252e-08
2.26841e-09
-6.01283e-10
-6.58044e-08
-7.76854e-08
1.36381e-07
7.1089e-09
-1.20721e-07
1.53999e-09
4.11829e-10
-1.06743e-07
6.89899e-12
3.03575e-10
1.12949e-08
1.2304e-07
1.1153e-07
1.93156e-09
-1.02745e-09
1.02004e-10
-1.03122e-07
1.02471e-07
9.74416e-08
1.73678e-08
2.64978e-09
-1.16451e-08
3.61285e-08
-1.20228e-07
9.57446e-08
1.25427e-07
-1.25238e-07
-5.80105e-11
-1.31e-10
-2.97303e-08
-1.1849e-07
1.72929e-07
-1.1951e-07
-1.9297e-08
1.43758e-07
-4.95063e-09
1.54417e-07
-1.31231e-07
-2.27021e-08
-2.04027e-08
1.28625e-07
1.26278e-07
-1.27075e-07
4.29351e-10
3.67338e-10
1.50913e-07
-4.6397e-08
-1.48362e-07
4.38461e-08
1.24542e-07
-1.24771e-07
1.47777e-07
-1.47548e-07
8.97805e-09
-1.23251e-08
-9.85964e-08
1.01944e-07
2.69113e-08
-1.03001e-07
-4.37143e-08
1.19804e-07
8.68157e-08
7.90575e-08
-1.58862e-07
-7.0115e-09
2.04377e-07
-2.15968e-07
-7.26875e-08
-1.48868e-07
1.02978e-07
-1.30563e-08
1.25684e-08
-1.86183e-07
1.61438e-07
-8.58741e-08
1.33774e-07
-2.27696e-07
1.79797e-07
8.04566e-08
-1.60095e-07
-6.23558e-09
2.04765e-08
8.96656e-08
-1.55018e-08
-9.46403e-08
-1.43999e-09
1.29475e-07
-1.41867e-08
-1.1115e-07
-5.91794e-08
1.54279e-07
-1.07871e-07
1.27713e-08
-2.75342e-08
7.97785e-08
-4.47636e-08
-7.48075e-09
3.45259e-10
-1.00211e-07
1.00254e-07
-3.88358e-10
2.63038e-09
1.25259e-07
-1.26766e-07
-1.12371e-09
-8.07628e-08
-1.26592e-07
1.39555e-07
7.32548e-08
-1.72735e-08
1.18227e-07
2.53774e-09
-4.79638e-08
-4.44654e-08
1.26972e-07
-2.32787e-07
2.93178e-08
-1.52877e-07
1.20818e-07
-7.21296e-08
1.23553e-07
-1.20482e-07
-4.41017e-10
-9.79511e-08
1.55982e-09
-2.32763e-09
9.87189e-08
6.2007e-08
-1.90341e-07
-1.4623e-07
-1.53448e-10
1.26922e-07
-1.26599e-07
-1.70552e-10
-1.12325e-07
-3.96759e-08
1.44085e-07
5.65651e-09
-9.15267e-09
1.10845e-07
-9.92187e-08
-1.12331e-08
1.44753e-07
-1.17341e-07
3.84053e-10
-5.79122e-11
6.42189e-08
-1.53258e-07
8.31277e-08
5.91139e-09
-1.49965e-09
-1.12795e-07
-1.50713e-09
1.28253e-07
6.04241e-09
-1.05571e-07
5.37053e-08
5.0009e-08
1.85621e-09
-1.06452e-07
2.93846e-08
1.4499e-07
1.39121e-10
1.36095e-07
-6.69734e-10
-1.35564e-07
6.86685e-09
1.20182e-07
-2.56074e-08
-1.01441e-07
1.43733e-07
-1.63778e-07
8.52891e-08
-6.52434e-08
4.59613e-08
1.1555e-07
-5.66253e-08
-6.73071e-09
8.29348e-08
8.93351e-08
-1.60002e-07
-1.42432e-08
-6.5224e-09
1.09362e-07
-1.31811e-07
1.16433e-07
2.6284e-10
-1.16803e-07
1.06878e-10
7.09675e-09
1.0045e-07
-3.83437e-09
7.9056e-08
-1.96824e-07
3.12274e-08
-1.32719e-07
2.46012e-09
-7.50071e-08
-6.40449e-08
1.32293e-07
6.75942e-09
-1.07881e-07
-4.99281e-08
3.35313e-08
1.24278e-07
-1.19398e-07
-6.41877e-10
-6.80475e-10
-6.99265e-08
1.47918e-07
-8.39082e-08
5.91655e-09
7.53687e-08
-1.4925e-07
7.72446e-08
-3.36291e-09
-1.13132e-07
-2.46148e-10
1.02893e-07
-1.05538e-07
4.58365e-09
-1.93927e-09
1.51643e-07
-8.49742e-08
8.70003e-09
-1.15456e-07
1.94284e-08
-1.93645e-08
5.9227e-08
-9.7939e-08
-2.20605e-08
1.25486e-07
-1.24667e-07
-2.01083e-10
6.83428e-08
6.10748e-08
-6.10481e-08
-6.83695e-08
7.9901e-08
1.48794e-07
-1.60485e-07
7.93418e-08
6.78681e-08
-1.42124e-07
-5.08577e-09
-1.16652e-07
6.15507e-08
4.76442e-08
7.45689e-09
1.98474e-10
1.2593e-07
1.49025e-10
8.00494e-08
7.48589e-08
-1.49243e-07
-5.66574e-09
1.06022e-07
1.17027e-07
-9.55087e-09
-1.03815e-07
-3.66088e-09
9.57883e-08
4.23764e-11
1.47444e-07
-1.49164e-07
-8.13826e-08
8.31026e-08
5.00296e-08
5.96524e-08
7.34514e-09
-6.29177e-09
-1.98051e-07
1.8677e-08
1.16589e-07
-3.62841e-09
6.25533e-09
1.52443e-07
1.31009e-07
-2.22215e-07
-1.23176e-07
1.09572e-09
-1.46454e-09
1.23545e-07
6.28261e-10
9.97839e-08
-1.00272e-07
-1.40328e-10
-7.97888e-08
1.81328e-07
-1.7787e-07
5.22248e-08
1.23222e-07
-6.50849e-08
-1.10362e-07
4.61055e-08
5.88947e-08
-1.12426e-07
7.42629e-09
1.4941e-07
-1.1287e-08
2.09023e-08
-1.34164e-07
-5.73252e-09
4.16014e-08
-1.345e-07
-1.90309e-08
-9.46985e-08
-1.12105e-07
1.0559e-07
2.02404e-08
-5.08353e-09
-2.02648e-08
9.69498e-08
2.89046e-08
7.07256e-08
-7.7977e-08
-3.00263e-09
1.25449e-07
3.39751e-09
1.24595e-10
4.80393e-10
-2.15957e-07
-1.54259e-08
-3.17002e-10
1.4412e-07
1.48154e-08
-1.5123e-07
-1.35633e-08
2.73294e-07
-1.20544e-07
-1.39186e-07
-1.68035e-07
1.36413e-07
1.14547e-07
-1.45027e-07
-6.82093e-08
7.40276e-08
-7.58311e-08
7.00128e-08
1.18428e-07
-1.22445e-07
-3.81291e-09
7.83085e-09
-3.85893e-09
-6.37181e-08
7.92222e-08
-1.83539e-07
-8.00177e-08
6.49257e-08
7.22332e-09
-1.19338e-07
2.60453e-07
-4.14534e-08
-9.83992e-08
-1.34054e-08
-7.69863e-08
1.54784e-07
2.10343e-09
-3.29757e-08
-7.09462e-08
8.91558e-08
1.4766e-08
3.9472e-08
-1.77471e-07
8.05681e-08
5.7431e-08
-1.0694e-07
1.06698e-07
-5.35041e-11
2.95202e-10
9.21416e-08
-2.18955e-10
1.37331e-08
1.25126e-07
1.12934e-07
-7.23387e-09
-8.37354e-08
-1.54314e-07
1.83082e-08
7.82034e-10
1.36185e-07
-9.04362e-08
1.366e-07
-4.31038e-08
-5.97504e-09
3.11892e-09
1.25395e-07
-3.06457e-09
1.04343e-07
3.91085e-08
-1.53029e-07
-2.97201e-08
-1.24298e-07
-1.07859e-07
-8.43896e-08
4.35067e-08
-1.11846e-08
1.08598e-07
-8.527e-09
-9.39588e-08
-1.08103e-07
-3.03511e-09
9.44808e-08
-1.21268e-07
9.8576e-08
-6.39481e-10
-9.73904e-08
-5.46131e-10
-2.56856e-08
-1.47724e-07
-1.76578e-07
1.76246e-07
1.1417e-07
-4.77049e-08
1.12645e-08
-7.773e-08
1.12593e-07
-6.01412e-10
-1.11942e-07
-4.96071e-11
9.48328e-10
1.02187e-07
-1.03372e-07
2.37481e-10
2.88427e-08
1.19066e-07
-3.63794e-08
-7.78287e-08
-8.18758e-08
1.04541e-08
7.6675e-09
1.08944e-07
-1.12558e-07
-4.05365e-09
-1.24006e-07
1.34038e-07
-2.36445e-09
-1.33134e-07
-3.36868e-09
-1.47482e-07
1.49391e-07
-5.5425e-08
-8.43713e-08
1.46002e-07
-6.2057e-09
1.07015e-07
-1.49965e-08
6.28676e-10
-6.36021e-11
4.61789e-08
1.16702e-08
-5.66321e-10
-4.22575e-10
7.49005e-08
8.17926e-08
-5.77984e-09
-3.33588e-08
9.88132e-08
7.76844e-08
-2.7736e-07
-1.15621e-07
2.54624e-07
1.37475e-07
1.28041e-07
-5.42428e-08
-8.16783e-08
6.52701e-09
-5.98707e-10
-1.2387e-07
-3.30523e-10
5.39121e-08
6.25335e-08
-1.15356e-07
-1.08968e-09
-1.13422e-07
1.13255e-07
1.23661e-10
4.34161e-11
1.04213e-07
3.18121e-08
-1.35614e-08
1.6369e-09
1.91717e-07
-4.42181e-09
-5.24432e-08
-8.03508e-08
-3.38149e-09
-9.34983e-08
-2.27163e-08
7.25187e-10
1.05614e-07
-1.05484e-07
7.71747e-08
-1.88553e-07
1.05849e-07
-1.06962e-09
-5.66668e-10
6.936e-08
6.44172e-08
-1.29838e-07
-3.9394e-09
-1.59715e-07
7.99065e-08
-2.24432e-08
-2.62446e-08
-3.58834e-08
1.24625e-07
-6.24967e-08
-2.89419e-08
7.01906e-08
3.01399e-08
-1.37775e-07
-8.81988e-08
9.26535e-08
1.3332e-07
7.55752e-08
-5.95431e-09
6.40454e-08
1.26927e-07
-5.24643e-08
-1.38508e-07
-3.71075e-09
1.14219e-07
1.4709e-08
-1.25217e-07
1.08813e-07
-9.2626e-08
-2.01558e-08
3.96895e-09
1.39415e-07
-1.87038e-07
1.72883e-07
1.39321e-07
-6.76878e-08
-6.49098e-08
-6.72368e-09
4.12366e-08
-1.65945e-07
-1.18046e-07
-1.19004e-07
-1.2474e-11
-1.84004e-07
1.55124e-07
-1.60424e-07
1.89304e-07
8.22007e-08
-1.48245e-07
-2.60807e-08
1.17507e-07
-1.16504e-07
-4.80867e-10
-5.21842e-10
5.92339e-08
-1.17589e-07
-5.36339e-09
-6.20458e-09
8.32548e-08
-1.75251e-07
7.55762e-08
-1.32981e-07
-7.6173e-11
2.90393e-10
1.32767e-07
-1.56035e-07
1.34798e-07
-1.08968e-07
-8.32062e-08
-2.86075e-08
-7.14006e-09
5.85299e-08
6.84139e-08
-6.12543e-09
-5.18447e-08
-5.9094e-08
-5.7132e-09
-3.61634e-09
-1.01056e-07
-9.88679e-08
-9.97033e-10
-5.70556e-09
6.83237e-08
-6.79106e-08
6.3736e-10
-1.05041e-09
1.05015e-07
-1.02989e-07
-1.33614e-09
-6.89267e-10
-1.08809e-09
1.24789e-07
-1.23524e-07
-1.76485e-10
-1.29638e-07
1.3764e-08
1.1012e-07
5.7535e-09
1.24518e-07
-1.18355e-07
-4.28629e-09
-1.87667e-09
-1.05218e-07
-1.09342e-09
1.06967e-07
-6.55597e-10
-1.01783e-07
-6.2098e-08
9.44315e-08
3.32057e-08
-9.23921e-09
-1.18398e-07
7.42926e-08
-7.87844e-08
3.67418e-09
8.17653e-10
4.40288e-08
3.65027e-08
-1.2507e-07
1.07065e-07
-1.04239e-07
-7.1534e-09
4.32663e-09
-4.96243e-08
5.01463e-08
1.49319e-07
5.14122e-09
1.2523e-07
-9.36888e-08
1.18715e-08
-2.70288e-08
-1.14139e-08
-9.93322e-08
-3.18959e-08
1.91863e-07
6.07601e-09
-1.66501e-07
1.27109e-07
-3.26789e-08
-1.88866e-08
2.06227e-08
-7.80641e-08
5.65882e-09
-1.2216e-07
1.21998e-07
5.71434e-08
-6.87091e-08
-2.94588e-08
7.58374e-08
2.22583e-09
6.24294e-08
5.56347e-08
-7.734e-08
-8.1087e-08
1.11959e-07
-1.23893e-08
-6.89015e-08
5.75653e-09
9.17486e-08
1.11104e-08
2.18636e-08
2.39116e-08
-1.04056e-08
5.02496e-08
5.83787e-08
6.92201e-09
-4.79783e-08
1.56997e-07
-1.629e-07
-1.703e-07
8.47225e-08
2.15482e-07
-1.45194e-07
1.03838e-07
-3.13054e-08
5.96476e-08
-1.3218e-07
-1.21133e-07
-4.1731e-08
-1.41311e-07
-5.60184e-09
-9.91751e-08
7.86196e-08
-8.64651e-08
1.07021e-07
8.15706e-09
-1.16531e-07
-1.37931e-07
-7.30735e-09
-3.92557e-09
-1.24633e-07
1.12732e-07
1.20713e-07
1.90345e-08
1.00591e-07
2.07368e-09
-1.29854e-07
1.20025e-07
-8.3277e-08
9.31065e-08
-9.95668e-08
1.28178e-08
-1.9994e-08
-3.39624e-08
-2.37998e-08
1.16284e-07
-4.82049e-08
-1.0989e-07
-4.21441e-08
1.21495e-08
-6.94083e-08
-8.32979e-08
7.53889e-09
-6.80682e-08
7.82509e-08
7.83147e-08
2.28024e-08
4.15828e-08
-1.427e-07
7.53303e-08
4.16649e-09
-6.84421e-08
-4.10168e-09
-7.85291e-08
-8.76961e-08
6.5101e-09
6.11404e-08
-7.08159e-08
-4.70433e-08
5.67188e-08
-4.83533e-08
-8.75536e-09
1.43081e-07
-1.8065e-07
3.80564e-08
-4.87737e-10
-7.92688e-09
2.64638e-08
7.71736e-08
-9.57105e-08
4.78635e-10
-9.1413e-08
-7.4046e-10
9.16748e-08
-9.84279e-08
9.81444e-08
1.13066e-10
1.7042e-10
1.27098e-07
-7.00723e-08
-1.28892e-07
-5.97961e-08
-3.72406e-08
9.87045e-08
-1.66779e-09
1.50154e-07
1.13657e-08
-1.13028e-07
5.65917e-09
-1.36044e-07
1.64389e-08
-5.73476e-10
-1.64423e-07
-1.11854e-07
1.12084e-07
-3.06143e-10
7.19289e-08
8.24852e-08
-1.39332e-07
-1.28438e-08
-1.48549e-08
2.23866e-07
-7.42577e-10
-1.09325e-07
-2.1971e-09
9.53717e-08
-9.43587e-08
1.01426e-11
-4.64144e-09
1.39395e-08
2.57182e-08
1.19024e-07
-2.15423e-08
1.13036e-07
-9.03082e-09
-3.21795e-09
1.24589e-07
-1.19921e-07
-1.45018e-09
-1.02502e-07
1.11411e-07
-5.89071e-09
1.18456e-07
5.3069e-09
-3.08534e-08
-9.29094e-08
1.15367e-07
1.59601e-09
-1.1488e-07
-2.08382e-09
-6.90809e-08
-5.23135e-08
6.89512e-08
8.72378e-08
1.56235e-09
1.5323e-07
1.89127e-08
-3.50757e-08
-1.41653e-08
3.72576e-09
-7.59619e-08
1.19536e-07