/*--------------------------------*- C++ -*----------------------------------*\
| =========                 |                                                 |
| \\      /  F ield         | OpenFOAM: The Open Source CFD Toolbox           |
|  \\    /   O peration     | Version:  2212                                  |
|   \\  /    A nd           | Website:  www.openfoam.com                      |
|    \\/     M anipulation  |                                                 |
\*---------------------------------------------------------------------------*/
FoamFile
{
    version     2.0;
    format      ascii;
    arch        "LSB;label=32;scalar=64";
    class       volVectorField;
    location    "0.022";
    object      U;
}
// * * * * * * * * * * * * * * * * * * * * * * * * * * * * * * * * * * * * * //

dimensions      [0 1 -1 0 0 0 0];

internalField   nonuniform List<vector> 
31639
(
(0.117498 0.00071308 -0.000516236)
(0.115574 -0.000298468 4.6503e-05)
(0.116872 -0.000198585 0.000678018)
(0.119205 8.1386e-05 -7.53167e-05)
(0.116108 -0.000624971 -0.000234976)
(0.115999 9.1197e-05 -8.83062e-05)
(0.114335 5.92784e-05 -0.000354941)
(0.11686 -8.17801e-05 -0.000113216)
(0.116819 0.000134468 -0.000189983)
(0.11812 -0.000269872 -0.000450782)
(0.118429 0.000466825 -0.000178577)
(0.117862 -0.000468302 -0.00065253)
(0.116112 -0.000267487 5.87791e-06)
(0.117808 5.86033e-05 7.28913e-05)
(0.114866 -0.00038527 1.07625e-05)
(0.114572 -0.000304064 0.000627668)
(0.116324 0.000249823 8.43299e-05)
(0.114193 4.06494e-05 0.000315968)
(0.11486 0.000164471 -0.000401188)
(0.116436 -7.53696e-05 -7.38764e-05)
(0.110751 -0.000254696 -0.000351321)
(0.118096 -0.000161945 -0.000435537)
(0.118082 0.000632327 -0.00013052)
(0.115111 0.000156441 -0.000155406)
(0.113848 -9.80337e-05 -0.000114529)
(0.116769 -1.53653e-06 3.76797e-05)
(0.116468 3.06728e-05 -3.08323e-05)
(0.119465 0.000281043 -0.000165785)
(0.114514 0.000392513 0.000609889)
(0.117752 8.67138e-05 0.000450601)
(0.118397 -0.000106708 -0.000104902)
(0.114057 -0.000111951 -0.000133265)
(0.118295 0.000286943 -0.000470361)
(0.114968 -9.71424e-05 -0.000109622)
(0.112027 -4.47543e-05 4.98518e-05)
(0.118293 0.000478292 -5.0329e-05)
(0.10973 -0.000235076 -3.56163e-05)
(0.118943 -0.000357407 0.000322992)
(0.118245 -0.000222895 0.000251909)
(0.109727 6.04536e-05 -7.93368e-05)
(0.112843 -8.17781e-05 -0.00030699)
(0.111495 -0.000300914 0.00016135)
(0.117758 0.000182926 -6.87393e-05)
(0.118582 -0.000726138 -0.000732989)
(0.11739 -0.000459374 0.000624371)
(0.118933 -0.000667846 -0.000343662)
(0.114082 0.000257751 -0.000211299)
(0.115693 0.000430661 -0.000379821)
(0.116086 -2.09709e-05 0.000192227)
(0.118783 -0.000355995 -0.000233163)
(0.118681 -6.80326e-05 -0.000342631)
(0.11086 0.000240115 -0.000145966)
(0.118349 0.000442828 0.000122864)
(0.110109 -0.000140739 0.000222394)
(0.116103 -0.000221772 -0.000184096)
(0.115868 9.56242e-05 9.52044e-05)
(0.111475 -4.2745e-07 -0.000561636)
(0.116392 0.000118197 0.000351079)
(0.116134 1.42043e-05 0.000331669)
(0.112006 0.000154512 -0.00015541)
(0.116967 -7.78846e-05 -0.00032089)
(0.117438 0.00035315 -0.000178795)
(0.114018 -0.000167377 -0.000335161)
(0.116133 2.75747e-05 -0.000102271)
(0.116756 0.00030565 9.16007e-06)
(0.118934 -0.000130462 -0.000522999)
(0.116465 0.000162484 -0.000892174)
(0.11622 -0.000231973 8.11421e-05)
(0.112831 -4.01873e-05 -0.000270002)
(0.118867 0.000337802 -0.000190642)
(0.117658 4.09505e-05 -0.000210323)
(0.113691 6.35548e-05 -0.000984002)
(0.117942 -0.000347775 -0.00067792)
(0.116571 -8.02999e-05 -0.000182898)
(0.117269 0.000308528 -5.48858e-05)
(0.110597 0.000160657 -0.000649049)
(0.118637 -0.000640779 0.000214361)
(0.115402 0.000294742 -0.000520894)
(0.115689 -0.000141729 0.000334326)
(0.117393 0.000252959 -7.26865e-05)
(0.114029 7.4769e-05 0.000148097)
(0.108574 -2.02887e-05 7.20843e-05)
(0.118463 -0.000158308 8.06478e-05)
(0.116985 -0.000225778 -0.000186771)
(0.116766 -4.14874e-05 -0.000134453)
(0.118478 -0.000287594 -0.000245451)
(0.118939 3.45576e-05 0.000105879)
(0.11879 -0.000135923 -0.00028732)
(0.111314 0.000884932 -0.00126242)
(0.11809 -0.000210538 -0.000381689)
(0.116915 -0.000187189 0.000250328)
(0.115266 -0.000354127 -0.000112345)
(0.112181 -0.000425779 -0.000276324)
(0.115127 0.000404608 -0.000637953)
(0.113996 -0.000658409 -0.000314104)
(0.115193 0.000889915 0.000232527)
(0.116294 0.000241289 -0.000356815)
(0.116534 -7.94795e-05 0.000216747)
(0.116155 0.000127584 0.000120679)
(0.111628 -0.000726627 -8.78307e-05)
(0.117135 2.52023e-05 -6.00434e-05)
(0.117183 0.00028034 0.000534839)
(0.115059 -0.000223694 -0.000173932)
(0.110681 6.41527e-05 -0.000168717)
(0.111881 1.58848e-05 -0.000327383)
(0.119032 -0.000475231 -0.000244899)
(0.110307 0.000384375 -0.000365364)
(0.111201 -0.000604386 -0.000715749)
(0.113304 0.000423136 4.10455e-05)
(0.110066 -3.28453e-05 0.000457197)
(0.117524 -0.000821713 0.000172221)
(0.112242 -4.15466e-05 -0.000242401)
(0.115964 -9.52892e-05 -0.000287804)
(0.114958 -0.000504632 -0.000553456)
(0.116545 0.00013635 -0.000558399)
(0.110777 -0.000378838 0.00024601)
(0.115169 0.000406761 -9.78972e-05)
(0.114635 -0.000503733 -7.1732e-05)
(0.117068 -7.51567e-06 -1.84022e-05)
(0.115906 -0.000219796 0.000122696)
(0.116541 -0.000465196 -4.16688e-05)
(0.11794 -0.000488671 0.000359295)
(0.118392 0.000111207 -0.000543232)
(0.116948 0.000316247 -0.000651412)
(0.116775 -4.52516e-05 -0.000732288)
(0.117814 -0.000244443 9.40458e-05)
(0.115905 5.43189e-06 0.000269243)
(0.114002 0.000202353 -0.000202916)
(0.113847 -0.000540298 -0.000218169)
(0.118011 -0.000239172 9.94289e-05)
(0.117746 6.96903e-06 -0.000277555)
(0.118212 0.000207772 -0.000337904)
(0.117703 -0.000310769 4.69251e-05)
(0.116015 -7.36616e-05 4.87162e-05)
(0.117907 -7.59962e-05 -0.000175545)
(0.116625 -7.2076e-05 6.03675e-06)
(0.111959 -0.000115087 -0.000302469)
(0.111292 -0.000691208 -0.000360293)
(0.118441 0.000429101 0.000504558)
(0.116337 -0.000331556 -0.00031782)
(0.116109 -3.69462e-05 -0.000264429)
(0.11874 0.000207422 0.000909599)
(0.118196 0.000474982 0.000183448)
(0.110701 -0.000245962 -0.000388193)
(0.11112 -0.00014287 -0.000606202)
(0.117721 -0.000169519 -1.14656e-05)
(0.117624 -0.000270092 -0.000285224)
(0.111631 -0.000148535 -0.000360638)
(0.112209 -6.528e-05 9.26701e-05)
(0.117944 -0.000270915 -7.75524e-05)
(0.113932 -2.16352e-05 -0.000928615)
(0.115651 0.000107314 0.000148954)
(0.115497 -0.000166875 -0.000691103)
(0.117629 -0.000139913 -2.82091e-05)
(0.112291 0.000638211 -0.000930432)
(0.119113 9.55497e-06 8.99084e-05)
(0.116895 -0.000159115 -0.000252135)
(0.112984 -0.00108046 -7.88348e-05)
(0.111861 -0.000661554 0.000827152)
(0.114766 -0.000334417 -0.000257554)
(0.118796 -9.05295e-05 -0.000406314)
(0.1108 0.000258753 0.000149821)
(0.112345 8.53628e-05 -0.000945911)
(0.111358 -0.00031652 0.000141341)
(0.111046 -0.00102478 0.000190006)
(0.114825 4.45802e-05 -2.40678e-05)
(0.111379 0.000448414 0.000111246)
(0.118304 -0.000617135 0.000161179)
(0.118557 -0.000386193 0.000199017)
(0.111299 0.000177189 -0.000593996)
(0.112742 -0.000532701 0.000334439)
(0.115653 0.000478703 -0.000589984)
(0.111924 -0.000100644 -9.42089e-05)
(0.116636 -0.000102663 0.000418997)
(0.118895 -0.000200688 -0.000296773)
(0.117414 -0.000554346 -0.000332798)
(0.116439 0.000567043 0.000139782)
(0.117951 0.000209772 0.000371378)
(0.116887 -0.00040199 -5.46265e-05)
(0.115641 -0.000227807 -0.000260794)
(0.115982 9.87451e-05 -0.000121714)
(0.115199 -0.000515029 0.000663213)
(0.115181 0.000139333 0.000183481)
(0.109906 0.00101451 -0.000398976)
(0.116374 -3.32813e-06 0.000253255)
(0.118325 0.000470462 -0.000322931)
(0.114881 -0.000121881 0.000394806)
(0.117915 0.000241317 -2.22969e-05)
(0.112052 -0.000249786 7.39832e-05)
(0.110462 -0.000157911 0.000310648)
(0.118642 -0.000148008 -0.000170292)
(0.117721 -0.000190747 -0.000153219)
(0.116113 -0.000291156 0.000546768)
(0.116021 -6.71025e-05 0.000205732)
(0.116461 -1.11068e-05 -0.000216891)
(0.11572 -2.1548e-05 -0.000461119)
(0.115505 0.000503862 0.000413523)
(0.117946 0.000256577 -0.00033318)
(0.111793 -2.77313e-05 -0.000222396)
(0.114991 0.000243749 -0.000175459)
(0.118579 0.000147049 3.75957e-05)
(0.117973 -0.000263444 -0.000171041)
(0.117118 -0.000461781 1.37591e-05)
(0.116536 -0.00117311 -0.000248755)
(0.116001 -0.000459663 -0.000354763)
(0.11563 -8.02784e-05 -0.000320059)
(0.116242 -0.00011754 -0.000356211)
(0.115418 0.000432006 -0.00038758)
(0.117732 3.05041e-06 -0.000325519)
(0.110753 -0.000155182 -7.08561e-05)
(0.116273 -8.95009e-06 -0.000108094)
(0.115318 0.000463742 -7.26986e-05)
(0.116503 -4.26814e-05 -0.000401929)
(0.117785 -2.54135e-05 -0.000468584)
(0.117191 -0.000383009 -0.000396765)
(0.118265 -0.000100116 -0.000256031)
(0.112114 -0.000977458 -0.000350919)
(0.113999 -0.000360014 0.000338882)
(0.117719 -0.000304549 -0.000268489)
(0.118516 -0.000157796 0.000214138)
(0.117785 3.85417e-05 0.000201905)
(0.115756 -0.000308015 -0.000497681)
(0.109444 -0.000104467 0.000654717)
(0.116159 -0.000609947 0.00041558)
(0.111157 -0.000334593 -0.000270483)
(0.114293 0.000329318 -1.29988e-06)
(0.117762 -0.000369076 0.000457068)
(0.114032 0.000317918 0.000413693)
(0.110964 0.000350763 -0.000216697)
(0.11627 9.04681e-05 0.000230129)
(0.117091 0.000262451 -0.000189588)
(0.118509 -0.000156457 -6.44001e-05)
(0.111375 -0.000168309 -5.68916e-05)
(0.110445 -0.000496747 0.000135472)
(0.116636 -0.000348845 0.000225023)
(0.117768 0.000121398 -0.000584137)
(0.111604 7.90692e-05 0.000408186)
(0.11812 -0.000762965 0.000205834)
(0.113543 7.54874e-05 -0.00040417)
(0.112007 -0.000289031 0.000119242)
(0.115969 0.000191624 -0.000225449)
(0.116992 -0.000204333 -1.50165e-05)
(0.115102 -0.000805508 2.94933e-05)
(0.113582 0.000251535 0.000799143)
(0.11425 0.000160214 0.000241414)
(0.116013 -0.000142429 -0.00010003)
(0.115597 0.000485388 -0.000282605)
(0.114345 0.000208266 -0.000744446)
(0.111055 -0.000446876 0.000429828)
(0.115805 0.000304647 -0.000382957)
(0.115968 9.96848e-05 -0.000489756)
(0.112838 -0.000220892 -4.64261e-05)
(0.1141 -0.000899529 0.000113653)
(0.118077 -3.00596e-05 -0.000116948)
(0.118431 0.000561726 7.45369e-05)
(0.11588 0.000543811 -0.00011507)
(0.111977 6.42503e-05 -5.06498e-05)
(0.118195 0.000246496 -0.000227372)
(0.117467 0.000345509 -0.000510211)
(0.1155 -0.000304317 -0.000404063)
(0.119051 0.000202181 0.000727645)
(0.11876 0.000138499 -0.000339892)
(0.117136 0.000190047 -0.000447501)
(0.118503 8.72212e-05 0.000111176)
(0.115212 0.000382478 4.87168e-05)
(0.115617 -0.000262513 -0.00061559)
(0.11062 0.00031726 -0.00142131)
(0.11415 -0.000170629 -0.000207956)
(0.118055 -0.000673282 0.000147057)
(0.114961 6.1275e-05 0.000329442)
(0.117464 0.000269688 -2.96564e-06)
(0.115335 0.000447583 -0.000594473)
(0.116152 -0.000192959 4.83285e-05)
(0.11693 0.000235271 0.000300665)
(0.118808 9.204e-05 -0.000545874)
(0.11658 0.000534457 0.000164585)
(0.111386 0.000166238 -9.49753e-06)
(0.115108 7.49077e-05 7.97141e-05)
(0.112752 0.00135536 -0.000328175)
(0.118621 -9.47326e-05 -0.000748607)
(0.1152 -0.000548363 -0.000221851)
(0.11765 -3.94733e-05 -0.000405153)
(0.116546 1.45422e-05 -0.000358463)
(0.114077 -8.25645e-05 -0.000457673)
(0.111069 2.72375e-05 2.915e-06)
(0.112297 0.000173297 -0.000539325)
(0.112003 0.000210616 0.000134827)
(0.110697 -0.000265251 9.43715e-05)
(0.118878 -0.000363592 -0.00026981)
(0.111505 -0.000366098 -0.000488946)
(0.116944 -0.000272131 0.00024798)
(0.116727 0.000502481 -0.000198225)
(0.114998 -2.58971e-05 -0.000203037)
(0.112418 -0.000109899 -0.000110147)
(0.118218 -0.000676872 5.59765e-05)
(0.115288 0.000101387 -0.000687411)
(0.113465 0.000113475 0.00055459)
(0.117951 0.000258195 -0.000388455)
(0.116498 -0.000165247 -0.000117143)
(0.112296 0.0003638 0.000322748)
(0.11527 3.98723e-05 -0.000105553)
(0.111891 0.000206895 -2.21735e-05)
(0.116528 0.000330752 -0.00021486)
(0.115732 0.000197216 -0.000151941)
(0.112322 0.000319816 0.000706834)
(0.115622 -2.13961e-05 -0.000236662)
(0.115259 0.000817992 0.000279235)
(0.10962 0.000124319 -0.00103652)
(0.109786 0.000338895 0.000324268)
(0.117572 -0.000542506 0.00022821)
(0.118511 0.000148672 -1.90299e-05)
(0.118817 0.000141348 -9.4091e-05)
(0.111028 0.000163453 9.90597e-05)
(0.112334 2.91167e-05 0.000292785)
(0.117988 0.000255625 0.000266582)
(0.113543 -0.000214856 -0.000229284)
(0.113125 0.000598637 -0.000719989)
(0.117791 0.000228521 0.000459916)
(0.118137 -0.000347257 -9.43106e-05)
(0.11512 -0.000659866 5.33382e-05)
(0.117946 -0.000770426 -0.000297643)
(0.118888 -1.38848e-05 -0.000222945)
(0.11162 -0.000108604 -0.000190229)
(0.11894 -0.000731096 -0.000448952)
(0.109829 0.000336739 -0.000119392)
(0.110767 -4.5361e-05 -6.93803e-05)
(0.118374 -0.000395905 -0.000226029)
(0.117755 -0.000517371 -0.000126413)
(0.118834 0.00019302 -0.000527714)
(0.118793 0.00054857 -0.000785819)
(0.117419 -1.7441e-05 -0.000551018)
(0.112801 0.000974886 -0.000476978)
(0.114571 -0.000806383 0.000584659)
(0.115826 -1.30934e-05 -4.91116e-05)
(0.117329 -0.000798133 0.000122315)
(0.118361 0.000783989 0.000494599)
(0.11845 -0.000586993 0.000211519)
(0.116059 0.000148615 -0.000174681)
(0.114335 -0.000749092 0.000463383)
(0.11579 -0.000202567 3.82247e-06)
(0.118235 6.7593e-05 -0.000196401)
(0.117214 -3.67941e-05 -0.000847553)
(0.114744 0.000127674 -0.000284158)
(0.116398 -0.000282835 -4.40569e-05)
(0.115788 0.000553106 -0.000427585)
(0.115128 -0.00030996 -0.000276385)
(0.117256 -0.000180236 -2.84418e-05)
(0.114757 -0.000705642 0.0006523)
(0.111842 -0.000119703 5.55784e-05)
(0.115989 0.000510364 -0.000599376)
(0.117682 -8.61497e-05 -0.000104651)
(0.114643 3.96966e-05 -0.000171956)
(0.117134 0.000292349 0.000209427)
(0.11809 -0.000589001 0.000147926)
(0.116601 8.02347e-05 -0.000176521)
(0.112546 0.000393676 -0.000292062)
(0.11596 0.000281332 -0.000358762)
(0.11523 0.000267069 0.000176596)
(0.110829 0.00026867 -0.000397645)
(0.117608 -0.000751362 0.000162717)
(0.110961 0.000439005 0.000368252)
(0.116717 -0.000101654 -0.000405075)
(0.118444 -0.000738294 -7.75836e-05)
(0.111515 -0.000211508 0.000107459)
(0.116352 0.000253144 1.70448e-05)
(0.115546 0.000282961 0.000466689)
(0.111281 -0.000203392 0.000158378)
(0.116536 -0.000114813 -8.2561e-05)
(0.112555 4.9082e-06 -0.000250139)
(0.11538 -7.85605e-05 0.000515478)
(0.117986 0.000495636 0.000123185)
(0.116662 2.13436e-05 0.000209194)
(0.110539 0.000315317 -0.000149237)
(0.117108 0.000146341 1.02684e-05)
(0.112294 0.000184274 -0.000408195)
(0.117081 -0.000148158 -3.60804e-05)
(0.117309 0.000256534 7.86394e-06)
(0.11761 -0.000361624 -0.000357697)
(0.118219 -0.000270227 -0.000422854)
(0.111566 -8.41268e-05 -0.000397589)
(0.117632 -0.000866117 0.000212753)
(0.111051 -3.84882e-05 -0.000463102)
(0.115578 5.4706e-05 -0.000303565)
(0.111533 0.00016111 -0.000149138)
(0.11894 -1.82025e-05 -0.000204682)
(0.118497 9.66528e-05 -0.000249324)
(0.118976 -0.00012279 3.01701e-05)
(0.118532 -0.000391758 -0.000471118)
(0.11591 -0.000135471 -0.000238115)
(0.117531 -3.40391e-05 0.000138491)
(0.116039 0.000206481 -2.27367e-06)
(0.116337 7.13206e-05 -0.000191494)
(0.11616 0.000146001 -0.000337801)
(0.11226 6.86951e-05 6.46234e-05)
(0.117144 -0.00016571 -0.000290241)
(0.116015 -0.000302265 -0.000147504)
(0.116465 -0.000268397 -0.000243116)
(0.117923 0.000100629 4.36181e-05)
(0.117317 -1.10237e-05 -0.000464264)
(0.117395 2.65529e-05 9.62782e-05)
(0.115239 -0.000550281 0.000101817)
(0.11081 -3.43955e-05 0.000595976)
(0.115183 0.000173072 0.000345509)
(0.117389 0.000108806 0.00012035)
(0.117088 -0.000260815 0.000189538)
(0.111442 -0.000454245 -0.000389867)
(0.118548 2.1427e-05 -0.000330402)
(0.118288 -2.02343e-05 -0.000603876)
(0.115132 0.000109613 -0.000537977)
(0.117664 -0.000305869 -0.000470529)
(0.118008 -0.00010729 -0.000865093)
(0.116905 -0.000150965 -0.000469592)
(0.11752 -0.000232424 -4.95987e-05)
(0.111107 -0.000244265 -0.00011534)
(0.116766 -0.000204538 9.54956e-05)
(0.117508 -0.000327609 0.000253871)
(0.109756 0.000138109 -0.000105302)
(0.116133 -0.000512905 7.50347e-05)
(0.117039 -0.000318982 -0.000230284)
(0.113402 0.000152556 0.000114455)
(0.110773 -0.000206395 -1.46685e-05)
(0.110874 -0.000149617 0.000566961)
(0.114829 -0.000757354 0.000100115)
(0.110562 0.000156672 -0.000145238)
(0.115727 -6.54309e-07 0.000177128)
(0.116466 -0.00017483 7.43275e-05)
(0.113667 0.00049188 0.00031962)
(0.11719 0.000542551 -0.000210755)
(0.111781 -0.000109341 0.000132997)
(0.117348 0.000382626 0.000189831)
(0.119047 0.000136831 1.80416e-05)
(0.115978 -0.000151344 3.58841e-05)
(0.117003 -4.97138e-05 0.0004292)
(0.115087 -2.39808e-05 -1.55052e-06)
(0.11843 0.000617703 -0.000260292)
(0.116685 0.000446621 -9.0896e-05)
(0.115967 -2.47728e-05 -0.00051244)
(0.119071 -2.48828e-05 -0.000392014)
(0.116385 -3.8833e-05 -0.000288402)
(0.111465 -9.96876e-05 0.000175941)
(0.116116 -1.67302e-05 -0.000140876)
(0.1189 0.000161987 -0.000760085)
(0.118369 0.000248759 -0.000447346)
(0.117372 -7.26091e-05 0.000420196)
(0.118245 0.000220572 -9.56945e-05)
(0.116159 -0.000551834 0.000283589)
(0.117149 -0.00021686 0.000107002)
(0.116775 0.000145458 0.000280187)
(0.117821 0.000148224 -0.0002767)
(0.118001 -0.000569421 -0.00015034)
(0.110605 -0.000322092 -0.000175701)
(0.115455 -0.000373437 0.000152174)
(0.109492 -0.000209579 0.000112788)
(0.114746 0.000366262 0.000557261)
(0.115156 5.37687e-05 -0.000457548)
(0.111354 -0.000475599 0.000538475)
(0.110577 -0.000344084 -0.000460843)
(0.115531 0.000285201 -0.000236581)
(0.116814 -0.000322137 -4.66022e-05)
(0.11792 8.23575e-05 -0.000456612)
(0.11157 -3.12834e-06 0.000346255)
(0.116803 -0.00022292 0.000183183)
(0.115113 -0.000117649 0.00011093)
(0.116135 -0.000119743 -0.000504803)
(0.116678 9.4427e-05 -0.000429465)
(0.113331 0.00157026 0.00211931)
(0.116154 4.56355e-05 -0.00052452)
(0.111296 6.9509e-05 0.000336317)
(0.115045 -0.00022899 -0.000227167)
(0.117695 -0.000133334 1.60224e-05)
(0.1191 0.00101748 0.000435201)
(0.118182 0.000151871 -0.000731216)
(0.116041 0.000651698 -0.000471475)
(0.110578 0.000211716 0.000687551)
(0.116983 -0.000256841 3.55968e-05)
(0.116924 3.48755e-06 -0.000268441)
(0.117888 -0.000244112 -0.000340003)
(0.110614 6.13321e-05 4.02558e-05)
(0.112552 -9.77581e-05 0.000226063)
(0.115399 0.000312672 0.000325254)
(0.112426 0.000370905 -0.000280153)
(0.110419 -0.000391391 -8.52034e-05)
(0.117298 4.83152e-05 -0.000353043)
(0.112048 -2.15584e-05 -5.36314e-05)
(0.114488 0.000705424 0.000172876)
(0.111473 -0.000483576 -0.000711357)
(0.117111 0.000172394 1.02015e-06)
(0.112082 8.218e-05 -0.00018924)
(0.118509 -8.35982e-05 0.000345351)
(0.117754 0.000142519 -0.000271858)
(0.118735 -0.000149643 0.000481129)
(0.118738 -9.6597e-05 -0.000217511)
(0.111748 -6.01949e-05 0.000141272)
(0.118201 0.000183298 0.000220142)
(0.118793 -7.51032e-05 -0.000212556)
(0.116101 -0.000334023 0.000205869)
(0.117209 0.00040242 -0.000185972)
(0.116959 -0.000337946 -0.000213154)
(0.118536 0.000295101 -7.11395e-06)
(0.117729 0.00021262 0.000563935)
(0.113729 5.0965e-05 -0.000377562)
(0.119259 -4.22284e-05 -8.87696e-05)
(0.118817 -0.000182217 0.000172365)
(0.116493 -0.000112972 9.5813e-05)
(0.114772 -0.000350052 -0.000681716)
(0.118166 -0.000411777 -0.000191864)
(0.116559 0.000224561 -0.000132671)
(0.109943 0.000545838 -0.000286677)
(0.10997 0.000382376 -8.19089e-05)
(0.115949 1.92329e-05 0.000144124)
(0.117936 6.77807e-05 8.0093e-05)
(0.118837 -0.000128822 -0.000190796)
(0.114333 -0.000247249 -9.13003e-05)
(0.117798 0.000367043 0.000212203)
(0.116955 -0.000132198 0.000395551)
(0.118713 0.000992234 0.000850463)
(0.116163 -3.20127e-05 -2.21401e-05)
(0.115105 0.000419841 -0.000286712)
(0.116171 -0.00154481 0.000955504)
(0.111281 -8.97989e-05 -0.000152101)
(0.115517 2.42169e-05 0.00011272)
(0.1163 4.00485e-06 -0.000112863)
(0.118222 4.72237e-05 -9.99505e-05)
(0.112533 -0.000253666 3.89286e-05)
(0.112728 0.000306592 -0.000405714)
(0.113623 -3.58338e-05 -0.000360177)
(0.114099 -0.00041778 -0.000104758)
(0.116229 -7.89883e-05 -0.000446067)
(0.110831 -7.34781e-05 -0.00046821)
(0.117637 0.000388362 -0.000620297)
(0.114764 0.000132824 -0.000124313)
(0.116884 1.46638e-05 0.000715597)
(0.115101 -0.000175749 -0.000123126)
(0.118947 -0.000276918 -0.000282515)
(0.115882 -2.18311e-05 -0.000612125)
(0.110887 0.00011792 0.000478086)
(0.116573 0.000763541 0.00018432)
(0.118909 -0.000123561 -0.000772446)
(0.111648 0.000261952 0.000895876)
(0.117688 -5.77819e-06 -0.000600716)
(0.118916 -0.000969486 -0.000306947)
(0.116404 -0.000351575 0.000131248)
(0.115546 0.000243078 0.000131805)
(0.119974 -0.000204218 -0.000360029)
(0.113689 1.2589e-05 -0.000107371)
(0.116279 -0.000322794 -9.78931e-05)
(0.116057 0.000180541 3.77988e-05)
(0.111961 -2.83371e-05 1.45456e-05)
(0.112159 -6.19159e-05 -0.00106988)
(0.11541 0.000233035 0.000213848)
(0.113825 0.000504056 0.000163317)
(0.117387 -4.95935e-05 -0.000253788)
(0.113362 -0.000292474 0.000290677)
(0.114985 0.000311998 0.000416262)
(0.118709 7.78416e-05 0.000259362)
(0.115668 0.000119073 -7.36006e-05)
(0.110678 0.00023841 0.000148022)
(0.113667 0.000204076 -4.62797e-05)
(0.116581 0.000294335 -0.000111125)
(0.118774 -0.000142213 9.88587e-05)
(0.110751 0.000580212 0.000443572)
(0.110676 -1.80064e-05 0.000207024)
(0.118877 0.000118018 0.000719125)
(0.110966 0.000163018 8.48202e-05)
(0.117058 -0.000138329 -9.69876e-05)
(0.117444 0.000203832 -0.000192751)
(0.112086 -0.000120782 -0.000715619)
(0.116571 0.000301755 -5.72766e-05)
(0.118243 0.000176243 -0.000214941)
(0.115712 6.09054e-05 0.000643262)
(0.109652 -1.49754e-05 0.000174266)
(0.118589 6.83783e-05 5.44855e-06)
(0.115715 -7.59485e-05 -0.000321298)
(0.11056 0.000477816 -5.44902e-05)
(0.11865 8.11175e-05 -0.000107582)
(0.115489 -0.000124979 -0.00010088)
(0.115097 0.000347673 -0.000312047)
(0.117286 -0.000426821 8.31637e-05)
(0.110631 0.000748398 -0.000373893)
(0.114544 5.29349e-06 -0.000821244)
(0.114774 -0.000424397 1.66887e-05)
(0.115445 0.00016826 -0.000348362)
(0.111972 -5.81159e-05 0.000410061)
(0.113655 -2.79151e-07 2.93358e-05)
(0.117426 0.000614683 0.00015116)
(0.119349 -0.00054418 -0.000768553)
(0.119407 -0.000420848 0.000377192)
(0.118371 3.62345e-05 -6.79265e-05)
(0.118545 -0.000485511 -0.000147475)
(0.117135 9.75661e-05 -0.00100593)
(0.113235 -0.00019007 0.000277441)
(0.119286 0.000120837 -0.000761513)
(0.117359 -9.01107e-05 -0.000130734)
(0.117693 0.000658207 0.000353873)
(0.112241 0.000703399 -0.000201527)
(0.116618 -0.000179097 -0.000229819)
(0.116536 0.000181397 0.000416359)
(0.119358 0.00080821 8.42901e-05)
(0.111142 -7.15829e-05 0.000215513)
(0.110165 -0.0005616 0.000265683)
(0.118376 6.21275e-05 -0.000409158)
(0.113752 -0.000196599 -0.000274924)
(0.118071 0.000140045 -2.7216e-05)
(0.114837 -6.14189e-05 -0.000273609)
(0.112108 -8.1046e-05 -0.000619336)
(0.116384 9.79625e-05 -0.000693403)
(0.118487 0.000387363 -0.000165438)
(0.11563 0.00023724 3.27899e-05)
(0.117587 0.00076422 -0.00018832)
(0.111514 9.22672e-05 -0.00137268)
(0.117749 0.00102494 0.000555507)
(0.117193 -7.35333e-05 -0.000383853)
(0.110239 0.000277891 -4.2715e-05)
(0.117653 -7.95568e-05 -0.000335454)
(0.117826 -0.000300958 0.000110349)
(0.118858 0.000623981 0.00131552)
(0.111764 -0.000585818 -0.000797472)
(0.111134 0.000222316 -0.000645318)
(0.114881 0.000318042 -0.000307237)
(0.115914 2.59734e-05 0.000733711)
(0.116202 -0.000181257 0.000123616)
(0.115742 0.000342847 0.000133968)
(0.115496 0.000317525 0.000416244)
(0.118242 0.000131002 -3.35036e-05)
(0.116469 -0.000246713 8.51566e-05)
(0.116762 0.000119946 9.08123e-05)
(0.112202 -0.000218181 0.000533532)
(0.118745 -0.000129705 -0.000853127)
(0.111293 -0.000150788 -0.000109224)
(0.116492 0.000724377 4.82708e-06)
(0.115331 0.000343146 -0.000114551)
(0.114839 -0.000719999 -0.000399226)
(0.11729 0.000302913 -0.000103962)
(0.114702 -0.000450529 -0.000430802)
(0.112174 -0.000623887 -0.00040572)
(0.110599 -6.44823e-05 -0.000406359)
(0.111639 -0.000235126 -0.000175531)
(0.114915 -0.000433193 -0.000328277)
(0.1176 0.000599243 0.000363281)
(0.11137 0.000411257 0.00124268)
(0.11765 -0.00020724 -8.19495e-05)
(0.115029 9.66507e-05 -0.000578627)
(0.118697 -0.000252624 -0.000377794)
(0.111059 -5.76979e-05 -0.000650925)
(0.114707 0.000364319 0.000524838)
(0.117952 -7.58345e-05 -0.000433597)
(0.1183 -0.000574618 -2.19836e-05)
(0.117759 0.000215718 -0.000288536)
(0.118549 -0.000200267 -0.000106658)
(0.11674 3.58518e-05 0.000213636)
(0.11561 0.000550931 0.00012725)
(0.118431 -6.39119e-05 0.000366775)
(0.118186 0.000259242 -1.50359e-05)
(0.118732 0.000193168 9.72018e-05)
(0.112701 0.000768503 -0.00024106)
(0.118511 -0.000451027 -0.000535857)
(0.110752 -0.000254772 0.000359473)
(0.118769 0.000624475 -8.57542e-05)
(0.116384 0.000244537 -0.000198586)
(0.115487 -3.33278e-05 -0.000312822)
(0.111612 0.000648464 4.65126e-05)
(0.115816 0.00102229 -0.00061482)
(0.109464 -0.000990727 -0.000251869)
(0.117577 -3.93187e-05 -0.000259555)
(0.115557 0.000102865 -0.000230153)
(0.118153 -7.54045e-05 -0.000217551)
(0.115158 0.000414112 -0.000257034)
(0.115553 0.000898812 -0.000218614)
(0.111293 -0.000252213 0.000488699)
(0.118754 0.000146597 5.82091e-05)
(0.112067 -0.000513647 0.000129214)
(0.109888 -0.00022897 -0.000295624)
(0.111902 -0.000203669 8.74169e-05)
(0.112444 0.000138447 0.000116007)
(0.112034 0.000649844 -2.16543e-05)
(0.115971 -0.000272022 7.83109e-05)
(0.110949 0.000142044 -8.21728e-05)
(0.117276 -0.000883344 0.000171241)
(0.117191 3.4755e-05 -0.000466139)
(0.109737 -8.782e-05 2.42068e-05)
(0.117286 0.000353214 5.6822e-05)
(0.111689 0.000312599 -0.000606499)
(0.11476 0.000753318 5.7697e-05)
(0.116246 0.00024641 8.11697e-05)
(0.115196 -0.00014661 -0.00083967)
(0.117322 4.64011e-05 -0.000127151)
(0.119183 0.000152674 -0.000686476)
(0.117579 8.98411e-05 0.000473209)
(0.116827 1.31689e-05 -0.000245472)
(0.116367 -0.000192333 -0.000811827)
(0.117538 0.000410995 0.000254151)
(0.114547 0.000142074 8.6451e-05)
(0.115078 0.000220843 0.000110387)
(0.110435 0.000647367 -0.000622501)
(0.110654 0.00222661 0.00321641)
(0.118341 7.88969e-06 8.58437e-05)
(0.116212 -1.61187e-05 -0.000153161)
(0.117185 -0.000238907 -0.000128848)
(0.117722 -1.26496e-05 2.58276e-05)
(0.11063 -0.000456183 -0.000100365)
(0.118153 -7.23378e-05 -0.000361165)
(0.118421 0.00045839 -9.08429e-05)
(0.11838 2.34428e-05 0.000165059)
(0.118324 6.95203e-05 0.000220865)
(0.117241 0.000297172 0.000311194)
(0.11678 -0.00042942 -0.000281025)
(0.118447 -7.77127e-05 -3.01834e-07)
(0.118752 -0.000123276 0.000369862)
(0.116982 0.000284517 0.000320645)
(0.11834 7.90822e-05 -0.000170618)
(0.117497 -0.000343977 -0.00041878)
(0.112719 -0.000282378 -0.000387217)
(0.118129 -9.23005e-05 0.000205561)
(0.113262 5.68588e-05 0.000495828)
(0.116078 -5.23454e-05 -6.14019e-05)
(0.116434 -0.000583986 -0.000147515)
(0.11595 -0.000525994 9.36472e-05)
(0.114593 0.000579451 -2.89609e-05)
(0.117435 0.000242161 -0.000194245)
(0.115138 0.000453897 0.000346157)
(0.116863 0.000230133 -0.00030605)
(0.114927 0.000925226 -0.000397791)
(0.110822 0.000847423 -0.000556753)
(0.119182 0.000338938 -0.00023738)
(0.116975 0.000461948 -0.000158836)
(0.114295 -2.16963e-05 0.000541542)
(0.110998 -0.000539583 -3.38361e-05)
(0.118028 -0.000425444 -9.56107e-05)
(0.11054 -0.000595314 -0.000517594)
(0.118586 -0.00024347 -9.83988e-06)
(0.11708 -4.02684e-05 0.000385324)
(0.115264 0.000907364 -0.000326932)
(0.117379 -0.00032903 0.000325484)
(0.118701 2.80762e-05 -0.000458353)
(0.11665 -0.000366336 -4.14335e-05)
(0.110786 -0.00013861 0.000156217)
(0.115353 -0.000240554 -0.000218573)
(0.113112 0.000340146 -0.000476942)
(0.115948 3.55237e-05 -8.84228e-05)
(0.110718 -0.000508677 -0.000814588)
(0.117022 -0.000122608 -0.000304636)
(0.117486 -0.000435961 0.000450894)
(0.11398 0.000354349 -0.000495314)
(0.115908 4.36424e-05 2.08035e-05)
(0.113804 -2.136e-06 -3.84973e-05)
(0.117495 -4.19393e-05 -0.000308426)
(0.114391 -0.000590844 0.000203908)
(0.115701 0.000349903 0.00024194)
(0.111152 -0.000200913 7.46455e-05)
(0.118391 -6.87875e-05 7.94022e-06)
(0.116344 -0.000457978 -0.000230474)
(0.118308 0.00023835 0.000170846)
(0.113389 0.000456343 -0.000293169)
(0.116367 -7.82528e-05 -0.000234009)
(0.116903 8.82892e-05 -0.000264646)
(0.115193 3.69067e-05 0.000410744)
(0.115776 -5.76132e-05 9.14631e-05)
(0.115802 -1.33882e-06 0.000412796)
(0.118228 -0.000355399 7.33284e-05)
(0.115957 -0.000200616 -0.000111959)
(0.111519 -7.64703e-06 -0.000170474)
(0.110115 -0.000217915 -0.000516487)
(0.117376 -0.000431048 -5.32776e-05)
(0.110716 0.000442095 -0.000679362)
(0.113586 -0.000596862 -0.000973266)
(0.11602 0.00027078 -0.000185932)
(0.116201 0.00022258 -3.61938e-05)
(0.118713 0.000530387 -0.000181126)
(0.110559 -0.000137568 -7.88945e-05)
(0.116189 -0.000100396 -0.00059978)
(0.118946 1.67027e-05 -0.000303467)
(0.11162 0.000783877 -0.00217686)
(0.111871 0.00131935 0.000177748)
(0.115471 -0.000102688 -0.000595344)
(0.112056 -0.000124346 -2.55644e-05)
(0.11667 0.000155334 -0.000416669)
(0.111897 -0.000268543 6.7868e-05)
(0.118246 -0.00069786 -0.000302759)
(0.113266 0.000122033 0.000446917)
(0.114201 0.000249186 0.000402785)
(0.119136 0.000240219 0.000634138)
(0.110112 -0.000179055 0.000325994)
(0.114749 0.000116139 0.000353851)
(0.114627 -1.73876e-05 0.000510946)
(0.118452 -9.18063e-05 -0.000594688)
(0.118572 3.53983e-05 0.000185956)
(0.117993 1.32996e-05 -0.000198754)
(0.111569 0.000654473 0.000378724)
(0.117269 -6.47923e-05 -0.000433106)
(0.117857 0.000185963 0.000675282)
(0.11366 -0.000321169 -0.00010633)
(0.118287 0.0002374 -0.000167549)
(0.117693 0.000173866 0.000157917)
(0.117252 0.000313789 8.98487e-06)
(0.118017 -0.000138775 -0.000458739)
(0.116449 6.34187e-05 -0.000209712)
(0.119131 0.000110189 0.000226652)
(0.118511 0.000624403 0.000722647)
(0.1185 -0.000151912 -0.000100123)
(0.116822 0.000431444 0.000309341)
(0.115091 -0.000192422 -0.000452437)
(0.11663 0.000257306 6.61469e-05)
(0.116287 0.000154541 -0.000324304)
(0.110833 -0.000745331 -0.000169711)
(0.115508 -0.000555372 9.91076e-05)
(0.116825 -5.98366e-05 0.000433338)
(0.118336 -0.000232172 -0.000216621)
(0.118268 -0.000316509 -0.00053436)
(0.115808 -0.000387414 0.000111095)
(0.119425 0.000842126 -2.98668e-05)
(0.117908 -1.94879e-06 -2.97654e-05)
(0.11462 -0.000627654 0.00062717)