/*--------------------------------*- C++ -*----------------------------------*\
| =========                 |                                                 |
| \\      /  F ield         | OpenFOAM: The Open Source CFD Toolbox           |
|  \\    /   O peration     | Version:  2212                                  |
|   \\  /    A nd           | Website:  www.openfoam.com                      |
|    \\/     M anipulation  |                                                 |
\*---------------------------------------------------------------------------*/
FoamFile
{
    version     2.0;
    format      ascii;
    arch        "LSB;label=32;scalar=64";
    class       surfaceVectorField;
    location    "0.022";
    object      Uf;
}
// * * * * * * * * * * * * * * * * * * * * * * * * * * * * * * * * * * * * * //

dimensions      [0 1 -1 0 0 0 0];

internalField   nonuniform List<vector> 
68568
(
(0.116888 0.000383685 -0.00014597)
(0.116276 0.000644411 -0.000171236)
(0.116002 0.000449102 -5.63277e-05)
(0.118185 0.000843665 -0.000300739)
(0.116754 -0.000278736 -0.000189873)
(0.116681 -0.000371031 -0.000358414)
(0.115843 -0.000285744 1.58588e-05)
(0.111575 -0.000113156 -0.0001343)
(0.117536 0.000236908 0.000174555)
(0.117268 -0.000387573 0.00062252)
(0.116397 -0.000229995 0.000152709)
(0.113876 -0.000494576 0.000632784)
(0.118982 -0.000159789 -0.00017297)
(0.117888 3.28773e-05 -0.00027058)
(0.119035 -5.28003e-05 -0.000162201)
(0.119195 -7.50728e-05 -0.000183531)
(0.114473 -0.000197156 -0.00016919)
(0.116893 -0.000409147 -0.000195024)
(0.113959 -0.00016597 -0.000255277)
(0.116534 -0.000434246 -0.000279269)
(0.117073 3.45478e-05 -7.67695e-05)
(0.116067 8.21536e-05 7.14934e-05)
(0.117149 7.15552e-05 8.46175e-05)
(0.112562 7.57644e-05 -0.000284706)
(0.115524 -4.37567e-06 -0.000260458)
(0.111692 -7.29106e-05 3.00122e-07)
(0.113189 0.000166919 -0.000473627)
(0.115545 2.95464e-05 -0.000323393)
(0.115621 0.000236293 0.000375666)
(0.117569 0.000160975 -8.07691e-05)
(0.116371 -5.24876e-05 -6.83318e-05)
(0.116819 -0.0001536 -0.000310266)
(0.115818 5.71509e-05 -0.000231578)
(0.115831 0.000186598 -0.000523431)
(0.117653 -0.000264302 -7.83063e-05)
(0.11716 -0.000334874 -0.000319113)
(0.118255 -2.91328e-05 -0.000538853)
(0.118482 -0.000337229 -0.000350146)
(0.118342 0.000488343 -9.52714e-05)
(0.117511 0.000353781 -0.000163731)
(0.118123 0.00031328 -0.000164486)
(0.115747 -7.05347e-05 -0.000407811)
(0.118675 -0.000381134 -0.000620738)
(0.118342 -0.000423687 -0.000539461)
(0.116783 -0.000101448 1.69402e-05)
(0.116011 -0.000286344 -6.88785e-06)
(0.111986 5.98566e-05 -0.00026865)
(0.118189 -9.53866e-05 -0.000205295)
(0.118161 -8.87547e-05 0.000172615)
(0.117597 -4.67529e-05 6.40403e-05)
(0.115668 -5.11205e-05 9.87944e-05)
(0.114963 -0.000304358 -7.85873e-05)
(0.116203 -0.000322436 -0.000182313)
(0.115731 -0.000265868 -6.58498e-05)
(0.111438 -0.000332742 -0.000115261)
(0.115575 -0.000316665 0.000653008)
(0.111777 -0.000227835 0.000354732)
(0.113261 -0.000284157 0.000588466)
(0.115722 -0.000220346 0.000253815)
(0.11532 0.000126771 0.000176318)
(0.11605 0.000220561 0.000200002)
(0.115727 0.000140944 8.3827e-05)
(0.116982 -8.90034e-06 6.54674e-05)
(0.112342 0.00036296 0.000354741)
(0.112404 -0.000300219 0.00059836)
(0.115495 -5.68906e-05 0.00022768)
(0.115412 0.000130068 -0.00056347)
(0.113433 -0.000224104 -7.24321e-05)
(0.11227 0.000161945 -0.000633515)
(0.115806 -6.79787e-05 -0.000347888)
(0.116468 5.55645e-06 -4.48726e-05)
(0.117425 -0.000269249 -3.08047e-05)
(0.117138 -0.000402142 9.83071e-05)
(0.113278 -0.000144508 6.13906e-05)
(0.111828 -0.000190351 -0.000329562)
(0.113286 6.53069e-06 -0.000233937)
(0.112074 0.000237504 -0.000264006)
(0.104153 -0.000136072 -0.000395104)
(0.11707 -0.000306387 -0.000422125)
(0.118444 -4.54072e-05 -0.000484017)
(0.117446 -0.000138639 -0.00046602)
(0.117847 -0.000179895 -0.000582547)
(0.117898 0.000391055 -0.000198774)
(0.117757 0.000373271 -2.84674e-05)
(0.115723 0.000458367 2.40379e-05)
(0.118428 0.000543744 -0.000170965)
(0.113286 0.000212924 -0.000191977)
(0.113598 -0.000101465 -0.000141886)
(0.115791 0.00020594 -0.000268553)
(0.116162 5.62715e-05 1.70212e-05)
(0.11151 -1.21956e-06 7.17474e-05)
(0.114915 -7.27973e-05 -7.60128e-05)
(0.113041 0.000261948 -0.000383931)
(0.11505 -1.8568e-05 0.000178549)
(0.115716 0.000133596 -6.56923e-05)
(0.115726 -0.000184788 0.000129462)
(0.117573 -5.58978e-05 0.00063081)
(0.116331 -1.71933e-05 -0.000133212)
(0.117299 -0.000128075 -4.10182e-05)
(0.113094 -6.76344e-05 0.000311613)
(0.119551 0.000213549 0.000178211)
(0.117596 0.000252639 -9.97815e-05)
(0.119732 0.000139355 -0.000128347)
(0.118513 -8.47653e-05 -0.000595805)
(0.11643 0.000273444 0.000371876)
(0.111469 0.000457922 -0.000117786)
(0.112966 0.000361803 0.000144548)
(0.11792 0.000208896 0.000205027)
(0.117107 4.8171e-05 0.000321355)
(0.117917 0.000202531 0.000207434)
(0.118589 -0.000232442 -0.000182227)
(0.117455 -2.36578e-05 -2.11945e-05)
(0.118685 -0.000188388 -0.000129458)
(0.117029 -9.68901e-05 -0.000149052)
(0.115214 -0.000271243 -0.000103621)
(0.115214 -0.000115119 -0.000186894)
(0.112357 0.000219575 4.66293e-05)
(0.111971 -0.000306307 0.000307295)
(0.117996 0.000164457 -0.000381934)
(0.117486 2.40474e-05 -0.000278781)
(0.117858 1.20566e-06 -0.000389318)
(0.118306 -2.09429e-05 -0.000335471)
(0.113368 -4.66797e-05 -0.000226716)
(0.112443 -0.000209602 4.77826e-05)
(0.116115 -0.000128984 2.36616e-05)
(0.116228 1.15289e-05 6.59457e-05)
(0.113455 0.000166916 5.8556e-05)
(0.111521 5.63044e-05 7.31353e-05)
(0.111502 -6.85573e-05 -0.00019543)
(0.104838 -5.9316e-05 5.43042e-05)
(0.118165 0.000434346 -0.000230731)
(0.111374 6.06256e-05 -1.17894e-05)
(0.111485 -0.000380418 -0.00014167)
(0.109608 -0.000201445 4.18014e-05)
(0.104219 -0.000230363 -2.05606e-05)
(0.118629 -0.000285507 0.000299867)
(0.118488 -0.000481773 0.000198234)
(0.118683 -0.000122688 0.000434791)
(0.117967 -0.000357213 0.000300963)
(0.117189 -0.000223107 0.000299953)
(0.117184 -0.000168998 0.000466138)
(0.118352 -0.000181301 0.000534014)
(0.110368 0.000464414 -0.000352484)
(0.11147 -0.000246899 4.35667e-06)
(0.104952 7.92825e-05 -0.000109217)
(0.114338 -6.66928e-05 -0.000137826)
(0.112283 -9.23307e-05 -0.000348745)
(0.105243 8.60444e-05 -0.000402612)
(0.112793 -0.000104178 0.00016774)
(0.1128 -0.000352335 -3.45513e-05)
(0.113652 -0.000297274 -2.34225e-05)
(0.104413 -0.000217484 0.000158448)
(0.11813 -9.24121e-05 8.96992e-05)
(0.116729 -7.84534e-05 -1.12393e-05)
(0.11715 -0.000227631 -0.000341331)
(0.118144 -0.000725218 -0.000395626)
(0.116969 -0.000720564 -0.000659542)
(0.118264 -0.000516264 -0.00078405)
(0.117626 -0.000435396 0.000542087)
(0.117843 -0.000587804 0.000180409)
(0.117239 -0.000149245 0.000220316)
(0.118759 -0.00050588 -0.000181949)
(0.117851 -0.000531427 -1.29902e-05)
(0.117392 -0.000323765 -0.000316309)
(0.118706 -0.000162948 -0.000415181)
(0.115835 9.6454e-06 -0.00026371)
(0.114643 0.000378035 -0.000404975)
(0.110721 -4.15747e-06 -0.000234262)
(0.116129 0.000324675 -0.000459526)
(0.116417 4.99378e-05 -0.000340483)
(0.114293 0.000197669 -0.000696009)
(0.113136 0.000127793 -0.000274036)
(0.115298 -0.000132736 0.000192687)
(0.115013 1.32903e-05 6.02422e-05)
(0.116953 3.4477e-05 -0.000226827)
(0.11598 -0.000147219 0.000132324)
(0.117756 -9.53407e-05 -0.000336517)
(0.117475 -0.000160724 -0.000362047)
(0.117637 0.000140131 -0.000290724)
(0.118739 0.00026599 -0.000609435)
(0.119074 -6.72966e-06 -0.000261539)
(0.113285 -4.45648e-05 -0.000437344)
(0.111389 0.000141835 -0.000176336)
(0.111957 8.43435e-05 -8.28184e-05)
(0.103697 0.000134018 -0.00021218)
(0.117547 0.000528846 8.12066e-05)
(0.116725 0.000403812 5.19104e-05)
(0.118312 0.000420632 7.78748e-05)
(0.117854 0.000234052 0.000106594)
(0.110599 -0.000218252 2.08689e-05)
(0.104454 -6.40399e-05 0.000203339)
(0.11414 -6.10996e-05 -0.000249081)
(0.113948 -0.00026387 -4.21763e-05)
(0.11664 -0.000100641 -0.000264041)
(0.116667 -0.000204497 -8.32789e-05)
(0.114485 0.000131325 0.0002164)
(0.114944 7.41308e-05 0.000179607)
(0.116702 -0.000203519 5.0889e-05)
(0.113106 2.51622e-05 -0.000602122)
(0.11199 -3.21222e-06 -0.000294248)
(0.113292 0.000116787 -0.000127124)
(0.104633 0.000363224 -0.000259899)
(0.117471 0.000158697 0.00046449)
(0.117192 -0.000100283 0.000158128)
(0.116347 8.40722e-05 0.000395352)
(0.113209 8.55017e-05 0.000377179)
(0.1174 -0.000325219 0.000144003)
(0.116403 -1.74964e-05 0.00038698)
(0.11734 -0.000137429 6.59244e-06)
(0.112605 -9.39221e-07 0.000215654)
(0.111418 -1.09756e-05 -0.00013125)
(0.111542 0.00037694 -0.000110212)
(0.105394 8.44368e-05 -0.000108747)
(0.115691 -0.000325481 -0.000419932)
(0.115406 2.0739e-05 -0.000260791)
(0.11565 -3.21305e-05 -0.000109759)
(0.117216 0.00037145 5.89228e-05)
(0.1161 0.000391227 0.000145818)
(0.117993 0.000147772 -0.000135405)
(0.116658 0.000282735 -0.00020489)
(0.115448 -0.000122089 -0.000360516)
(0.113192 -0.000177953 -0.000486573)
(0.113271 -0.000158352 -0.000268806)
(0.105282 -0.000264915 -0.000236976)
(0.117258 -4.29158e-05 -4.92226e-05)
(0.117328 0.000130678 8.03621e-05)
(0.112146 9.72944e-05 -0.000133237)
(0.115386 9.9828e-06 -0.000121513)
(0.115656 0.000278952 -3.81116e-05)
(0.117196 0.000313711 1.03795e-05)
(0.115826 0.000277169 0.000146034)
(0.118704 -1.11757e-05 -0.000558607)
(0.118862 -0.000117487 -0.000460955)
(0.118756 -0.000213627 -0.000393335)
(0.118097 -0.000113914 -0.000374112)
(0.114852 0.000310546 -0.000913561)
(0.116807 0.000196979 -0.00077996)
(0.117416 -0.000171814 -0.000652361)
(0.116105 -0.000307078 6.88377e-05)
(0.117103 -0.000256374 1.39519e-05)
(0.116098 -0.000106293 0.000147091)
(0.11273 -4.24545e-05 -0.000187339)
(0.113383 -0.00080989 -0.000330371)
(0.113804 0.00018801 -0.000247671)
(0.104646 -5.72814e-05 -0.000356047)
(0.118573 0.000326934 3.65005e-05)
(0.11882 0.000243504 -0.000266964)
(0.118275 9.48927e-05 -0.000100119)
(0.118852 0.000138607 -0.000383468)
(0.117924 0.000293699 -9.13242e-05)
(0.116524 0.00020848 -6.45455e-05)
(0.117433 -2.86775e-05 -0.000207054)
(0.117114 0.000155723 -0.000322083)
(0.114082 -0.000199365 -0.000810859)
(0.11378 0.000134374 -0.000295852)
(0.115011 -0.000101316 -0.000660921)
(0.10827 -0.000609073 -0.000628359)
(0.11682 -0.000222612 -0.000501587)
(0.116858 -0.000303774 -0.000719861)
(0.118199 -0.000246652 -0.000402303)
(0.118055 -0.000205516 -0.000467623)
(0.117592 -0.000128454 -0.000208024)
(0.11645 -0.00018246 -0.000287486)
(0.116362 7.87828e-05 -0.000124946)
(0.112988 0.000122206 -0.000476136)
(0.117662 0.000345656 0.000215918)
(0.117272 0.000354039 -5.60512e-05)
(0.11582 0.000133398 -0.000184614)
(0.111645 -6.13746e-05 -0.000654708)
(0.111256 2.42904e-06 -0.000469389)
(0.112625 0.000176941 -0.000682389)
(0.104101 0.000293541 -0.000333126)
(0.118004 -0.000498392 -8.36638e-05)
(0.117893 -0.000547202 0.000116278)
(0.118828 -0.000506774 5.61688e-05)
(0.113821 0.000930993 -0.000545844)
(0.116585 8.95623e-05 -0.000361823)
(0.116223 0.000232888 -0.000357178)
(0.116216 -0.000217759 0.000417436)
(0.116588 1.09609e-05 0.000191727)
(0.117001 9.19331e-05 0.000306382)
(0.112187 -8.74002e-05 0.000309934)
(0.113427 -0.000220221 -0.000116316)
(0.117822 1.36713e-05 2.46917e-05)
(0.115909 0.000238242 -1.92795e-05)
(0.117882 0.000374345 -4.81633e-05)
(0.111734 0.000364428 -0.000248036)
(0.114914 -9.04497e-05 -3.04799e-05)
(0.115135 1.21048e-05 7.70277e-05)
(0.109387 5.79183e-05 -0.000226982)
(0.110367 0.00018043 0.000258005)
(0.109979 -0.000103164 0.000109448)
(0.104511 9.28237e-06 0.000113162)
(0.118588 6.39504e-05 0.000154449)
(0.117262 2.97921e-05 -0.00012535)
(0.118588 -0.000100671 9.86205e-05)
(0.118023 -0.000352686 0.000165188)
(0.118181 -0.000380386 -0.000236905)
(0.117848 -1.09279e-05 -8.95533e-05)
(0.11779 -0.000122855 -0.000250282)
(0.112643 -0.000152912 4.50904e-05)
(0.115802 -0.000206564 -0.000125103)
(0.117235 -0.000227711 -0.000127431)
(0.117509 -7.57093e-05 -0.000177564)
(0.115801 3.28731e-05 0.000100802)
(0.118552 -7.33919e-05 -0.000130787)
(0.117156 -8.96512e-06 -0.000274664)
(0.117373 0.000103508 5.34534e-05)
(0.118558 -9.51609e-05 -6.4084e-05)
(0.118661 5.39976e-06 0.000157497)
(0.118029 -0.000101791 2.62727e-06)
(0.118765 -7.36982e-05 -0.000193669)
(0.117596 -0.000114797 -0.000194728)
(0.117444 -0.000203564 -0.000301856)
(0.11857 -4.00006e-05 -0.000509008)
(0.11158 0.00119715 -0.000805777)
(0.114087 0.000277669 -0.00113172)
(0.113167 0.000596696 -0.000801009)
(0.102811 0.000210845 -0.000436591)
(0.117654 -0.000143889 -0.000188008)
(0.117802 -0.000262504 -0.000187296)
(0.118677 -0.000158873 -0.000420988)
(0.116718 -0.000142963 0.000224417)
(0.117909 -8.00107e-05 9.50278e-05)
(0.112464 7.42899e-06 -2.73758e-05)
(0.113663 -0.000126435 7.516e-06)
(0.113345 -3.82017e-06 1.6294e-05)
(0.116095 -0.00020657 0.000180237)
(0.115859 -0.000265712 -4.02393e-05)
(0.112667 -0.000320877 -0.000790301)
(0.113165 -0.000430782 -5.46973e-05)
(0.104047 -0.000335559 -8.94606e-05)
(0.114985 0.00038795 -0.000632478)
(0.11633 0.000179744 -0.000756457)
(0.111619 -0.00023144 -0.000389598)
(0.112477 -0.000431727 -7.1244e-05)
(0.115136 -0.000517715 -0.000136454)
(0.112071 -0.000337722 -0.000318286)
(0.114957 -0.000373942 -0.00016251)
(0.116511 0.000582565 1.5481e-05)
(0.116384 0.000746407 -8.18184e-05)
(0.115247 0.000871809 0.000279199)
(0.112602 0.000629987 0.000234235)
(0.114822 0.000310976 -0.000155743)
(0.115497 -1.97391e-05 -0.000268619)
(0.117384 0.000277764 -2.71772e-05)
(0.117987 -0.000147364 1.38447e-05)
(0.117709 -0.000104436 8.76263e-05)
(0.112284 -6.5858e-05 0.00011863)
(0.116018 8.81998e-05 0.000178401)
(0.11572 0.000293024 9.71153e-05)
(0.116827 6.67133e-05 7.44128e-05)
(0.112046 2.96481e-05 -0.000214763)
(0.112584 -0.000582503 9.95465e-05)
(0.1131 -0.000179682 -2.26448e-05)
(0.112096 -0.000737355 -0.000255415)
(0.104459 -0.000484162 0.000125632)
(0.117151 0.000193632 0.000126049)
(0.117214 -9.49365e-05 0.000115559)
(0.115255 3.62934e-05 -0.0002832)
(0.117339 -0.000214844 -0.000157998)
(0.117112 0.000111657 0.000200769)
(0.115926 -8.44758e-05 0.000272904)
(0.115897 0.000426021 7.54784e-05)
(0.114882 -0.000283527 -0.000350668)
(0.111589 -5.09358e-06 -0.000182341)
(0.11134 -2.56462e-05 -0.000230739)
(0.112829 -0.000314077 -0.000266137)
(0.112054 7.615e-05 -0.000329932)
(0.104426 -5.94115e-05 3.37523e-05)
(0.113437 6.09467e-06 -0.000272704)
(0.104226 2.09314e-05 -0.0003066)
(0.117663 -0.000301094 -9.75133e-06)
(0.118997 -8.25373e-05 0.000260259)
(0.119089 -0.00020829 -5.46633e-05)
(0.105321 9.57374e-05 0.000219636)
(0.11208 -0.00041938 -0.000591192)
(0.113 -0.000302567 -0.000236393)
(0.112602 -0.000566211 -0.000526272)
(0.103709 -0.000244085 -0.000794102)
(0.112036 0.000562505 -9.98403e-05)
(0.115006 0.000437739 -2.05037e-05)
(0.111521 -0.000113059 0.000495496)
(0.110609 0.000159578 0.000215632)
(0.112066 0.000428789 0.000469282)
(0.104412 -5.96982e-05 0.000232057)
(0.117845 -0.000728376 0.000174216)
(0.116186 -0.000742552 0.0003797)
(0.116483 -0.000578653 0.000277084)
(0.117902 -0.000664903 0.000111732)
(0.11438 -0.000199815 -0.000569521)
(0.113482 -0.000240821 -0.000258994)
(0.112894 -0.000127929 -0.000235617)
(0.104123 0.000112356 -0.000245327)
(0.117074 0.000169497 -0.000244813)
(0.116296 0.000174045 -0.000236306)
(0.116693 -0.00043769 -0.000210196)
(0.113245 1.99646e-05 -0.000381703)
(0.113365 -0.000362393 -0.000421946)
(0.113329 -0.000333332 -0.000510567)
(0.115648 -0.00039523 -0.000520555)
(0.117466 8.59893e-05 -0.000384241)
(0.117359 0.000143426 -0.000408242)
(0.116573 0.000204036 -0.00033468)
(0.112148 0.000366072 -0.00050134)
(0.112969 3.19887e-05 6.20781e-05)
(0.111422 -0.000309254 0.00012798)
(0.11228 -0.000379402 0.000408123)
(0.104327 -0.000295979 -1.06516e-05)
(0.116737 0.000351574 5.87004e-05)
(0.113237 0.000311177 -0.000391123)
(0.112978 -6.29688e-05 -1.03546e-05)
(0.116242 -0.0005795 -2.1527e-05)
(0.113207 -0.000381965 8.02282e-05)
(0.116012 -0.000425781 0.000282712)
(0.117561 -9.31952e-06 -7.45791e-05)
(0.115903 -8.96083e-05 -0.000214338)
(0.117432 -6.84527e-05 -0.00019557)
(0.117047 0.000154533 0.000199852)
(0.117117 -0.000171068 2.79073e-05)
(0.112603 -0.000198974 0.000106862)
(0.115721 -0.000407484 -0.000128838)
(0.116083 -0.00015713 -0.000325253)
(0.117221 -6.76713e-05 -0.000182261)
(0.116703 -0.000301986 -6.48871e-05)
(0.116985 -0.000330452 0.000259961)
(0.118155 -0.000196327 0.00018003)
(0.118649 -0.000340424 0.00018405)
(0.117256 5.66911e-05 -0.000479113)
(0.117197 1.27251e-06 -0.00050273)
(0.118732 0.000100836 -0.000559671)
(0.115393 0.000257997 -0.000407883)
(0.116872 0.000194976 -0.000289575)
(0.117177 -4.93595e-05 -0.000612368)
(0.114295 -0.000625781 -0.000218814)
(0.117937 0.000274103 -0.000588272)
(0.11626 -0.000254613 0.000189578)
(0.117735 0.00017275 0.000352068)
(0.117678 5.13592e-05 0.000144183)
(0.117859 -0.000182034 0.000163111)
(0.116646 9.31429e-05 6.66632e-05)
(0.11727 -0.000103979 0.00016723)
(0.111856 -2.73666e-05 2.39032e-05)
(0.111868 -3.28501e-05 -0.000468517)
(0.111922 -0.000215439 -0.000257083)
(0.112545 -0.000635712 -0.000263136)
(0.115324 -0.000536714 -0.00024433)
(0.115524 -0.0004834 -0.000297605)
(0.116881 -0.000397616 9.63806e-05)
(0.116664 -0.000289808 -7.14865e-05)
(0.118297 -0.000231629 -0.000294652)
(0.118319 -0.000222402 6.02731e-06)
(0.117768 -0.000167006 -0.000278499)
(0.116494 -0.000318076 -0.000372479)
(0.116286 7.90201e-05 -0.000238339)
(0.117694 0.000158369 -0.000106879)
(0.117602 0.000315539 -0.000297899)
(0.118529 6.38433e-05 -0.00052376)
(0.117895 0.000156607 -0.000119256)
(0.118499 -6.92452e-05 -0.000465492)
(0.117605 -0.000276413 2.28683e-06)
(0.117011 -3.4363e-05 1.17349e-05)
(0.116099 -0.000616515 0.000186838)
(0.118019 -0.000405387 6.65545e-05)
(0.116912 -7.19185e-05 3.53022e-05)
(0.113991 -9.18445e-05 -0.000361084)
(0.117636 -5.288e-05 -1.32588e-05)
(0.113781 0.000112322 -0.000610329)
(0.117702 -4.27655e-05 -8.94798e-05)
(0.118492 -0.000112285 -0.000404008)
(0.117444 1.62481e-05 -0.000304049)
(0.117631 1.99253e-06 0.000228985)
(0.112207 -3.65325e-06 -7.89398e-05)
(0.111458 -0.000172042 -0.000399108)
(0.105175 -7.68183e-05 -0.000282502)
(0.111994 -0.000600183 -0.000711879)
(0.104102 -0.000386278 -0.00017462)
(0.118705 0.000255566 0.000633032)
(0.117272 0.000268169 0.000176294)
(0.116417 -0.000340126 -0.000326454)
(0.112205 -0.000238019 -0.000222825)
(0.117441 1.81421e-05 -0.000597607)
(0.117228 -3.95825e-05 -0.000400554)
(0.116305 -0.000154887 -0.000242094)
(0.111853 -0.00011868 -0.000253829)
(0.118437 0.000300568 0.000549847)
(0.11849 8.48604e-05 0.000579823)
(0.118544 0.000133329 0.000524887)
(0.1176 0.000236233 0.000566644)
(0.117262 0.000568441 0.00019975)
(0.117267 0.000406537 0.000141084)
(0.118184 0.000490217 0.000101185)
(0.111199 -0.00010716 -0.000305628)
(0.112687 -7.72585e-06 -0.000155792)
(0.103706 -0.000245168 -0.000362291)
(0.113531 0.000267053 -0.000331524)
(0.112632 -0.000113645 -0.000290682)
(0.111943 0.000180126 -0.000396193)
(0.104442 -0.000101231 -0.000648959)
(0.118077 -6.79591e-05 1.878e-05)
(0.1166 -0.000215437 -0.000371408)
(0.118167 -0.00033417 -0.000119683)
(0.115488 -0.000186983 -0.000260195)
(0.117217 -0.000300616 -0.000333914)
(0.112335 -0.000188453 -0.000429002)
(0.112874 -0.000130131 -0.000533414)
(0.104406 -0.000259367 -0.000315333)
(0.11361 -0.000252646 -0.000155128)
(0.111794 -1.53716e-05 -3.11681e-05)
(0.111487 -9.5196e-06 0.000172904)
(0.105361 -0.000102529 7.51759e-05)
(0.118232 -0.000449591 7.50045e-05)
(0.117143 -0.000302233 0.000254822)
(0.116988 -0.000247144 -7.88892e-05)
(0.118212 -0.000195002 -0.000129951)
(0.113331 -4.31493e-05 -0.00100873)
(0.113141 0.000150957 -0.000619986)
(0.115495 -9.47881e-05 -0.00065585)
(0.104837 -0.000147198 -0.000895411)
(0.116003 0.000243395 0.000150693)
(0.116432 -0.000316678 0.000162564)
(0.116233 -7.82669e-05 0.000201526)
(0.112182 -8.51992e-05 0.000247674)
(0.11354 -0.000374425 -0.000325144)
(0.116149 -0.000119672 -0.000510488)
(0.11599 6.55613e-05 -0.000648628)
(0.116629 -8.34149e-05 -0.000135427)
(0.118197 -0.000138723 -2.16495e-06)
(0.117307 5.30959e-05 0.000261722)
(0.114006 0.000281998 -0.000844896)
(0.112059 0.00044373 -0.000551163)
(0.113577 0.000832874 -0.000621838)
(0.103458 -0.000189087 -0.000642342)
(0.119151 -5.11903e-05 7.00726e-05)
(0.119072 -0.000142096 7.08991e-05)
(0.117441 2.19447e-05 4.226e-06)
(0.119076 5.34182e-05 5.23325e-05)
(0.117349 -1.7335e-06 -0.000421586)
(0.115118 -6.88047e-05 -0.000316835)
(0.114688 6.25949e-05 -0.000582781)
(0.117144 -0.000142884 -0.000193835)
(0.114294 -0.000859836 -0.000263175)
(0.114604 -0.000758935 1.3053e-05)
(0.104657 -0.000275569 -0.000364632)
(0.11348 -0.000587364 0.000804879)
(0.112429 -0.000233745 0.000741871)
(0.113927 -0.00053495 0.00050582)
(0.103644 2.20554e-05 0.000153709)
(0.115815 -0.000286235 -9.48904e-05)
(0.111832 -0.000271163 -4.67484e-05)
(0.113675 -0.000265979 -0.000698307)
(0.119047 -0.000120465 -0.000184814)
(0.117979 -9.80263e-05 -0.000282155)
(0.112243 0.000287078 0.000274629)
(0.11154 0.000146145 0.000215021)
(0.113083 -8.88936e-05 -7.68568e-05)
(0.103745 -5.1636e-05 0.000216252)
(0.114144 -0.000149126 -0.000697945)
(0.11404 0.000334599 -0.000416926)
(0.104695 -0.00033514 -0.000766428)
(0.111577 -0.000142629 0.000263477)
(0.113693 9.70431e-06 0.000251853)
(0.111857 -0.000342797 8.34883e-05)
(0.104849 -0.000184933 9.29069e-05)
(0.111751 -0.000789231 -0.0001559)
(0.113868 -0.000656937 0.000406118)
(0.112764 -0.000920948 -0.00011059)
(0.103382 -0.000460929 -0.000213733)
(0.114589 0.000190606 -0.000315057)
(0.115693 0.00010951 0.000106235)
(0.115973 -0.000148617 -7.91173e-05)
(0.111206 -1.92329e-05 -1.93522e-05)
(0.112421 0.000452112 0.000139573)
(0.111759 0.00025579 0.000258306)
(0.104767 0.000160546 0.00020526)
(0.118066 -0.000535511 -8.52965e-06)
(0.117641 -0.000392929 8.84127e-05)
(0.118281 -0.000449455 -5.28768e-05)
(0.117949 -0.000456863 0.000109381)
(0.117311 -0.000244697 0.000191678)
(0.117399 -0.000162364 1.70639e-05)
(0.11871 -0.000261669 0.000179161)
(0.118961 -0.000254201 0.000251554)
(0.110525 0.000154633 -0.000873583)
(0.110636 0.000109976 -0.000317406)
(0.112329 0.000154652 -0.00045543)
(0.105266 -0.000238719 -0.000405447)
(0.113545 -0.000363698 0.00036714)
(0.114289 -0.000978536 4.07874e-05)
(0.114247 -0.000451051 0.000128214)
(0.107715 -0.000369772 0.000133903)
(0.115449 0.000694485 -0.00026031)
(0.116783 0.000420354 -0.000435089)
(0.116827 0.000356296 -0.000582534)
(0.112846 0.000143822 -0.000691518)
(0.113462 -2.16609e-05 2.15027e-05)
(0.111345 -7.3183e-05 -8.19317e-05)
(0.110862 -0.000228473 -0.000216837)
(0.104903 9.90708e-05 -9.83403e-05)
(0.117443 -7.88209e-05 0.000397575)
(0.112924 1.06113e-05 2.07515e-05)
(0.117126 -0.000383747 -0.000371593)
(0.118432 -5.14593e-05 -0.000384132)
(0.117779 -0.000121655 -0.000148761)
(0.11756 -5.37106e-05 -0.00018501)
(0.116505 0.000352494 1.29639e-05)
(0.115533 0.000324283 6.72269e-05)
(0.112649 0.000441963 0.000248947)
(0.11784 0.000112117 2.21834e-05)
(0.117071 0.000158638 0.000329497)
(0.1178 9.37505e-05 0.000373489)
(0.117785 0.000187482 0.00028312)
(0.117822 -9.65494e-05 -3.18347e-05)
(0.117692 -0.000315073 -7.90278e-05)
(0.112477 -0.000237213 -0.000102306)
(0.116546 -9.52529e-05 -0.000271103)
(0.115617 -0.000198196 -6.10848e-05)
(0.116531 -0.000202214 3.00072e-06)
(0.111112 -1.10184e-05 -0.000340009)
(0.116671 -3.68682e-05 -7.90117e-05)
(0.11693 0.00023976 2.44348e-05)
(0.112278 0.000134143 9.04935e-05)
(0.11309 -0.000453092 0.000544394)
(0.116065 -0.000421901 0.000415288)
(0.11624 -0.000662218 0.000499071)
(0.115024 5.77618e-05 0.000187057)
(0.116329 -0.000251436 -0.000108471)
(0.11642 -0.000149381 5.55862e-05)
(0.112045 3.11354e-05 0.00021934)
(0.112927 0.000437777 1.45236e-05)
(0.110599 0.00037171 -0.000370236)
(0.103882 0.000875059 -0.000349349)
(0.116974 -1.63009e-05 4.93254e-05)
(0.118175 0.000113592 -0.000175051)
(0.118589 0.000575958 -0.000222925)
(0.116001 -0.000282635 0.000167556)
(0.116219 -0.000239912 0.000366991)
(0.110751 -0.000526915 0.00048324)
(0.11719 0.000312383 0.00012323)
(0.118025 4.47999e-06 9.93169e-05)
(0.117911 0.000245397 -5.00449e-05)
(0.118026 0.000303578 -9.71017e-06)
(0.1129 -5.76144e-05 -0.000103286)
(0.113587 -0.000169151 0.000119462)
(0.113105 -0.000363049 -1.45486e-05)
(0.103797 9.43565e-05 5.05791e-05)
(0.111571 4.66651e-05 0.00032337)
(0.111398 -0.000164924 0.000288831)
(0.112654 -8.54323e-05 0.000500781)
(0.104239 -0.000243126 0.000291151)
(0.116676 -0.000189419 -0.00034317)
(0.117532 -0.000113803 0.000135297)
(0.118355 -0.000255537 -5.56606e-05)
(0.118048 3.8226e-05 0.000116547)
(0.116879 -0.000289069 -0.000231331)
(0.118044 1.99173e-06 -0.000291463)
(0.116555 0.000135203 -0.000226425)
(0.114843 -0.000162805 0.000653688)
(0.11675 -0.000193036 0.000165999)
(0.116369 -0.000138644 0.000346431)
(0.115315 -0.000200293 0.000640215)
(0.115996 -0.000115825 0.000122013)
(0.117209 -0.000294606 6.73307e-06)
(0.112448 -6.35264e-05 0.000226118)
(0.117539 -0.00011864 -0.000481891)
(0.117656 9.14517e-05 -0.000373539)
(0.11615 -1.23123e-05 -0.000135917)
(0.112276 0.000217756 -0.000342322)
(0.11633 6.59049e-06 -0.000533372)
(0.113471 -7.38558e-05 -0.000521654)
(0.116227 0.000164141 -0.000385909)
(0.113395 0.000266078 0.000250347)
(0.116238 0.00038796 0.000387473)
(0.11409 0.000147084 0.000577204)
(0.116539 0.000272798 0.000305019)
(0.118235 0.000126377 -0.000368333)
(0.116315 0.000296695 -0.000419001)
(0.116765 -0.000134928 -0.000627413)
(0.113333 5.00487e-05 -4.35291e-07)
(0.104503 -5.63903e-05 -0.000233715)
(0.113252 0.000108996 -5.62891e-05)
(0.115809 -4.78265e-05 -6.16829e-05)
(0.118503 0.000315686 -2.93004e-05)
(0.11834 6.61124e-05 -2.90905e-05)
(0.117748 0.000148607 0.000112706)
(0.11843 0.000117326 0.000191371)
(0.117677 -0.000416834 -3.47015e-05)
(0.117629 -0.000520823 -0.000207883)
(0.117578 -0.000459844 -0.000170433)
(0.117718 -0.000466596 -0.000337849)
(0.11768 -0.000523795 6.20515e-05)
(0.117506 -0.000551075 5.0945e-05)
(0.116038 -0.000502566 0.000191097)
(0.115408 -0.000946651 0.000183604)
(0.11708 -0.000912093 -0.000107281)
(0.116582 -0.000900975 -0.000311076)
(0.115511 -0.000145674 -0.000254279)
(0.115428 8.34505e-05 -0.000479134)
(0.112416 -1.47183e-05 0.000160536)
(0.117626 0.000186359 -0.000344669)
(0.112897 -7.16208e-05 -0.000277602)
(0.115527 0.000478987 -0.000297007)
(0.115621 0.000502089 -0.000453359)
(0.116498 3.72411e-05 -0.000326595)
(0.111957 -7.32141e-05 -0.000282058)
(0.117968 0.000116519 -0.00022153)
(0.116696 0.000218799 -0.000251296)
(0.117257 2.74814e-05 -0.000364454)
(0.104678 1.02915e-05 -0.000191569)
(0.116334 0.000121131 -0.000191472)
(0.112648 -4.94264e-05 -9.49651e-05)
(0.113801 0.000154106 -0.000179361)
(0.116176 0.000218057 0.000129225)
(0.113552 0.000237155 -0.000175082)
(0.116427 0.000462026 -8.15751e-05)
(0.116743 -3.17938e-05 -0.000266638)
(0.116302 -1.38001e-05 -0.000324667)
(0.116064 6.81361e-05 -4.63342e-05)
(0.113023 0.000155602 -0.00033167)
(0.118041 -3.7444e-05 -0.000362106)
(0.116608 -0.000133122 -0.000529261)
(0.117545 -0.000235078 -0.000509832)
(0.116304 -0.000324548 -0.000445596)
(0.116083 -0.000464678 -0.000373321)
(0.117824 -0.000312573 -0.000251142)
(0.117027 -0.00035862 -0.000120057)
(0.117791 0.000174179 -0.00038327)
(0.118012 -0.000101216 -0.000298526)
(0.112439 -0.000619369 -0.000373007)
(0.113279 -0.000793238 -0.000424512)
(0.10395 -9.91772e-05 -0.000354562)
(0.115332 -0.000493473 0.000190567)
(0.116794 -0.000375548 -8.01621e-06)
(0.118119 -0.000292217 -0.000198149)
(0.116512 -0.000133425 -0.000227319)
(0.118273 -0.000340451 -0.000156978)
(0.118136 -4.85818e-05 0.000120034)
(0.117855 5.67049e-05 -0.000123486)
(0.117185 0.000197798 0.000205248)
(0.114012 -0.000191532 -0.000437055)
(0.117318 -0.000219253 -0.00050731)
(0.109679 0.000246424 0.000197132)
(0.111368 -0.000163309 0.000652461)
(0.111135 -0.000280456 0.000352271)
(0.102653 -0.000333515 0.000413632)
(0.117168 -0.000428163 1.12349e-06)
(0.116583 -0.000489964 0.0001821)
(0.113158 -0.000444608 0.000643616)
(0.111145 -0.000788424 -0.00030488)
(0.104832 -0.000359259 -0.000194227)
(0.115668 0.000284528 -0.000199102)
(0.115826 0.00037742 0.000119032)
(0.102142 6.91642e-05 -0.000221605)
(0.116678 -0.00018552 0.000290392)
(0.118231 -0.000307227 0.000288787)
(0.111909 -0.000170447 0.00023759)
(0.114156 0.000351901 0.000296643)
(0.114739 -0.000141882 4.86374e-05)
(0.112655 0.000392398 -0.000187757)
(0.112748 0.000173731 -0.000256929)
(0.113111 0.000314657 -0.00048185)
(0.103795 3.72592e-05 -0.000106535)
(0.116375 -0.00012557 0.000115191)
(0.115888 -5.72973e-05 0.00015454)
(0.115356 -4.82053e-05 0.000212623)
(0.117042 0.000538689 -0.00021398)
(0.117839 0.000535022 -0.000217879)
(0.115361 -1.80347e-06 -0.000153491)
(0.116127 -7.09073e-05 -0.000287259)
(0.117937 -0.000438845 -0.000196752)
(0.117512 0.000125046 0.000236917)
(0.113467 -0.000386804 -4.7521e-05)
(0.113289 -0.000171367 -0.000120682)
(0.103346 -0.000164722 5.38904e-05)
(0.112011 -0.000682258 8.76042e-05)
(0.110887 -0.000428482 0.000405123)
(0.10454 -0.000400504 0.000103163)
(0.117412 -0.000617261 0.000239742)
(0.115892 -0.000157087 0.00040694)
(0.116848 -0.000432853 0.000471972)
(0.11575 -0.000303743 2.78625e-05)
(0.11756 0.000216458 -0.000551144)
(0.118379 9.40433e-05 -0.000543666)
(0.116361 0.000234191 -0.000425631)
(0.112682 0.000474008 0.000106344)
(0.113365 0.000195136 2.79796e-05)
(0.103078 0.000308155 -0.000406944)
(0.117956 -0.000648246 6.60857e-05)
(0.117956 -0.000675168 0.000242956)
(0.117743 -0.000548728 0.000226487)
(0.114771 -5.62745e-05 -0.000181995)
(0.112849 0.000145174 -0.000433015)
(0.104771 1.28365e-05 -0.000341411)
(0.111392 -0.000129036 0.000169709)
(0.111388 -0.000369153 7.39542e-05)
(0.105216 -0.000190725 -5.19697e-05)
(0.116055 0.000183723 -0.000284394)
(0.115805 0.000159607 -0.000215143)
(0.11695 0.000283988 -2.1324e-05)
(0.112476 -0.00016227 -0.000223482)
(0.115857 -0.000218516 -0.000279693)
(0.11753 -0.000332757 3.2157e-05)
(0.115709 -0.00021273 0.000362567)
(0.116988 -0.000198558 1.16729e-05)
(0.114794 -0.000885021 0.00029327)
(0.116153 -0.000664215 8.0707e-05)
(0.11624 -0.000683436 -1.34223e-05)
(0.110774 -0.000623688 -5.48072e-05)
(0.111778 -0.000225853 0.000489276)
(0.114983 0.000102917 0.000443794)