/*--------------------------------*- C++ -*----------------------------------*\
| =========                 |                                                 |
| \\      /  F ield         | OpenFOAM: The Open Source CFD Toolbox           |
|  \\    /   O peration     | Version:  2212                                  |
|   \\  /    A nd           | Website:  www.openfoam.com                      |
|    \\/     M anipulation  |                                                 |
\*---------------------------------------------------------------------------*/
FoamFile
{
    version     2.0;
    format      ascii;
    arch        "LSB;label=32;scalar=64";
    class       volScalarField;
    location    "0.02";
    object      epsilon;
}
// * * * * * * * * * * * * * * * * * * * * * * * * * * * * * * * * * * * * * //

dimensions      [0 2 -3 0 0 0 0];

internalField   nonuniform List<scalar> 
31639
(
2.13082
2.13331
2.15726
2.1599
2.13253
2.11972
2.14756
2.15083
2.12998
2.15775
2.16668
2.15476
2.13884
2.14259
2.11644
2.13158
2.13494
2.11747
2.0907
2.1292
2.12612
2.15341
2.15904
2.10701
2.11412
2.12887
2.12895
1.84258
2.13037
2.15817
2.15444
2.1169
2.15449
2.10793
2.12936
2.1626
2.10602
2.17024
2.15895
2.11768
2.11864
2.10722
2.14943
2.1519
2.16253
2.15379
2.12433
2.11431
2.12847
2.15717
2.14969
2.08658
2.17526
2.13591
2.10475
2.13744
2.11409
2.13903
2.13216
2.11914
2.12239
2.14646
2.13506
2.12248
2.1297
2.1522
2.10682
2.13983
2.13559
2.15457
2.16084
2.08004
2.14412
2.13301
2.17206
2.138
2.15544
2.12006
2.12277
2.15349
2.10318
2.12235
2.1586
2.14878
2.12751
2.15551
2.16014
2.1598
2.09531
2.17024
2.13968
2.11495
2.10325
2.12596
2.08593
2.11662
2.11779
2.13214
2.14189
2.1203
2.16199
2.15896
2.11603
2.10935
2.10099
2.15861
2.1158
2.10611
2.113
2.13489
2.11328
2.11451
2.13296
2.11771
2.13046
2.11691
2.14822
2.14052
2.16734
2.13197
2.13733
2.15465
2.13825
2.12407
2.13576
2.15765
2.13577
2.10071
2.10378
2.14465
2.14558
2.12685
2.1285
2.11843
2.13365
2.13786
2.11066
2.10908
2.14945
2.13667
2.13186
2.15257
2.15852
2.09838
2.12148
2.15059
2.14372
2.12464
2.11071
2.16061
2.12648
2.14867
2.09251
2.13186
2.11536
2.15391
2.11633
2.1353
2.08424
2.10451
2.15433
2.12611
2.1345
2.11468
2.12588
2.1118
2.13119
2.15865
2.14976
2.08862
2.07205
2.11249
2.12665
2.13899
2.15915
2.15092
2.14315
2.15966
2.14181
2.12437
2.12403
2.08889
2.09258
2.11575
2.14089
2.16045
2.08135
2.15945
2.13009
2.10407
2.1688
2.14605
2.11542
2.12638
2.12714
2.10834
2.12506
2.1452
2.09409
2.11373
2.14751
2.17368
2.10057
2.10586
2.13959
2.13652
2.11724
2.1136
2.15585
2.11463
2.13132
2.12695
2.15046
2.14559
2.1403
2.14691
2.11938
2.12843
2.16968
2.15003
2.14126
2.13564
2.11114
2.16144
2.1113
2.15424
2.1633
2.11991
2.11989
2.13637
2.13249
2.16079
2.09963
2.12382
2.11204
2.12139
2.08621
2.13334
2.14129
2.09819
2.12094
2.10556
2.10602
2.10934
2.15714
2.13415
2.11042
2.10333
2.08218
2.13611
2.08959
2.14311
2.12211
2.15634
2.15636
2.12796
2.1247
2.14163
2.13365
2.13928
2.16136
2.15072
2.14828
2.15841
2.12217
2.13029
2.09252
2.10638
2.11561
2.10013
2.11464
2.10313
2.13736
2.16499
2.16281
2.14111
2.10295
2.12202
2.11665
2.14851
2.11958
2.16452
2.16079
2.12468
2.10703
2.15689
2.10953
2.11365
2.13871
2.11429
2.1735
2.10718
2.10261
2.11901
2.16891
2.11359
2.16042
2.1418
2.15669
2.16932
2.13667
2.09362
2.12985
2.11439
2.12666
2.10955
2.11163
2.08404
2.12304
2.14836
2.16533
2.13731
2.1175
2.14585
2.14729
2.10815
2.08786
2.15927
2.15991
2.11351
2.14827
2.15906
2.11587
2.1574
2.12149
2.13321
2.15328
2.14107
2.14543
2.15315
2.13203
2.11156
2.0974
2.11495
2.16443
2.17832
2.17202
2.12631
2.08322
2.15239
2.14963
2.111
2.1001
2.1006
2.11625
2.10194
2.14082
2.08568
2.12337
2.15773
2.1737
2.11345
2.16771
2.12609
2.123
2.11602
2.11758
2.1287
2.12312
2.16386
2.11361
2.13682
2.16376
2.10621
2.13738
2.12761
2.11692
2.12084
2.12858
2.09932
2.16548
2.14491
2.11847
2.12992
2.11312
2.12923
2.1498
2.15729
2.17807
2.12844
2.12322
2.10604
2.11729
2.10494
2.146
2.14051
2.15848
2.15385
2.09691
2.16061
2.14208
2.15539
2.12524
2.14917
2.10763
2.10933
2.11707
2.11453
2.11993
2.1423
2.10429
2.13694
2.13757
2.14639
2.1391
2.10461
2.16486
2.14979
2.13328
2.1114
2.13134
2.13494
2.13408
2.1096
2.12632
2.15033
2.11988
2.13033
2.14819
2.12883
2.09414
2.11584
2.14299
2.14104
2.1398
2.11973
2.13333
2.17549
2.11965
2.14019
2.15429
2.12981
2.11836
2.11535
2.16644
2.14231
2.1579
2.1473
2.13066
2.11095
2.12876
2.16639
2.15793
2.13807
2.16452
2.10211
2.12602
2.14418
2.15142
2.17206
2.11138
2.13582
2.10487
2.14523
2.12043
2.12523
2.14692
2.11324
2.10908
2.13998
2.12183
2.13249
2.12937
2.12121
2.14029
1.80165
2.11658
2.12585
2.1102
2.14795
2.17424
2.13511
2.11948
2.09041
2.13324
2.12018
2.14414
2.12039
2.12649
2.12465
2.11944
2.12108
2.1177
2.1227
2.11227
2.11264
2.13887
2.10041
2.15716
2.14764
2.15228
2.13915
2.16414
2.16326
2.16392
2.1317
2.14957
2.14005
2.14639
2.17797
2.12089
2.14441
2.15442
2.12002
2.08622
2.15301
2.13409
2.09771
2.13612
2.14349
2.18029
2.14971
2.11188
2.16843
2.18541
2.14753
2.1492
2.13564
2.11282
2.11547
2.1232
2.14051
2.16401
2.15359
2.12848
2.10971
2.09812
2.11685
2.08745
2.12879
2.11549
2.11409
2.1017
2.12663
2.12301
2.12631
2.14481
2.13451
2.11025
2.12686
2.17957
2.12961
2.12038
1.86946
2.12496
2.12481
2.13646
2.1255
2.10795
2.14062
2.08736
2.13398
2.13993
2.12889
2.15777
2.12685
2.09564
2.16051
2.14312
2.14986
2.11672
2.08892
2.15507
2.11072
2.14197
2.15922
2.11444
2.1282
2.1785
2.14289
2.14896
2.1662
2.15233
2.11559
2.1549
2.14826
2.11672
2.1415
2.08953
2.0847
2.13695
2.10702
2.18268
2.17254
2.18686
2.13631
2.13168
2.15928
2.14265
2.10789
2.11913
2.13839
2.16115
2.19408
2.13029
2.13766
2.1244
2.19853
2.13258
2.104
2.15546
2.08337
2.15907
2.11223
2.09515
2.10307
2.14934
2.15967
2.12974
2.08783
2.12022
2.10151
2.1234
2.15036
2.154
1.83228
2.12095
2.15523
2.13126
2.13566
2.13671
2.13301
2.13137
2.14598
2.13413
2.12983
2.13197
2.1476
2.13694
2.13803
2.12708
2.13329
2.17098
2.13099
2.11767
2.09982
2.15631
2.12432
2.14423
2.08454
2.15276
2.15352
2.14175
2.12456
2.11011
2.15478
2.15832
2.15037
2.12868
2.14326
2.15303
2.17509
2.16831
2.16572
2.15261
2.12588
2.10087
2.16005
2.17239
2.12501
2.11533
2.11765
2.09564
2.14246
2.14673
2.17174
2.13433
2.11131
2.09546
2.13662
2.09181
2.1258
2.15707
2.16062
2.096
2.13972
2.12992
2.10224
2.12765
2.09992
2.15748
2.12818
2.08274
2.1048
2.09126
2.13379
2.14351
2.14657
2.15817
2.09322
2.11525
2.11927
2.11607
2.08979
1.77427
2.15695
2.12758
2.13206
2.15966
2.11217
2.15757
2.16354
2.14636
2.1359
2.14273
2.14169
2.15757
2.15819
2.14087
2.16072
2.14419
2.12628
2.15418
2.11317
2.15325
2.09606
2.12165
2.09892
2.17148
2.1282
2.14188
2.1518
2.15228
2.1474
2.11973
2.11379
2.12849
2.13503
2.08682
2.12302
2.1593
2.10949
2.1725
2.15809
2.17258
2.11916
2.12889
2.16309
2.16366
2.11799
2.13156
2.11586
2.10437
2.13471
2.08665
2.12827
2.13406
2.09364
2.10146
2.13766
2.13067
2.13062
2.14255
2.12237
2.13115
2.12096
2.12352
2.13991
2.1419
2.12949
2.0942
2.10901
2.1081
2.08475
2.07357
2.15699
2.14998
2.13295
2.09299
2.10754
2.14425
2.09358
2.0845
2.10458
2.11793
2.17398
2.14024
2.16285
2.12599
2.10636
2.15227
2.09404
2.11351
2.11788
2.14859
2.16505
2.14854
2.13285
2.13619
2.16689
2.12122
2.15767
2.14697
2.13691
2.16996
2.12698
2.1852
2.16514
2.17801
2.13317
2.12667
2.13519
2.12168
2.1204
2.08881
2.15862
2.14166
2.1771
2.13635
2.16958
2.15826
2.09216
2.15487
2.1568
2.14828
2.14808
2.10641
2.0855
2.16542
2.10965
2.13406
2.12362
2.11727
2.11331
2.14189
2.1087
2.14177
2.1058
2.12915
2.10533
2.16146
2.13716
2.12333
2.11807
2.14924
2.14493
2.11738
2.11532
2.11415
2.11501
2.17376
2.13352
2.16676
2.12606
2.13978
2.14628
2.12218
2.12209
2.14821
2.11813
2.14924
2.16041
2.17242
2.15396
2.13997
2.1158
2.16348
2.15919
2.13514
2.14077
2.15089
2.12663
2.16699
2.14083
2.0896
2.12199
2.15943
2.0999
2.13933
2.19628
2.15893
2.10847
2.09539
2.17203
2.09905
2.11243
2.09095
2.15103
2.17067
2.10785
2.12535
2.13935
2.14756
2.17949
2.10895
2.1498
2.128
2.12842
2.17123
2.16531
2.10462
2.091
2.10884
2.16365
2.13899
2.1654
2.12205
2.13645
2.12871
2.12686
2.15119
2.12388
2.10399
2.09208
2.08894
2.11478
2.13784
2.09014
2.14335
2.11159
2.11227
2.09283
2.11747
2.12819
2.10016
2.1196
2.12866
2.14746
2.1384
2.13411
2.11235
2.10129
2.10397
2.14842
2.11977
2.16181
2.145
2.13257
2.17697
2.12383
2.13963
2.11968
2.13032
2.12872
2.15176
2.14508
2.15589
2.14343
2.16786
2.14703
2.08396
2.12922
2.14772
2.09871
2.11307
2.1657
2.13326
2.18528
2.09598
2.10939
2.15111
2.1116
2.15173
2.17923
2.12011
2.10831
2.1257
2.12071
2.1665
2.16972
2.1478
2.13594
2.15755
2.09896
2.14071
2.17441
2.14489
2.18132
2.11231
2.13208
2.14178
2.13075
2.13752
2.09283
2.12851
2.16315
2.10496
2.1405
2.1598
2.11542
2.12696
2.14594
2.16421
2.10979
2.13556
2.16436
2.14986
2.18799
2.14725
2.12165
2.13558
2.1361
2.15243
2.15605
2.13978
2.13825
2.16012
2.18142
2.13432
2.14213
2.13178
2.11303
2.162
2.13522
2.16266
2.11
2.14281
2.1392
2.13085
2.18813
2.1447
2.13761
2.1355
2.14048
2.16365
2.13013
2.09892
2.20117
2.10543
2.11693
2.15626
2.16178
2.14633
2.12791
2.14163
2.18118
2.14401
2.15547
2.1383
2.12356
2.14736
2.12068
2.16154
2.1519
2.18127
2.12733
2.09487
2.13688
2.15844
2.14572
2.15603
2.16262
2.18067
2.15525
2.14379
2.12584
2.12475
2.1172
2.1177
2.17123
2.17378
2.1455
2.16095
2.14866
2.10986
2.18251
2.14026
2.13462
2.11949
2.14258
2.16267
2.13607
2.1406
2.09425
2.13271
2.12628
2.13985
2.15527
2.12727
2.15404
2.18819
2.12375
2.09479
2.12379
2.15875
2.15558
2.11787
2.13003
2.16193
2.15487
2.10657
2.15805
2.13373
2.16857
2.11595
2.11865
2.14057
2.13439
2.1456
2.14249
2.14284
2.16331
2.14677
2.16655
2.1434
2.13118
2.14753
2.07355
2.08428
2.15341
2.17824
2.14632
2.18273
2.21282
2.14738
2.11051
2.15591
2.12852
2.14553
2.13379
2.13565
2.11552
2.16439
2.12013
2.12514
2.11432
2.14045
2.1833
2.15138
2.16269
2.08353
2.13805
2.15161
2.1772
2.08177
2.17075
2.12671
2.1425
2.12795
2.129
2.17036
2.10867
2.14256
2.1064
2.14262
2.12896
2.17617
2.16733
2.14597
2.15853
2.12488
2.14068
2.11942
2.18432
2.1544
2.12949
2.10551
2.11575
2.11616
2.15416
2.1716
2.11892
2.13514
2.12102
2.13731
2.16975
2.13352
2.09798
2.13437
2.17678
2.16577
2.19184
2.15568
2.20167
2.1598
2.15232
2.16406
2.12673
2.15398
2.09057
2.17573
2.16779
2.14763
2.10461
2.14138
2.1467
2.15507
2.15214
2.16676
2.13769
2.14186
2.1738
2.14844
2.17957
2.13128
2.18163
2.16361
2.13961
2.14022
2.1384
2.12144
2.15214
2.12512
2.191
2.15354
2.14163
2.12392
2.13875
2.1324
2.16006
2.16826
2.15756
2.17865
2.15161
2.11094
2.11698
2.09333
2.15058
2.15265
2.13013
2.13138
2.1135
2.1252
2.07232
2.12249
2.13982
2.15994
2.15652
2.12523
2.14294
2.13383
2.0996
2.11284
2.14674
2.13825
2.13085
2.11816
2.13147
2.11519
2.15652
2.16977
2.1375
2.10724
2.11532
2.12134
2.10715
2.17685
2.12777
2.128
2.11533
2.15991
2.16748
2.15501
2.17085
2.16544
2.14541
2.14561
2.16683
2.13147
2.09578
2.09603
2.16568
2.11976
2.13613
2.17635
2.18185
2.16899
2.14659
2.13318
2.10965
2.15829
2.18367
2.18206
2.14423
2.16235
2.13585
2.1826
2.14352
2.11067
2.16946
2.13315
2.1397
2.12502
2.15717
2.08303
2.16255
2.15284
2.1056
2.14139
2.13037
2.13434
2.15664
2.15579
2.13689
2.12316
2.16495
2.1216
2.1178
2.14507
2.13654
2.07354
2.16141
2.17493
2.15772
2.16461
2.12886
2.12912
2.10593
2.14053
2.13178
2.15568
2.11836
2.13758
2.09832
2.13839
2.16522
2.11405
2.11747
2.0955
2.15684
2.09813
2.12251
2.1183
2.0842
2.16691
2.1605
2.14953
2.15069
2.10373
2.1069
2.18778
2.17836
2.16816
2.16292
2.10405
2.15487
2.1642
2.12666
2.15393
2.17054
2.17406
2.14753
2.13221
2.13733
2.1389
2.16879
2.18717
2.08884
2.13392
2.17265
2.16382
2.16631
2.12308
2.10241
2.13654
2.16134
2.11373
2.11349
2.15389
2.09709
2.09917
2.15156
2.16854
2.13487
2.18743
2.1135
2.14789
2.17118
2.11852
2.13923
2.11128
2.1394
2.13775
2.10974
2.10619
2.13275
2.13305
2.09479
2.12243
2.10168
2.12098
1.95085
2.12009
2.16835
2.16692
2.10536
2.14012
2.12159
2.14286
2.16444
2.14198
2.17333
2.14053
2.08188
2.10025
2.14101
2.12942
2.15153
2.11564
2.12991
2.13864
2.17378
2.15924
2.12748
2.14733
2.11484
2.16417
2.13522
2.12379
2.10873
2.10162
2.07459
2.13956
2.13081
2.14904
2.14068
2.06968
2.07687
2.10092
2.10915
2.1915
2.18397
2.14854
2.17828
2.16253
2.15143
2.12359
2.13673
2.15014
2.10477
2.13667
2.17239
2.13918
2.14815
2.18658
2.12764
2.16604
2.16985
2.13723
2.12059
2.12995
2.12008
2.13542
2.14371
2.12611
2.10424
2.17266
2.15246
2.13371
2.17205
1.75176
2.13582
2.10504
2.12884
2.17228
2.11527
2.11056
2.12363
2.09638
2.14275
2.12634
2.09018
2.13939
2.08068
2.09767
2.11114
2.10551
2.12156
2.09429
2.1212
2.13454
2.14253
2.13578
2.14651
2.14056
2.13314
2.14103
2.11265
2.09881
2.15502
2.15349
2.11704
2.17815
2.10732
2.16453
2.12344
2.11389
2.16685
2.16182
2.11634
2.14055
2.16776
2.14135
2.10398
2.07651
2.12023
2.16804
2.13055
2.13318
2.12895
2.12151
2.10605
2.11478
2.10581
2.1315
2.11601
2.14033
2.16231
2.10378
2.1229
2.17728
2.15478
2.13926
2.16403
2.16648
2.09259
2.121
2.15649
2.17981
2.1585
1.87447
2.15207
2.16722
2.13987
2.14196
2.19053
2.15325
2.1663
2.14361
2.11363
2.12929
2.18056
2.12964
2.1352
2.12342
2.14481
2.16161
2.18097
2.14715
2.08964
2.10227
2.1221
2.13948
2.16694
2.13066
2.14044
2.13843
2.13026
2.10267
2.13059
2.14593
2.16502
2.16243
2.16902
2.11125
2.18935
2.11537
2.15659
2.11402
2.11019
2.13595
2.17808
2.11665
2.14283
2.18498
2.15528
2.12823
2.16101
2.13994
2.12207
2.09853
2.16041
2.12593
2.15707
1.90181
2.08011
2.12188
2.10666
2.14346
2.10496
2.11367
2.08907
2.14141
2.11949
2.16198
2.0999
2.14287
2.14136
2.10265
2.09202
2.16047
2.15122
2.1277
2.13888
2.12347
2.09076
2.16507
2.16387
2.12595
2.13762
2.11943
2.15162
2.12325
2.16216
2.16955
2.11713
2.15559
2.1536
2.17991
2.13015
2.13211
2.15151
2.13634
2.10621
2.13977
2.12284
2.15726
2.14518
2.14856
2.12011
2.12524
2.15058
2.11773
2.13304
2.11429
2.09976
2.12078
2.10021
2.15804
2.11311
2.10066
2.12186
2.14131
2.12201
2.15791
2.10163
2.15577
2.11167
2.13543
2.10091
2.141
2.17864
2.1414
2.14317
2.13712
2.07931
2.10959
2.15495
2.14478
2.15747
2.13518
2.1353
2.14471
2.0681
2.17503
2.12993
2.16596
2.09687
2.14742
2.16831
2.13366
2.12535
2.09991
2.12036
2.12211
2.1399
2.1374
2.15891
2.16911
2.12009
2.16434
1.92373
2.1444
2.15518
2.15638
2.16217
2.11469
2.16528
2.12018
2.09437
2.08995
2.14646
2.17158
2.07611
2.1357
2.15535
2.13812
2.13051
2.18533
2.14908
2.14245
2.15701
2.12382
2.16893
2.09827
2.1047
2.16592
2.1562
1.97419
2.11018
2.11701
2.16549
2.14264
2.14209
2.13007
2.09668
2.1399
2.14282
2.15157
2.15762
2.16361
2.1091
2.12308
2.11778
2.17186
2.13955
2.15541
2.16378
2.16033
2.14941
2.14899
2.15797
2.14608
2.10069
2.11581
2.10094
2.14254
2.10394
2.14909
2.11466
2.15988
2.16028
2.13236
2.10184
2.1943
2.11586
2.14552
2.13295
2.1368
2.14547
2.10706
2.15372
2.14433
2.15219
2.08823
2.09523
2.13938
2.10963
2.09968
2.15859
2.1417
2.07603
2.16203
2.11743
2.12668
2.14224
2.09661
2.0914
2.11356
2.11047
2.14857
2.10272
2.11126
2.12017
1.93765
2.11985
2.14693
2.14941
2.16975
2.13069
2.15255
2.14059
2.08688
2.16396
2.13618
2.15975
2.1545
2.18495
2.14558
2.11839
2.11026
2.13404
2.16575
2.11063
2.14914
2.13542
2.1543
2.09033
2.14433
2.12788
2.09439
2.13273
2.14534
2.13046
2.13975
2.14653
2.18015
2.16943
2.15035
2.16815
2.11889
2.10745
2.18328
2.17675
2.12906
2.15834
2.09144
2.08893
2.14502
2.12198
2.12082
2.17563
2.12573
2.09821
2.14499
2.11419
2.13683
2.12333
2.13173
2.14558
2.14438
2.14093
2.10764
2.14769
2.1524
2.12368
2.14823
2.12245
2.12532
2.16422
2.1266
2.14653
2.17429
2.14658
2.1441
2.16559
2.13582
2.11451
2.15707
2.09157
2.12609
2.06938
2.1202
2.15107
2.13124
2.1632
2.10052
2.15285
2.09661
2.17227
2.16556
2.15363
2.14144
2.14188
2.11516
2.1291
2.14051
2.13571
2.14307
2.11044
2.09674
2.17206
2.16697
2.08157
2.10816
2.10599
2.18522
2.1169
2.16478
2.08004
2.15173
2.16157
2.154
2.16236
2.13816
2.08348
2.11488
2.17589
2.11542
2.16707
2.1409
2.17423
2.09753
2.1288
2.11335
2.13686
2.13811
2.11373
2.10226
2.12543
2.149
2.1105
2.13199
2.11868
2.16462
2.13957
2.12792
2.14477
2.1558
2.16868
2.17725
2.13061
2.09329
2.09999
2.15104
2.16979
2.15748
2.11366
2.14235
2.088
2.10577
2.1253
2.11816
2.09985
2.1459
2.1617
2.05514
2.12094
2.16589
2.10483
2.14509
2.13218
2.12215
2.1626
2.14726
2.10968
2.16262
2.11576
2.15949
2.16006
2.09517
2.17871
2.12028
2.1079
2.11689
2.09492
2.10662
2.09932
2.10925
2.15682
2.17085
2.12413
2.11029
2.13639
2.15095
2.14516
2.1879
2.15686
2.11192
2.09063
2.12363
2.09324
1.84962
2.15579
2.13469
2.10841
2.13603
2.09404
2.09783
2.11221
2.15438
2.07558
2.13388
2.11898
2.14478
2.12208
2.09265
2.15023
2.14392
2.10958
2.17564
2.10184
2.10415
2.14297
2.1589
2.10649
2.1587
2.14893
2.11089
2.1779
2.20457
2.12032
2.13405
2.07751
2.11691
2.15255
2.17198
2.1378
2.13357
2.10076
2.099
2.11578
2.16629
2.13441
2.16937
2.15432
2.15596
2.17809
2.13822
2.16296
2.10671
2.17674
2.13002
2.10291
2.18722
2.09721
2.11922
2.17897
2.10851
2.17271
2.12642
2.13228
2.13091
2.13863
2.1218
2.13681
2.14926
2.09998
2.11313
2.17355
2.13
2.14834
2.14011
2.15453
2.10303
2.14767
2.12616
2.14695
2.18189
2.12328
2.13505
2.16343
2.11492
2.13157
2.15888
2.10326
2.11958
2.0998
2.1319
2.08313
2.15304
2.11867
2.15868
2.13091
2.17092
2.11779
2.0875
2.16333
2.11752
2.11968
2.11506
2.10491
1.81958
2.07682
2.12036
2.12561
2.1547
2.09122
2.15584
2.16524
2.18402
2.14574
2.1689
2.08352
2.10703
2.13446
2.11481
2.09606
2.14881
2.12306
2.092
2.11051
2.10202
1.88693
2.14331
2.15299
2.0946
2.1202
2.1565
2.14539
2.18089
2.09401
2.13764
2.11423
2.1286
2.1559
2.08849
2.11934
2.17056
2.10496
2.11133
2.14529
2.18331
2.17071
2.20637
2.18035
2.16001
2.17139
2.13845
2.13058
2.16769
2.14187
2.15576
2.09875
2.1433
2.05217
2.1594
2.12103
2.15565
2.09967
2.12355
2.12738
2.13739
2.07416
2.16064
2.11218
2.12573
2.094
2.15232
2.13462
2.16197
2.13603
2.13137
2.11575
2.12077
2.11127
2.14487
2.12543
2.20183
2.13506
2.12588
2.14455
2.0934
2.12494
2.15242
2.117
2.07007
1.90241
1.93402
2.04634
2.11184
2.16365
2.14964
2.14178
2.14723
2.15163
2.1139
2.12429
2.09468
2.1576
1.76018
2.15182
2.08722
2.0989
2.13121
2.10924
2.13825
2.14892
2.15457
2.08846
2.11504
2.11591
2.12355
2.05215
2.12559
2.10665
2.13723
2.13734
2.11058
2.13166
2.1111
2.1225
1.90741
2.12199
2.07941
2.11179
2.09629
2.12562
2.11451
2.10554
2.12621
2.1672
2.14441
2.17369
1.78558
2.13087
2.1632
2.13106
2.15567
2.08262
2.16549
2.14331
2.17004
2.09748
2.14285
2.16942
2.16643
2.14148
2.15876
2.13053
2.12538
2.11729
2.08931
2.1219
2.12191
2.11843
2.12845
2.08125
2.12693
2.13729
2.09401
2.07294
2.11704
2.12478
2.12744
2.12717
2.13419
2.12984
2.14881
2.13205
2.14856
2.12169
2.19934
1.82801
2.13863
2.1278
2.14499
2.15695
2.17582
2.12689
2.12668
2.16274
2.09817
2.15031
2.14265
1.9615
2.11409
2.15833
2.15353
2.14446
2.13281
2.12642
2.18555
2.16705
2.11851
2.16256
2.14946
2.16348
2.09878
2.10712
2.10091
2.15333
2.10932
2.08847
2.12331
2.09733
2.06801
2.13039
2.13784
2.1365
2.10747
2.15487
2.14981
2.13325
2.1423
2.12317
2.11108
2.09321
2.12819
2.10658
2.08306
2.1262
2.15736
2.13345
2.1051
2.04945
2.13395
2.09256
2.10816
2.1058
2.12657
2.10889
2.12994
2.07509
2.08538
2.06579
2.14306
1.98017
2.12149
2.14867
2.12336
2.12354
2.13787
2.211
2.0919
2.09181
2.14749
2.14293
2.13082
2.12658
2.16186
2.10522
2.16539
2.12298
2.1637
2.17315
1.73945
2.12701
2.15543
2.15406
2.10803
2.10807
1.83932
2.15322
2.14508
2.09699
2.11924
2.13032
2.13403
2.11768
2.09259
2.15914
2.14274
2.15508
2.11532
2.16783
2.11885
2.09629
2.10126
2.13438
2.12046
2.12039
2.16002
2.15078
1.90496
2.15431
2.15384
2.15156
2.10967
2.14984
2.07874
2.10279
2.09446
2.11463
2.03482
1.99659
2.11967
2.12059
2.13633
2.13325
2.04752
2.09459
2.14852
2.13187
2.08345
2.10688
2.15417
2.15872
2.11341
2.08894
2.12794
2.1495
2.1329
2.1639
2.13426
2.11382
2.09167
2.11876
2.11358
2.15106
2.13112
2.09825
2.11287
2.17276
2.10544
2.14226
2.09653
2.1063
2.04885
2.12106
2.1299
2.1334
2.0967
2.13347
2.15646
2.10963
2.13994
2.09189
2.13154
2.05826
2.1305
2.12356
2.06947
2.11854
2.13704
2.14393
2.13867
1.83182
2.14682
2.10042
2.11836
2.08234
2.1203
2.1148
1.8459
2.15347
2.08491
1.75417
2.08953
2.16665
2.14495
2.1274
2.12291
1.83227
2.12158
2.11054
2.14344
2.16447
2.11295
2.1403
2.14109
2.09101
2.10057
2.09001
2.12905
2.12276
2.10279
2.15564
2.13269
2.14707
2.15106
2.0943
2.17057
2.13661
2.17547
2.1413
2.11408
2.11787
2.1645
2.01839
2.13305
2.1094
2.15073
2.21747
2.13402
2.13835
2.09582
2.10959
2.10423
2.13452
2.11847
2.07731
2.12575
2.10706
2.1471
2.05603
2.14259
2.08686
2.13035
2.08923
2.06842
1.96263
2.14769
2.15915
2.10786
2.15935
2.1171
2.1071
1.99459
1.95512
2.12874
2.00679
2.11532
2.10476
2.1646
2.11294
2.15453
2.03444
1.77382
2.12291
2.15807
1.78194
2.14498
2.17343
2.11344
2.15586
2.0261
2.12528
2.1396
2.16268
1.84003
2.17243
2.14101
2.04311
2.15063
2.12238
2.15651
1.77236
2.11433
2.13752
2.15319
2.16177
2.10929
2.13604
2.11539
2.1126
2.12529
2.11186
2.11384
2.10244
1.98868
2.13409
2.09935
2.09907
2.16328
2.17727
2.1246
2.04977
2.15788
2.14853
2.09731
2.10181
2.09914
2.13331
2.17134
2.14718
2.16258
2.12383
2.13457
2.08966
2.15304
2.13752
2.14815
2.07547
2.1015
1.9737
2.1115
2.18708
2.13485
2.10645
2.11755
2.09497
2.05746
2.10555
2.14601
2.11595
1.7591
1.92648
2.07598
2.09276
2.13221
2.08428
2.10205
2.13585
2.03536
2.10489
2.15382
2.08412
2.18361
2.01715
2.15321
2.06329
2.1546
2.14148
2.13553
2.16323
2.10031
2.04751
2.06881
2.13619
2.14099
2.12909
2.13878
2.01921
2.1381
2.09924
2.12871
2.13212
2.15082
2.09928
2.12106
1.77891
2.15721
2.16855
2.08869
2.12197
2.09123
2.11534
2.15375
2.13626
2.14078
2.1619
2.1307
2.09671
2.09054
2.19625
1.99364
2.09993
1.9775
2.1296
2.16503
2.10915
2.15917
2.19919
2.1699
2.14513
2.09967
2.0378
2.10035
1.85591
2.09867
2.13359
2.12206
2.08312
2.14313
2.12491
2.18105
1.99903
2.08727
2.11208
1.98869
2.15785
2.03548
2.04496
2.07165
2.14848
2.13401
2.0915
2.14044
1.99232
2.13002
1.83321
1.84351
2.12416
2.01795
2.09364
2.12549
2.13152
2.12646
2.10419
2.13158
2.0868
2.11292
2.00788
2.08274
2.12232
2.11444
2.09489
2.00022
2.153
2.11858
2.11192
2.0593
2.12001
2.07664
2.12162
2.12217
2.15239
2.13388
2.13334
2.07009
2.13012
2.16274
2.14202
1.80798
1.84055
1.99606
2.15301
2.04212
2.12298
1.81561
2.15924
2.13781
2.11823
2.1008
2.14151
2.10216
2.09739
2.17658
2.1548
2.0804
2.18998
1.90168
2.08257
1.96144
2.13055
2.13287
2.10315
2.12279
2.08973
1.90604
2.06945
1.91077
2.07953
2.02597
2.15512
2.0118
2.11754
2.05664
2.14813
2.06149
1.9754
2.1732
2.11358
2.14121
2.07462
2.12778
2.04324
2.11417
2.13092
2.08219
2.08387
2.09486
2.10873
2.12542
1.858
2.0927
2.1006
2.10079
2.05606
2.14404
2.12235
2.07296
2.12785
2.14156
2.00557
2.10086
2.12514
1.76511
2.17254
1.88124
2.10639
2.15633
2.15421
1.93933
2.15631
2.16564
2.10518
2.10963
2.10983
2.11966
1.83707
2.09999
2.06808
2.15506
2.17797
2.02008
2.1641
2.04978
2.04625
1.90025
1.80464
1.85225
2.17413
2.00643
2.15534
2.07836
2.05651
2.08232
2.15143
1.99686
1.74857
2.05792
2.14253
2.13747
2.13186
1.77623
2.15445
2.13954
2.13703
2.1742
2.08811
2.00071
2.15014
2.04476
2.10708
2.08345
2.06018
2.07284
2.1133
2.10438
2.00499
1.95731
2.02947
2.13334
2.07626
2.05882
2.0061
2.08051
2.03495
2.12708
2.15275
2.06941
1.91848
2.13794
2.13916
1.96353
2.13061
2.08361
2.17892
1.84914
2.14853
2.04595
2.13644
2.14579
2.08574
1.9988
2.19917
2.10145
2.1151
2.0554
1.98054
2.13995
2.15638
1.91327
1.92789
2.08063
1.91618
1.96803
2.1064
1.87472
2.16205
1.8963
2.03691
2.07686
2.01383
2.06973
2.04924
1.90797
2.10316
2.01393
2.14246
2.05901
2.14885
2.03773
2.07567
1.76863
2.07982
1.84217
1.88625
2.11526
2.07767
2.03825
2.17354
2.11941
2.11148
2.13953
1.87599
2.08611
2.12347
2.113
2.13137
2.01398
2.15705
2.13339
2.08997
2.09649
2.13209
2.05737
2.07655
1.98039
2.15099
2.19419
2.15964
2.07557
1.98964
2.13338
2.04502
1.87307
1.95204
2.12459
2.05838
2.06085
2.05191
2.08703
2.09985
1.87556
2.11071
2.09236
1.91291
2.17567
2.06608
2.02928
2.15813
2.06695
2.13347
2.11638
1.96416
2.08867
1.90631
1.9526
2.16705
2.12084
1.83845
2.15472
2.02809
2.10374
2.1181
2.07215
2.13427
2.01868
2.09702
2.08397
2.07681
2.0683
2.1348
2.00807
1.91594
1.99163
1.84903
2.08484
2.0419
1.92045
2.15316
2.11988
1.87452
1.89352
2.09628
1.91892
2.03389
1.98413
2.02676
2.14765
1.9722
2.15285
2.07745
2.05513
1.96977
2.07068
1.97968
1.80244
1.93887
2.00065
1.90644
2.13523
2.02257
2.08649
1.9488
2.12838
2.08332
2.05129
1.94504
2.05768
1.97497
2.0374
2.1211
2.07033
1.84132
1.99765
1.99612
2.17857
2.15681
2.13451
2.16786
2.12377
2.13084
2.13603
2.10915
2.13827
2.17775
2.03555
2.14232
2.1139
2.07871
1.76007
2.11912
2.07909
2.10953
1.98778
2.15251
1.81932
1.8486
1.82162
2.13167
1.96927
2.01269
2.13
1.92015
2.17407
1.92841
2.14837
2.18429
2.17625
2.17563
1.77801
2.07505
2.18503
1.99871
1.91307
1.99613
1.87552
1.95035
2.05022
1.93319
2.04745
2.07384
1.93887
1.99157
2.0591
2.04498
2.15737
2.10689
1.98077
2.01394
1.99769
2.10264
2.10013
2.16191
1.92354
1.79811
1.92324
2.03164
1.94199
1.92231
2.17536
2.1479
1.98148
2.10618
1.81798
1.81562
2.05424
1.84079
2.1001
2.10994
2.04815
2.01581
2.13036
2.15083
2.07024
2.09227
1.99749
1.82415
1.83785
2.12104
1.95139
2.12815
1.97201
2.03201
2.05034
2.07677
2.08987
2.09447
2.17688
1.78759
1.97124
2.14567
2.07407
2.04718
2.18221
2.10299
2.09458
2.05371
1.98664
2.01142
1.86286
1.84064
2.01657
1.84742
1.95322
1.9957
1.94085
1.84993
2.04975
1.92614
2.12179
1.84586
1.83936
1.93974
1.9644
2.03958
1.94229
2.03295
1.91916
1.97644
1.95081
2.12693
2.04882
2.13139
2.08945
2.01955
2.01029
2.02801
2.10102
1.88492
2.01374
2.06048
2.11665
2.01325
2.08429
1.8665
2.14272
1.76068
1.79154
1.76934
2.15234
2.12237
2.06875
2.09342
2.0887
1.90957
2.15225
2.05433
2.02053
1.94135
2.02176
2.15104
1.8514
2.10597
2.11038
1.76914
1.87676
1.96383
1.93821
1.80107
2.00277
1.96323
2.09422
1.91733
2.11056
2.04634
1.87279
1.98505
2.10061
1.98013
2.04615
1.97245
2.0474
1.80782
1.94645
1.97554
1.99563
1.80524
1.92636
1.79814
1.80369
2.12024
2.07082
1.86722
1.87589
2.04814
1.99295
1.94884
2.10757
2.04225
1.82327
1.90628
1.96561
1.84117
2.07305
2.08432
1.85024
1.80686
2.05622
1.8397
2.04799
2.15527
1.77858
2.13009
2.12431
2.08684
1.77648
1.91288
1.80496
2.01912
2.14806
2.12586
1.94356
1.75358
1.97582
1.93163
2.09623
2.0151
1.94715
1.86256
1.89406
1.82758
1.91987
1.89503
1.9094
1.94589
1.94136
1.98614
1.78052
2.09042
1.90595
1.84359
2.02435
1.96596
1.81453
2.0887
2.00492
2.13374
1.79793
2.127
2.10433
2.06174
1.9471
1.80256
2.0618
2.10158
1.84528
1.99472
1.8385
2.0578
1.90897
1.81343
1.81237
2.08002
1.87954
1.8598
2.06072
2.0359
2.00233
2.04324
1.79008
1.84529
1.91273
2.02056
1.98054
2.14175
1.89741
2.14928
1.7519
1.81917
1.99923
1.88756
1.79279
1.99449
2.03586
1.83346
1.77429
1.90742
2.00148
2.11089
1.96429
1.79763
2.1217
1.92108
2.12602
1.7966
1.86546
1.90303
1.91542
1.92388
1.90274
1.88781
2.15371
2.14072
2.08847
2.08884
1.7763
1.86074
1.96738
2.06693
1.80888
1.85643
1.88575
1.80789
2.08716
2.08968
1.82618
2.09344
2.14816
1.85271
2.04971
1.97212
1.80248
2.12342
1.82863
2.08844
2.09643
2.08402
2.14619
1.98088
1.93987
2.11127
2.09907
1.98482
1.83043
2.12867
2.11807
2.00087
2.09673
1.79695
2.096
2.1076
2.02506
1.78491
1.89229
2.14656
1.89618
1.82836
2.1072
1.79707
1.76961
2.02339
2.07856
1.99484
2.02217
1.87682
2.09363
1.97475
1.95942
2.13285
1.77671
1.89357
1.92277
1.85914
1.78887
2.0616
1.96787
2.05919
1.83307
1.79521
1.85461
2.0719
1.82706
2.07136
2.05648
2.09339
1.79405
2.02355
1.85939
1.79909
1.98878
1.85234
1.88518
1.85942
1.81177
1.80884
1.87844
2.03946
2.15577
2.09688
2.02118
1.86731
2.06936
1.82468
1.84245
1.83277
2.07989
2.06006
2.06596
2.0799
2.05572
2.02847
1.83282
2.13097
1.79869
1.84674
2.10144
1.75082
1.86289
2.13208
1.80164
1.85855
2.09272
1.94676
1.91448
1.84783
1.99362
2.02416
1.87214
2.10897
2.05139
2.03327
1.80212
2.07258
1.87644
1.89842
2.05185
1.82852
1.83595
2.06864
1.90664
1.87986
1.89971
1.76691
1.94153
2.03678
1.80392
2.0435
2.13488
1.88875
1.92727
1.95753
1.97008
2.10914
1.7969
2.1178
2.1382
1.91093
1.83373
1.76519
1.96313
1.78791
1.81699
2.11895
1.98317
1.87053
1.77684
1.89696
1.81958
1.8542
2.0993
2.04327
1.83529
1.91529
1.88045
1.84771
1.82313
1.86306
2.05801
1.79236
1.83488
1.77551
2.10316
1.8054
2.09131
1.89722
1.98012
1.83202
2.04832
1.78885
1.83563
1.82512
1.7845
2.06659
2.09575
1.78584
2.08764
1.81099
2.01633
1.86649
2.14257
2.06514
1.93971
1.86142
2.06426
1.87058
1.87161
1.84107
1.95445
1.96311
1.8828
1.93025
1.81261
1.93918
2.01662
1.85284
1.95685
1.74216
2.14192
1.90102
1.96246
1.78666
1.87725
1.8117
1.73715
1.92902
2.13053
1.92763
2.168
2.1366
1.85555
2.03169
1.84625
1.7363
2.09294
2.09931
2.03927
1.86165
1.83661
1.74918
1.8102
2.10321
1.90841
1.79749
2.03286
1.93838
1.92916
1.84375
1.81409
2.04413
2.07361
1.83404
1.80326
2.05451
1.80849
2.11486
2.01815
2.1184
1.82015
1.80183
2.04295
1.89181
1.82975
1.90128
1.81946
1.86706
1.95426
1.84071
1.81504
2.10359
2.00147
1.78382
1.90307
2.00038
1.88226
1.99734
2.04426
1.91393
1.9728
1.83222
2.01043
1.76556
1.75007
1.77714
1.93394
1.98103
1.90922
1.84462
2.01423
1.85675
2.05107
1.91619
2.1032
1.86779
2.12722
1.8516
2.06984
1.79524
1.86098
2.12651
1.90037
1.76902
1.82422
1.88569
2.06682
2.03972
1.90845
2.04479
2.03153
1.83929
1.73651
1.73771
1.94259
1.8072
1.87293
1.8408
2.07598
1.79562
1.84922
1.99823
2.10065
2.00367
1.8214
1.91649
1.95008
1.91706
1.96721
1.9001
1.83629
1.7933
1.88027
1.87066
2.02305
1.82095
2.08012
1.81324
1.82008
2.09967
2.00406
1.79792
1.84511
2.10463
1.87987
1.94274
1.98156
1.81397
1.82183
2.1508
2.14628
1.8321
1.89225
2.13193
1.79839
2.04501
1.80414
1.7808
2.00138
1.9827
2.19353
1.9593
1.82667
1.99381
1.93929
1.82422
2.12516
1.84947
1.7806
1.80765
1.86529
1.78236
1.8295
1.81247
1.88644
1.77215
1.9362
1.99263
1.97729
2.04884
1.83661
1.7813
2.05891
1.9025
1.83743
1.81199
1.86476
1.95515
1.89837
1.88821
1.81765
2.04978
1.99381
2.00054
1.97041
1.76597
1.81859
1.89331
1.86749
2.14296
1.85135
1.82029
1.91205
1.78804
1.79188
1.83837
1.74266
1.85853
1.81604
2.03025
1.89251
1.80197
2.14837
1.95147
1.83157
1.80127
1.82921
1.83296
1.77115
1.98144
1.80733
1.76251
1.76062
1.81888
1.81598
1.86387
1.75091
1.89745
1.82254
2.0741
2.09524
1.99439
1.85016
1.77995
1.82159
1.80722
1.89311
1.7602
1.78602
2.0852
2.1011
2.07882
2.08317
1.87534
1.84063
1.78384
1.94905
1.8546
1.77314
2.12367
2.1215
1.8161
1.89296
1.78715
2.10227
1.82021
1.7938
1.84949
1.88378
1.89669
1.88867
1.8163
1.83386
1.88024
2.00315
1.99415
1.85145