/*--------------------------------*- C++ -*----------------------------------*\
| =========                 |                                                 |
| \\      /  F ield         | OpenFOAM: The Open Source CFD Toolbox           |
|  \\    /   O peration     | Version:  2212                                  |
|   \\  /    A nd           | Website:  www.openfoam.com                      |
|    \\/     M anipulation  |                                                 |
\*---------------------------------------------------------------------------*/
FoamFile
{
    version     2.0;
    format      ascii;
    arch        "LSB;label=32;scalar=64";
    class       volScalarField;
    location    "0.02";
    object      k;
}
// * * * * * * * * * * * * * * * * * * * * * * * * * * * * * * * * * * * * * //

dimensions      [0 2 -2 0 0 0 0];

internalField   nonuniform List<scalar> 
31639
(
0.0414057
0.0407002
0.041451
0.0427077
0.0407801
0.0401735
0.0403617
0.0418223
0.0413667
0.0422489
0.0423001
0.042031
0.0410927
0.0423963
0.0401845
0.0397634
0.0415436
0.0402914
0.0392672
0.0407488
0.0375288
0.0422141
0.0425778
0.0395757
0.0394021
0.0411826
0.0408125
0.0357745
0.0403143
0.0425715
0.0422201
0.0400087
0.0424182
0.0393913
0.0382662
0.0425356
0.0366805
0.0429339
0.0423578
0.0362659
0.0383561
0.0378411
0.04206
0.0422569
0.0425028
0.0422323
0.0401784
0.0402712
0.0414139
0.0425959
0.0420586
0.0363614
0.0429134
0.037367
0.0398353
0.0413603
0.0376074
0.0409661
0.0407177
0.0375137
0.0408876
0.0419022
0.0393533
0.0404612
0.0412905
0.0425226
0.0407983
0.0409925
0.0387771
0.0425067
0.0426553
0.0389715
0.0417975
0.0408058
0.0428472
0.0381662
0.0422897
0.0404342
0.0404219
0.0421566
0.0391892
0.0362188
0.0424516
0.0413906
0.0413221
0.0422094
0.0426449
0.0424207
0.0380422
0.0429443
0.0411382
0.0406243
0.037716
0.0405204
0.0386197
0.0401349
0.0406077
0.0408346
0.0411185
0.0377196
0.042834
0.042152
0.0403324
0.0372174
0.0375697
0.0423323
0.0371276
0.036864
0.0389823
0.0374027
0.0412946
0.0378516
0.0405119
0.0398671
0.0408982
0.0372302
0.0405031
0.0404164
0.0425272
0.0406312
0.0417038
0.042038
0.0416726
0.0412219
0.0409496
0.042534
0.0407916
0.0390691
0.038825
0.0419241
0.0420823
0.0416196
0.0417368
0.0400013
0.0416713
0.0410093
0.0375718
0.0371779
0.0419136
0.0408785
0.0407625
0.0422471
0.0422902
0.0368376
0.0367652
0.0425593
0.0420949
0.0378994
0.0376771
0.042334
0.0390546
0.0410494
0.0393089
0.0416521
0.0379776
0.0425592
0.0406352
0.0388957
0.0379447
0.0395094
0.0422466
0.0382262
0.0390106
0.0374818
0.038088
0.0401943
0.0381173
0.0425404
0.0419428
0.0369637
0.0387137
0.0399712
0.0382706
0.0411079
0.0427429
0.0422097
0.0411882
0.0426381
0.0412348
0.0408054
0.0404688
0.0399483
0.0396763
0.0365886
0.0413675
0.0427183
0.0396079
0.0425218
0.0380802
0.0372173
0.0429593
0.0419632
0.0411751
0.0405564
0.0407221
0.0398761
0.040085
0.0418548
0.037186
0.0400498
0.0422964
0.0428633
0.0409538
0.0411005
0.0411114
0.0408303
0.0402099
0.0401796
0.0420669
0.0366533
0.0405937
0.0402913
0.0413828
0.042051
0.0415453
0.0422765
0.0383885
0.0396887
0.0422504
0.042282
0.0416934
0.0404489
0.0372749
0.0411202
0.0373948
0.041044
0.0421794
0.0394425
0.0379991
0.0416877
0.0413362
0.042826
0.0381052
0.0375926
0.0412077
0.0414558
0.0374874
0.0420001
0.0392903
0.0369924
0.0403576
0.040999
0.040317
0.0394862
0.0395721
0.0415256
0.0401006
0.0397958
0.0374962
0.0407194
0.0396246
0.0384293
0.0396415
0.0425967
0.0424257
0.0400796
0.0382959
0.0417544
0.0414625
0.0405459
0.0426788
0.0421788
0.0417765
0.0423666
0.0403154
0.0407391
0.0369443
0.0393377
0.0416746
0.0398631
0.0413944
0.0396558
0.0410032
0.0425347
0.042683
0.0409924
0.0374831
0.0402914
0.0388597
0.0421059
0.040405
0.0423628
0.0427058
0.0399073
0.0378638
0.0391827
0.0381015
0.037328
0.0418836
0.0384151
0.0427405
0.0401462
0.0395089
0.0384738
0.042868
0.0398771
0.0398332
0.0420739
0.0411225
0.0393782
0.0406806
0.037994
0.0407221
0.0402437
0.0382104
0.0401462
0.0401596
0.0358439
0.0370733
0.0419913
0.0426425
0.0418031
0.0375021
0.0385467
0.0418405
0.0385253
0.0385843
0.0425189
0.0424809
0.0400223
0.0421963
0.0426334
0.0380652
0.0428137
0.0370786
0.0375305
0.0421265
0.0417755
0.0420075
0.0424949
0.0415635
0.0383159
0.0400775
0.0402752
0.0423458
0.0428525
0.0429084
0.0403852
0.039458
0.0414188
0.0419298
0.0411512
0.039574
0.0403877
0.0401825
0.0401638
0.0419302
0.0396483
0.0380942
0.0418407
0.043157
0.0400172
0.0427091
0.0419454
0.0405156
0.0381172
0.040356
0.0405285
0.0374812
0.0425288
0.0381979
0.0411469
0.0423966
0.0368933
0.0407937
0.0404975
0.0376489
0.040928
0.0384559
0.0402215
0.0427324
0.0416799
0.0370378
0.041289
0.0381978
0.041306
0.0421073
0.0424008
0.0425
0.038385
0.0413889
0.037322
0.0401504
0.0370732
0.042328
0.0418809
0.0423622
0.0421576
0.0390072
0.0425334
0.0408268
0.0414672
0.0404455
0.038814
0.0404883
0.0411845
0.041029
0.0413561
0.0410409
0.0417019
0.0402446
0.0380957
0.0408316
0.0420393
0.0416645
0.036876
0.0424301
0.0420153
0.0405916
0.041039
0.0414566
0.0409327
0.0421306
0.0376546
0.0412699
0.0422731
0.0370658
0.0410458
0.0414121
0.0385165
0.0372658
0.0376898
0.0402222
0.0378312
0.0407751
0.0406087
0.0399227
0.0428011
0.0379767
0.0418676
0.0424719
0.0406585
0.0414081
0.0401477
0.0423628
0.0408362
0.041124
0.042502
0.0407117
0.0376127
0.0407065
0.0427061
0.0422513
0.0416237
0.0427678
0.0398318
0.0412875
0.0417766
0.0425361
0.0428318
0.0380162
0.0405648
0.0363476
0.0405848
0.0402814
0.0380959
0.0375494
0.0400214
0.0412444
0.0419014
0.0377719
0.0414772
0.0397465
0.0404538
0.0417417
0.0335317
0.0402444
0.0373698
0.039964
0.0420839
0.0430986
0.0415986
0.0405197
0.0367971
0.0415412
0.0406329
0.0418798
0.0375116
0.038
0.0404619
0.0378887
0.0382785
0.0411754
0.0375452
0.0399064
0.0377863
0.0415802
0.0376789
0.042565
0.0419923
0.042131
0.0421523
0.0394565
0.0423083
0.0424885
0.0411531
0.0419772
0.0409881
0.0420066
0.0430469
0.0398647
0.0422023
0.0426061
0.0404829
0.0387802
0.0425761
0.0408315
0.0364788
0.0373131
0.0409448
0.0425782
0.0424338
0.0400923
0.04282
0.0431772
0.0418346
0.0411756
0.0404714
0.0407824
0.0383716
0.0403706
0.0414154
0.0426816
0.0392649
0.0389246
0.0384958
0.0394477
0.040381
0.0364028
0.041551
0.0395733
0.0411846
0.0403102
0.0416499
0.0406278
0.0381033
0.0413044
0.042113
0.0385793
0.041689
0.0431029
0.0408354
0.0402912
0.0362812
0.0388199
0.0405663
0.04091
0.0382079
0.037863
0.040981
0.0390999
0.041544
0.0393383
0.0405023
0.0422694
0.0406416
0.0373363
0.0397923
0.0409803
0.042337
0.03765
0.0362298
0.0421561
0.0374756
0.0412171
0.042762
0.0376205
0.040776
0.0427181
0.0409513
0.03779
0.0424091
0.0409418
0.0377189
0.0421916
0.0412268
0.0400649
0.0420461
0.0366682
0.0391792
0.0406328
0.0400052
0.0399051
0.0413865
0.0427813
0.0422019
0.0416957
0.0425912
0.0420064
0.0412593
0.0393951
0.0415694
0.0425567
0.0436852
0.0389127
0.0409507
0.0409976
0.0435764
0.038299
0.0368097
0.042512
0.0385313
0.0427416
0.0398997
0.0376721
0.0404144
0.0421596
0.0409502
0.0414147
0.0371161
0.041652
0.0407169
0.037212
0.042426
0.0419782
0.0352686
0.0382192
0.0386807
0.0403995
0.0409038
0.0408816
0.0405671
0.0408128
0.0419493
0.0408879
0.0406704
0.0383846
0.0424646
0.0376328
0.0408357
0.0405108
0.0402195
0.043067
0.0407498
0.0388589
0.0370868
0.0384361
0.0404815
0.0422512
0.0380383
0.0425461
0.0407902
0.0418939
0.0379685
0.039946
0.0419251
0.0426471
0.042151
0.0416146
0.0410966
0.0408232
0.0428752
0.0427363
0.0424696
0.039355
0.0418554
0.037879
0.0424928
0.0423725
0.0403803
0.0382942
0.0400028
0.0363923
0.0421215
0.0410318
0.0429104
0.0407352
0.039787
0.0377769
0.0421865
0.03718
0.0365624
0.0388666
0.0393316
0.0379646
0.0407381
0.037765
0.0410594
0.0412631
0.0362695
0.0426324
0.0381297
0.0390065
0.0399264
0.0395097
0.0416613
0.0422733
0.0425719
0.0424968
0.0398273
0.0405808
0.0400181
0.0401335
0.036789
0.0310799
0.0424522
0.0404631
0.0416488
0.0421964
0.0377046
0.0423278
0.0427634
0.0418006
0.0418049
0.0418003
0.0412305
0.04246
0.0426755
0.0409328
0.0422612
0.0420225
0.0384591
0.0422063
0.0398792
0.0421214
0.0397034
0.0405293
0.0391671
0.0429631
0.0402278
0.0409724
0.0408429
0.0384309
0.0424332
0.0409193
0.0397721
0.0379369
0.0416151
0.036754
0.0418116
0.0419238
0.0399087
0.0427722
0.0427007
0.0427066
0.0377356
0.0406221
0.0409397
0.0411802
0.038268
0.0415531
0.0416409
0.0396244
0.0407526
0.0392741
0.0414048
0.0402121
0.0400598
0.036846
0.0418114
0.0412553
0.0421011
0.0394474
0.0406257
0.0410858
0.0404434
0.0396079
0.0410247
0.04188
0.0404077
0.0367631
0.0370296
0.0401211
0.0365938
0.037724
0.0413983
0.0412955
0.0418211
0.0367135
0.0401833
0.0423133
0.0380001
0.0369561
0.0406783
0.0383998
0.0420088
0.0388892
0.0426236
0.0394958
0.0396074
0.0424648
0.0369373
0.0400746
0.0401395
0.042023
0.0424719
0.0423125
0.0385768
0.0416803
0.0425366
0.0399642
0.0425863
0.0418646
0.0415972
0.042667
0.0407806
0.0432667
0.0427492
0.0430681
0.0414435
0.0401129
0.040909
0.04058
0.0378395
0.0398029
0.0415896
0.0420334
0.0428619
0.0403934
0.0429333
0.0420432
0.0395098
0.0420122
0.0422648
0.0418249
0.0418293
0.0378925
0.0396543
0.0426001
0.0367584
0.0405692
0.0403984
0.0402985
0.0401931
0.0423245
0.0412994
0.0419983
0.0404937
0.0414582
0.040702
0.042281
0.0410137
0.0401831
0.0380877
0.0421907
0.0385178
0.0400093
0.0404333
0.039889
0.040832
0.0428576
0.0381641
0.0428204
0.038206
0.0410363
0.0404707
0.0403777
0.0404819
0.0424265
0.0378742
0.0419275
0.0422649
0.0426242
0.0411921
0.0413736
0.0366752
0.0426545
0.0422002
0.0417225
0.041808
0.042141
0.0406303
0.0412759
0.0410298
0.0380584
0.0404836
0.0425771
0.0370902
0.0390228
0.0435799
0.0422247
0.0393168
0.0397184
0.041463
0.0393614
0.0401876
0.0383263
0.0419218
0.0427125
0.036723
0.0408944
0.0421421
0.0418681
0.0427065
0.0399874
0.042108
0.0385444
0.0383739
0.0428257
0.0423491
0.0402655
0.0379346
0.0413375
0.0423598
0.0391985
0.0424322
0.0418217
0.0420176
0.0413307
0.0419376
0.0411472
0.0409535
0.0401217
0.0394259
0.0371497
0.0408726
0.0409861
0.0380112
0.042201
0.0371168
0.039955
0.0400947
0.038116
0.0404314
0.039632
0.0414738
0.0409716
0.0420188
0.037998
0.0382305
0.0400747
0.0376955
0.0397264
0.0421764
0.0402723
0.0424104
0.0409293
0.0407237
0.0425846
0.0400255
0.040941
0.0404567
0.0405067
0.0413077
0.0389431
0.0410415
0.0419998
0.0423005
0.0429707
0.0380428
0.0373019
0.0405669
0.0422711
0.0383047
0.0400705
0.0415775
0.0407234
0.0433263
0.0401227
0.0400524
0.0418565
0.0376682
0.042258
0.0426931
0.038227
0.0393546
0.0404487
0.039868
0.0427226
0.0425291
0.041459
0.0386588
0.0422168
0.0376003
0.0404347
0.0424036
0.0398675
0.0431545
0.0373262
0.0406583
0.0413999
0.0407952
0.037665
0.0371874
0.0420101
0.0425341
0.0398963
0.0422927
0.0415644
0.0403656
0.0380504
0.0389657
0.0414921
0.0404833
0.0407161
0.042743
0.0422
0.0432786
0.0423625
0.0410562
0.0412552
0.0417371
0.0383351
0.0421017
0.0415983
0.0410257
0.0414485
0.0427727
0.0404782
0.0423224
0.0404879
0.0367961
0.0427879
0.0398131
0.0426287
0.0399265
0.0419926
0.0384755
0.041525
0.0434545
0.0407983
0.0409103
0.0379042
0.0418943
0.0427335
0.0412604
0.0376723
0.0438355
0.0405275
0.0411667
0.0424834
0.0422248
0.0419187
0.0404631
0.0407364
0.0431986
0.0384415
0.0388049
0.0384626
0.0391372
0.0413267
0.037398
0.04268
0.0422311
0.0429886
0.0403241
0.0402357
0.0409451
0.0425227
0.0409922
0.0412268
0.0425005
0.0427907
0.0409907
0.0420271
0.0406847
0.0403396
0.0415176
0.0399407
0.0429104
0.0429017
0.0425227
0.0426946
0.0423951
0.0394729
0.0433181
0.0410363
0.0412551
0.040223
0.0412923
0.042917
0.0408327
0.0418874
0.0397163
0.0407319
0.0415136
0.0388534
0.0381318
0.0404647
0.0406518
0.0430351
0.0398376
0.0371758
0.0411335
0.0421278
0.0393097
0.0398662
0.0408731
0.0427155
0.042595
0.0399654
0.0396018
0.0407749
0.0420907
0.0400139
0.0410419
0.0409625
0.0377108
0.040316
0.0400935
0.0417009
0.0424657
0.0410041
0.0426467
0.0417959
0.040875
0.0413873
0.0378065
0.0384346
0.037727
0.042686
0.0411673
0.0429105
0.0440293
0.0418833
0.0375258
0.0419006
0.0402194
0.0416679
0.0414526
0.0417273
0.0375303
0.0428427
0.0381318
0.0407606
0.0409471
0.0406864
0.04322
0.0407663
0.0419133
0.0379758
0.0406574
0.0411168
0.042296
0.0391013
0.0391798
0.0415085
0.0421804
0.0413028
0.0414494
0.0428094
0.0379704
0.0407126
0.0401679
0.0393214
0.0418334
0.0428698
0.0427667
0.0422062
0.0427913
0.0384965
0.0383687
0.0382906
0.0431911
0.0380659
0.0415922
0.0409362
0.0381701
0.0399725
0.0421119
0.042491
0.0393919
0.0400292
0.040154
0.0409745
0.042729
0.0412033
0.0380392
0.0408582
0.0429817
0.042545
0.0431237
0.0425361
0.0437979
0.0426804
0.0420864
0.0389547
0.0378911
0.0411375
0.0391452
0.0427857
0.0383677
0.0413224
0.0402582
0.0423731
0.0387498
0.0417431
0.0420952
0.0415899
0.0402988
0.0382913
0.0423209
0.0401083
0.0429992
0.0408639
0.0435869
0.0427204
0.041046
0.0378727
0.0382184
0.0404118
0.0413546
0.039849
0.0433792
0.0386304
0.0423123
0.0415568
0.0402843
0.0414672
0.0423189
0.0425844
0.0425439
0.0430189
0.0413498
0.0411895
0.0375952
0.0395103
0.0423815
0.0387769
0.0414019
0.0404251
0.0382416
0.0406587
0.0408438
0.0404837
0.0417145
0.0422295
0.0385588
0.0404233
0.041049
0.0380734
0.0396066
0.0401789
0.0403582
0.0416626
0.0385035
0.0382931
0.0406037
0.0399491
0.0423725
0.0429764
0.0421949
0.0400366
0.0401618
0.040834
0.0397365
0.0427967
0.0383703
0.0407261
0.0403274
0.0426643
0.0420238
0.0408358
0.0412173
0.0423904
0.038489
0.0410958
0.0426831
0.0401223
0.0354793
0.0403791
0.038274
0.0411365
0.0374386
0.0430131
0.0429178
0.0426408
0.0413363
0.0386556
0.0376808
0.0421804
0.043058
0.0428282
0.0409906
0.041243
0.0416575
0.0431077
0.0422901
0.0375374
0.0410298
0.0410455
0.0415467
0.040212
0.0419715
0.0370537
0.0427066
0.0422011
0.0409171
0.0411477
0.0415726
0.0408287
0.0426469
0.0417046
0.0386462
0.0405984
0.0419378
0.0403873
0.0409609
0.0415126
0.0375815
0.0382329
0.042383
0.0429279
0.0422172
0.0427047
0.0417666
0.0419513
0.0410636
0.0410433
0.0414209
0.042331
0.0399781
0.0407054
0.039627
0.0409332
0.0423971
0.0371562
0.0409721
0.0371948
0.0422171
0.0373019
0.0379165
0.0404119
0.0365253
0.0410139
0.0415893
0.0421721
0.0421667
0.0394155
0.0395165
0.0433669
0.0397002
0.038753
0.0408252
0.0393304
0.0424531
0.0417057
0.0410899
0.0385091
0.0423895
0.0427991
0.0424233
0.0380018
0.0390875
0.0407988
0.0425522
0.0432214
0.0379731
0.0378242
0.0422097
0.0412872
0.0428309
0.0405839
0.0370187
0.0415356
0.0422958
0.0379094
0.0372557
0.0423558
0.0384482
0.0382935
0.0424729
0.0428601
0.0416018
0.0434786
0.0403278
0.0403989
0.0425312
0.0395991
0.0422336
0.0397576
0.0415702
0.0421445
0.0401948
0.0378886
0.0418018
0.0420397
0.0398658
0.040533
0.0405554
0.0391195
0.037738
0.0409804
0.0418999
0.0426935
0.0397613
0.0418539
0.0376972
0.0417709
0.0428851
0.037724
0.0425781
0.0410793
0.0359136
0.0377619
0.0410627
0.0406482
0.0419978
0.0399505
0.0384623
0.0421296
0.0429659
0.0426172
0.0412581
0.0424015
0.0376684
0.0425064
0.0408029
0.0378517
0.0380177
0.0359887
0.0377708
0.041778
0.0402639
0.0414119
0.0409538
0.0384904
0.0388817
0.0368795
0.03693
0.0435484
0.0431487
0.038656
0.0426997
0.0422075
0.0386262
0.0404225
0.0410088
0.0391662
0.0396596
0.042276
0.0391617
0.0373114
0.0424461
0.0432824
0.0396013
0.0425339
0.0408574
0.0390213
0.0383509
0.0406912
0.0378869
0.0380736
0.0411382
0.0414676
0.0402773
0.0426773
0.0423566
0.0405945
0.0428479
0.0314372
0.040687
0.0375696
0.0408671
0.0428256
0.0403433
0.0395794
0.0405134
0.0379751
0.0414835
0.0405754
0.0394057
0.0381856
0.0366193
0.0365563
0.0398659
0.0377412
0.0405753
0.037764
0.0402373
0.0421589
0.0415123
0.0405052
0.0412604
0.0416193
0.0407026
0.0419024
0.0374764
0.0405441
0.0426772
0.0425452
0.0402343
0.0432623
0.0387105
0.0423725
0.040399
0.0375705
0.0420687
0.0427263
0.0413153
0.0418453
0.0427347
0.0414154
0.0366881
0.0367007
0.0402814
0.0428819
0.0412211
0.0418721
0.0398988
0.0401502
0.038758
0.0374176
0.0373048
0.0376359
0.0414803
0.0412111
0.0426812
0.0397985
0.0400978
0.0430458
0.0376564
0.0409365
0.0426904
0.0427183
0.0394434
0.0399531
0.0421101
0.0430608
0.0425895
0.0357041
0.0410789
0.042125
0.0414389
0.0410442
0.0436001
0.0422681
0.0426633
0.0411303
0.0394214
0.0407869
0.0428263
0.0417509
0.0408463
0.0377748
0.0422394
0.0422705
0.0428477
0.041969
0.0372946
0.0364329
0.04038
0.0417529
0.0410034
0.0410525
0.0418396
0.0418467
0.0419422
0.0397127
0.0416395
0.0409621
0.0422593
0.0382756
0.0381821
0.0398049
0.0428002
0.0381462
0.0422997
0.0379452
0.0402107
0.0408472
0.0428944
0.0402856
0.0420387
0.0426644
0.0423095
0.0411341
0.0420965
0.0410696
0.0399707
0.0368564
0.042718
0.0364582
0.037811
0.0357211
0.0368668
0.0373595
0.0399635
0.0410767
0.0380321
0.0398094
0.0360733
0.0386789
0.0402177
0.0424588
0.037119
0.0381425
0.0419089
0.0371538
0.0400194
0.0421683
0.0414665
0.0407378
0.03833
0.037621
0.0397009
0.0427207
0.0394316
0.0381363
0.0412352
0.0399142
0.0413663
0.0404959
0.0385797
0.0427944
0.0371368
0.0380306
0.0407447
0.0427692
0.0398953
0.0405039
0.0408339
0.0409417
0.0367979
0.0387208
0.0401836
0.0427134
0.0416471
0.0377962
0.0367377
0.0405817
0.0426202
0.0403905
0.0406668
0.0397815
0.0397894
0.0405062
0.0376275
0.0425232
0.0395688
0.0377139
0.0366417
0.0419128
0.0406418
0.0427594
0.0408469
0.0421371
0.0376438
0.0405478
0.0368471
0.0367298
0.0425326
0.038508
0.0405351
0.0408686
0.0410398
0.0378919
0.0425917
0.0420487
0.0426267
0.0413785
0.0357357
0.0409871
0.0366466
0.0429938
0.0382304
0.0427295
0.0362981
0.0413435
0.0421852
0.0400106
0.0402011
0.0364977
0.0394249
0.0406324
0.0421735
0.0415404
0.0424419
0.0428173
0.037638
0.0426766
0.0373708
0.0412601
0.0414023
0.0422329
0.0422108
0.0406222
0.0428504
0.0402237
0.0391908
0.0392045
0.0412494
0.0427985
0.0388076
0.0388891
0.0424527
0.04168
0.0406563
0.0435214
0.0414584
0.0413463
0.0422019
0.0419711
0.042748
0.0401628
0.0397255
0.0423918
0.0420566
0.0370667
0.04025
0.0393615
0.0428286
0.0411747
0.0420148
0.0381452
0.0379749
0.0409459
0.0419229
0.0423336
0.0427188
0.0424473
0.0408193
0.0413532
0.0382042
0.0412661
0.0409709
0.0423421
0.0427384
0.0425757
0.0406923
0.042503
0.0388392
0.0423896
0.0392022
0.0402717
0.0398663
0.0409623
0.0398478
0.0420033
0.0377963
0.0423394
0.0424529
0.0405426
0.0379437
0.0433255
0.0414142
0.0423541
0.0406966
0.0409662
0.0419023
0.0375403
0.0425131
0.0406758
0.041239
0.0389258
0.0390891
0.0393399
0.0375454
0.0395313
0.0427766
0.0410589
0.0368405
0.0418732
0.0374963
0.041095
0.0411785
0.036784
0.0372449
0.0394832
0.0407849
0.0419552
0.0397518
0.0416096
0.0404124
0.0370507
0.0396412
0.0424245
0.0424771
0.0425343
0.0416565
0.0414981
0.0380273
0.037609
0.0426843
0.0402556
0.0412463
0.0423135
0.0433099
0.0410003
0.0411563
0.0368473
0.0418522
0.0424665
0.0397446
0.042517
0.0422008
0.0414726
0.0396048
0.0417974
0.0400759
0.0369461
0.0408924
0.0383466
0.0377382
0.0411098
0.040973
0.0425503
0.0425042
0.041251
0.0425056
0.0366704
0.039779
0.0431112
0.0430158
0.0375625
0.041151
0.0382548
0.0395596
0.042331
0.0399623
0.0412724
0.0430902
0.0414086
0.0368134
0.0421933
0.0376141
0.0421193
0.0415283
0.041211
0.0421796
0.0412178
0.0422073
0.0378338
0.0424821
0.0425025
0.0384413
0.0415175
0.0405572
0.0403885
0.0422545
0.0406017
0.0419977
0.0428567
0.0424695
0.0409302
0.042716
0.0407882
0.0413532
0.0390793
0.0394576
0.0377235
0.0367815
0.0410321
0.0415777
0.040653
0.0426349
0.0400314
0.0425465
0.0370186
0.0429192
0.0428204
0.0416816
0.042302
0.0388003
0.0370963
0.0406266
0.0376873
0.0418855
0.0410029
0.0368829
0.0399812
0.0428214
0.0422369
0.0370236
0.0390669
0.0367311
0.04309
0.0376442
0.0422036
0.0390128
0.0381443
0.0424855
0.0426383
0.0425756
0.0417616
0.0376262
0.0412154
0.0430135
0.0383985
0.042478
0.0418248
0.0427787
0.0370396
0.041642
0.0399249
0.0416116
0.040199
0.0402154
0.0397485
0.0400398
0.0404378
0.0401066
0.0416591
0.0404489
0.0427593
0.0388705
0.0404996
0.0411487
0.0420536
0.042845
0.038128
0.0417286
0.0378392
0.0399721
0.04253
0.0428491
0.040835
0.0409642
0.0418799
0.0396161
0.0403388
0.0404922
0.0377532
0.0373727
0.0413374
0.0423061
0.0400601
0.0400103
0.0423932
0.0379415
0.0412879
0.0381055
0.0412866
0.0426774
0.040953
0.037413
0.0423396
0.0376826
0.0416012
0.0424783
0.0370752
0.0430044
0.0384994
0.0397477
0.0402983
0.0372323
0.0392851
0.0396872
0.0365406
0.0424823
0.0430187
0.0364497
0.0395592
0.0417293
0.0415228
0.0412979
0.0431794
0.0424551
0.0402971
0.0390544
0.0374046
0.0365808
0.0357382
0.042722
0.0419676
0.0412344
0.041451
0.0374799
0.0376753
0.0402639
0.0424287
0.0364191
0.0412925
0.0405536
0.0405897
0.0414739
0.0395205
0.0421124
0.0393755
0.0405176
0.04321
0.0358807
0.0406608
0.0423619
0.042281
0.0412212
0.0421756
0.0413584
0.0374705
0.0431123
0.0436331
0.0405332
0.0410042
0.0393539
0.0405396
0.0417667
0.0421323
0.0410083
0.0406159
0.0399692
0.0371755
0.0400583
0.0428017
0.0417551
0.043059
0.0413179
0.0409791
0.0430401
0.0382204
0.0422323
0.0375751
0.0429598
0.0415735
0.0397392
0.043324
0.0395544
0.0404321
0.0430624
0.0399827
0.0430082
0.0419601
0.0418503
0.0378933
0.0408896
0.040456
0.0392398
0.0420982
0.0398457
0.0401693
0.0430588
0.0379327
0.042383
0.0409224
0.0424949
0.0399722
0.0412878
0.0379823
0.0387873
0.043309
0.0379179
0.0408013
0.0422685
0.0378129
0.0405328
0.0423174
0.0394702
0.0382719
0.0391499
0.0402348
0.0396407
0.0423117
0.0403487
0.0427102
0.0414694
0.0424947
0.0371346
0.0389874
0.042754
0.040423
0.0376927
0.0384033
0.0405974
0.0351271
0.0372004
0.0405763
0.0403547
0.0425693
0.0397406
0.0421765
0.0425837
0.0426007
0.0420286
0.0422606
0.0395012
0.0394185
0.0417788
0.0403131
0.0396291
0.0425295
0.0405032
0.0372316
0.0372415
0.0401233
0.0355273
0.0417279
0.0421219
0.0393824
0.0417773
0.0421159
0.0419845
0.0432662
0.0403783
0.0381114
0.0398027
0.0401699
0.0422406
0.039417
0.0414105
0.0428394
0.0400934
0.0398078
0.0411575
0.0427417
0.0419825
0.0439573
0.0426193
0.0408389
0.0412677
0.0386704
0.0401894
0.0426103
0.0389115
0.0425673
0.0396032
0.0419963
0.0370843
0.0419489
0.0406877
0.0422566
0.0402912
0.0412472
0.0406372
0.041948
0.0368849
0.0388111
0.040514
0.0397871
0.0406427
0.0410927
0.0408882
0.0426529
0.0413556
0.0375948
0.0394938
0.0377691
0.0408364
0.0409365
0.0381979
0.0435764
0.0407624
0.040369
0.041886
0.0389171
0.0383334
0.0425501
0.0380968
0.0369775
0.0371608
0.0375207
0.0378602
0.0392955
0.0425564
0.0420999
0.0401121
0.0412762
0.0420332
0.0405748
0.0417329
0.0371041
0.0423761
0.0318019
0.0421295
0.0375698
0.0374866
0.0421253
0.0372893
0.0405227
0.0415203
0.0422241
0.0395245
0.0409363
0.0397386
0.0404635
0.0391358
0.041431
0.0407832
0.0419847
0.0407389
0.0379258
0.0416456
0.040166
0.0403611
0.0375753
0.0385582
0.0387972
0.0370574
0.0372626
0.0406804
0.0402363
0.0384168
0.0399464
0.0425535
0.0423487
0.042699
0.0318896
0.037548
0.0426436
0.0378644
0.0421544
0.0370813
0.0424274
0.0422168
0.0424621
0.0377394
0.0405627
0.0428439
0.0427545
0.0413662
0.0426257
0.0406097
0.0411407
0.0403662
0.0374133
0.0411843
0.0396555
0.0407348
0.0407782
0.0387062
0.0403
0.0422364
0.0392145
0.0388708
0.0377034
0.0415021
0.0415752
0.0369849
0.0407353
0.0406451
0.0416826
0.0381527
0.0411272
0.040502
0.0431915
0.0344275
0.0407267
0.0404972
0.0372845
0.0421951
0.0385381
0.0385309
0.0413173
0.0425778
0.0368094
0.0422029
0.0413614
0.0385195
0.0371952
0.0425952
0.0424908
0.0372114
0.0407244
0.0368812
0.0387032
0.0426135
0.0400132
0.0415781
0.0423752
0.04257
0.0398017
0.0396001
0.0402236
0.0406698
0.0408623
0.0394323
0.0419069
0.037547
0.0393278
0.0406331
0.0403784
0.0415172
0.0401071
0.0415742
0.0418552
0.0406813
0.0424899
0.0414412
0.0400772
0.039243
0.0415848
0.0398892
0.039294
0.0413951
0.0426328
0.0415852
0.0416592
0.0389229
0.0416325
0.0392967
0.0378139
0.0403596
0.0412635
0.0379269
0.0414064
0.0398437
0.0361798
0.0369907
0.0419331
0.0357181
0.0403456
0.042164
0.0412104
0.037963
0.041521
0.0435033
0.0377357
0.0376351
0.038286
0.0421916
0.040654
0.0405321
0.0426727
0.0373795
0.0417925
0.0405983
0.0426895
0.043025
0.03215
0.0406816
0.0419554
0.0423267
0.0408737
0.0400004
0.0352588
0.041535
0.0424687
0.0392049
0.0372119
0.0402375
0.0419856
0.0411949
0.0374233
0.0407536
0.0417969
0.0422955
0.0402692
0.0407078
0.0369159
0.0377384
0.0376584
0.0409003
0.0401132
0.0410111
0.0426723
0.0423422
0.0360992
0.0421526
0.0423565
0.0414166
0.039741
0.0421045
0.0397327
0.0380146
0.039509
0.0409293
0.0398727
0.0378716
0.0412596
0.0402063
0.0420523
0.0383976
0.0366745
0.0398206
0.0425428
0.0419409
0.039632
0.040143
0.0422696
0.0424004
0.0397773
0.0396246
0.0419301
0.0425191
0.0416155
0.0426553
0.0418115
0.0411649
0.0370804
0.0400585
0.0377679
0.0417801
0.0420432
0.0395698
0.0376771
0.0429277
0.0376062
0.0398691
0.0384114
0.0405057
0.0367069
0.0412846
0.0406012
0.0405702
0.0406201
0.0387205
0.0425089
0.0381
0.0415891
0.0404224
0.0404526
0.0372135
0.0419545
0.04132
0.0375808
0.0389735
0.0404641
0.0402979
0.0413982
0.0339184
0.0413662
0.0398673
0.0406989
0.0391835
0.0394656
0.0393624
0.0342505
0.042391
0.040201
0.0268185
0.0376971
0.0411271
0.0423156
0.041687
0.0383911
0.0352398
0.0418793
0.0376362
0.0418604
0.0425603
0.0410699
0.0384602
0.042081
0.0372029
0.0369424
0.0368371
0.0414838
0.0403844
0.0397828
0.0426145
0.04151
0.0411901
0.0387022
0.0362497
0.0428513
0.0408359
0.0430596
0.0419806
0.0379161
0.0403388
0.0411269
0.0386831
0.0406588
0.0394988
0.0404396
0.0441695
0.0410575
0.040041
0.0375545
0.0411109
0.0402316
0.041698
0.0400008
0.0372208
0.0382388
0.041095
0.0416541
0.0389138
0.0419294
0.0390774
0.0413472
0.0393981
0.0395374
0.0347628
0.0425901
0.0417245
0.0410048
0.0427495
0.04031
0.0386101
0.0377075
0.0349447
0.0414391
0.0381627
0.0406454
0.0401286
0.0422728
0.0404924
0.0421352
0.0398339
0.0277911
0.0379656
0.0421848
0.0294182
0.0404703
0.0428688
0.0416274
0.0425713
0.0383465
0.0381891
0.0386842
0.0427868
0.0343588
0.0429042
0.0378716
0.035845
0.0418696
0.0382432
0.0422261
0.0280327
0.036583
0.0412882
0.0421664
0.0426095
0.0411819
0.0421942
0.0412659
0.0411556
0.0418476
0.0415812
0.0401925
0.0400909
0.0347387
0.0421001
0.040032
0.0396936
0.0427051
0.0426332
0.041886
0.0380209
0.0423651
0.0414183
0.0397222
0.038498
0.0370668
0.0416461
0.0425604
0.0419921
0.042353
0.0414971
0.0408551
0.0372163
0.0418495
0.0404077
0.0405165
0.0407027
0.0372516
0.0357485
0.0397609
0.0434375
0.0413836
0.041211
0.0382066
0.0396052
0.0395065
0.0378246
0.0423669
0.0403823
0.0318636
0.0338094
0.0366549
0.0380883
0.0420674
0.0410651
0.0414507
0.0392398
0.0364783
0.0415987
0.0422172
0.0364335
0.0431066
0.0377603
0.042609
0.0396124
0.0419819
0.0422827
0.0407526
0.0415816
0.040342
0.0389962
0.0383624
0.0393442
0.041597
0.0406534
0.0383348
0.0398079
0.041123
0.0372554
0.0404303
0.0384659
0.0422664
0.0397792
0.040518
0.0331743
0.0422519
0.0427617
0.0404581
0.0415907
0.0396878
0.0403085
0.0423381
0.0410094
0.0411175
0.0427997
0.0408027
0.0377227
0.0373711
0.0434765
0.0383059
0.0376331
0.0375311
0.0419604
0.0427217
0.0413813
0.0426275
0.0434946
0.0426462
0.0413312
0.0400324
0.0384915
0.0415214
0.0362702
0.0407727
0.0412631
0.0398019
0.0393805
0.0384826
0.0408973
0.0428735
0.0368513
0.0399567
0.0412009
0.037179
0.0422956
0.0355946
0.0366274
0.0378318
0.0427898
0.0380569
0.0374708
0.0384316
0.0376293
0.040893
0.0348105
0.0355446
0.040415
0.0386448
0.0363972
0.0404306
0.0379453
0.0388594
0.0411595
0.038816
0.0373789
0.0416172
0.0393513
0.0394322
0.0374598
0.0400802
0.0396292
0.0355213
0.0425135
0.0406677
0.0416245
0.0398675
0.0379508
0.0373755
0.0404289
0.0400409
0.0425365
0.0406475
0.042053
0.0389028
0.0406036
0.0420782
0.0423247
0.0346409
0.0356944
0.0376716
0.0420599
0.0376173
0.0405459
0.032389
0.0390025
0.0410062
0.0397272
0.040855
0.0384616
0.0401211
0.0401695
0.0423577
0.0380053
0.0403989
0.0431903
0.0374546
0.0406196
0.0384043
0.0415667
0.0383557
0.0374951
0.0408707
0.0375745
0.0342599
0.0357585
0.0376519
0.0391101
0.0353029
0.0425483
0.039204
0.0366519
0.0403639
0.042042
0.0406008
0.0358922
0.0429805
0.0413746
0.037341
0.0401122
0.0402484
0.0384115
0.0403386
0.0405561
0.0407951
0.037235
0.0365797
0.0403225
0.0380722
0.0353907
0.0363145
0.0372244
0.0411464
0.037318
0.041766
0.0401422
0.0409975
0.0385515
0.0422627
0.0382771
0.0406296
0.0386899
0.0279335
0.0425975
0.035698
0.0406683
0.0421015
0.0423946
0.0344485
0.0421357
0.0425071
0.037737
0.0407878
0.0400292
0.0386022
0.0343789
0.040666
0.0388939
0.0416939
0.0429503
0.0397109
0.0426477
0.0386917
0.0389051
0.0369724
0.0348401
0.0356552
0.0424213
0.0353324
0.0418068
0.0388811
0.0361883
0.0392609
0.0423075
0.0355009
0.0299331
0.0384467
0.0412886
0.0423184
0.0409285
0.0275776
0.0389332
0.0421045
0.0411238
0.0429287
0.0400144
0.035788
0.0424713
0.0357702
0.0414525
0.0391921
0.0393544
0.0393994
0.0417552
0.037568
0.0382039
0.0351306
0.0386935
0.0416979
0.0410562
0.0406918
0.037116
0.037716
0.0395528
0.037654
0.0408609
0.0365313
0.037406
0.0409268
0.0422366
0.0368791
0.0420118
0.0386208
0.0432755
0.0362123
0.0424565
0.0403019
0.0409632
0.0405622
0.0388018
0.0380715
0.0433796
0.0403233
0.0404157
0.0405105
0.03746
0.0415141
0.0426254
0.0371598
0.0379686
0.0390407
0.0361576
0.0389103
0.0412369
0.0338656
0.0426106
0.0345908
0.0396324
0.0411034
0.0357359
0.0394279
0.0404462
0.0376699
0.0401614
0.0383395
0.040241
0.0361012
0.0411968
0.0362805
0.0395976
0.0312608
0.0407048
0.0360624
0.0372101
0.0409299
0.0372924
0.0385515
0.0429004
0.0408009
0.0408552
0.0422249
0.0351379
0.0409299
0.0379516
0.0405179
0.0402368
0.039758
0.041996
0.0408157
0.0368548
0.0366944
0.0419248
0.0406325
0.0409321
0.0349105
0.0422825
0.0434463
0.0416075
0.0408774
0.0381081
0.0377587
0.0398853
0.0368663
0.0373556
0.0414652
0.0401696
0.0390453
0.0399803
0.0398056
0.0402784
0.0361314
0.0380792
0.0373063
0.0344805
0.0427441
0.04029
0.038375
0.0420566
0.0404484
0.0385955
0.0417864
0.0352573
0.0376783
0.0357901
0.036757
0.0426996
0.0413142
0.0331206
0.0421403
0.0357923
0.0403278
0.0404832
0.0403369
0.0422042
0.0396059
0.0408387
0.0394539
0.0394956
0.0392683
0.0418128
0.035862
0.0367082
0.0393094
0.0345543
0.0388529
0.0354603
0.0377639
0.0424196
0.0398791
0.0327625
0.0332754
0.0370281
0.0365488
0.0389931
0.037851
0.0396285
0.0409753
0.0342606
0.0404202
0.0390844
0.0389645
0.0358647
0.040028
0.0353133
0.0324648
0.0374945
0.0373507
0.0370946
0.0382564
0.0386955
0.0394636
0.0368052
0.0421337
0.036754
0.0402138
0.0378222
0.0402299
0.0386508
0.0364651
0.0407976
0.0399516
0.0345054
0.0379717
0.0393452
0.043035