/*--------------------------------*- C++ -*----------------------------------*\
| =========                 |                                                 |
| \\      /  F ield         | OpenFOAM: The Open Source CFD Toolbox           |
|  \\    /   O peration     | Version:  2212                                  |
|   \\  /    A nd           | Website:  www.openfoam.com                      |
|    \\/     M anipulation  |                                                 |
\*---------------------------------------------------------------------------*/
FoamFile
{
    version     2.0;
    format      ascii;
    arch        "LSB;label=32;scalar=64";
    class       volScalarField;
    location    "0.02";
    object      nut;
}
// * * * * * * * * * * * * * * * * * * * * * * * * * * * * * * * * * * * * * //

dimensions      [0 2 -1 0 0 0 0];

internalField   nonuniform List<scalar> 
31639
(
7.24129e-05
6.98847e-05
7.1682e-05
7.60015e-05
7.01849e-05
6.85242e-05
6.82707e-05
7.31898e-05
7.23049e-05
7.44513e-05
7.43243e-05
7.37875e-05
7.10549e-05
7.55022e-05
6.86682e-05
6.67586e-05
7.27554e-05
6.9e-05
6.63759e-05
7.01869e-05
5.96191e-05
7.44783e-05
7.55699e-05
6.6901e-05
6.60924e-05
7.17004e-05
7.0415e-05
6.25122e-05
6.86602e-05
7.55779e-05
7.44639e-05
6.80538e-05
7.51629e-05
6.625e-05
6.18904e-05
7.5296e-05
5.74978e-05
7.64425e-05
7.4794e-05
5.5896e-05
6.24964e-05
6.11589e-05
7.40725e-05
7.46822e-05
7.51824e-05
7.45297e-05
6.83921e-05
6.9034e-05
7.25215e-05
7.56998e-05
7.40585e-05
5.70281e-05
7.61934e-05
5.88351e-05
6.78545e-05
7.20306e-05
6.02094e-05
7.06115e-05
6.99825e-05
5.97673e-05
7.08924e-05
7.36196e-05
6.52822e-05
6.94186e-05
7.20483e-05
7.56135e-05
7.11051e-05
7.06762e-05
6.33686e-05
7.54741e-05
7.57819e-05
6.5715e-05
7.33319e-05
7.02575e-05
7.60705e-05
6.13188e-05
7.4675e-05
6.94052e-05
6.92747e-05
7.42732e-05
6.57203e-05
5.56279e-05
7.51376e-05
7.17552e-05
7.2233e-05
7.43893e-05
7.57696e-05
7.49869e-05
6.2162e-05
7.64795e-05
7.11843e-05
7.02285e-05
6.08701e-05
6.95081e-05
6.4352e-05
6.84928e-05
7.00772e-05
7.03855e-05
7.10429e-05
6.03921e-05
7.63778e-05
7.40686e-05
6.91877e-05
5.90996e-05
6.04635e-05
7.47156e-05
5.86356e-05
5.8072e-05
6.47258e-05
5.89758e-05
7.26225e-05
6.0982e-05
6.92508e-05
6.75471e-05
7.06609e-05
5.89295e-05
6.8729e-05
6.86815e-05
7.51016e-05
6.96917e-05
7.32356e-05
7.38158e-05
7.30947e-05
7.19997e-05
7.06625e-05
7.54629e-05
7.01179e-05
6.53948e-05
6.4486e-05
7.37589e-05
7.4284e-05
7.32993e-05
7.36559e-05
6.79793e-05
7.32476e-05
7.07993e-05
6.01934e-05
5.89819e-05
7.35572e-05
7.03874e-05
7.01464e-05
7.46241e-05
7.45703e-05
5.82023e-05
5.73426e-05
7.58009e-05
7.43932e-05
6.08447e-05
6.05298e-05
7.46528e-05
6.45543e-05
7.05806e-05
6.64593e-05
7.32414e-05
6.13637e-05
7.56835e-05
7.02206e-05
6.37655e-05
6.21723e-05
6.67561e-05
7.45615e-05
6.18555e-05
6.4167e-05
5.97912e-05
6.14156e-05
6.88524e-05
6.13571e-05
7.5451e-05
7.3649e-05
5.88752e-05
6.50986e-05
6.80677e-05
6.19838e-05
7.11024e-05
7.61531e-05
7.45491e-05
7.12419e-05
7.57622e-05
7.1448e-05
7.05421e-05
6.93942e-05
6.8758e-05
6.77053e-05
5.69468e-05
7.19394e-05
7.602e-05
6.78359e-05
7.53572e-05
6.12694e-05
5.92477e-05
7.65837e-05
7.38483e-05
7.21298e-05
6.96179e-05
7.01627e-05
6.78777e-05
6.8051e-05
7.34962e-05
5.943e-05
6.82959e-05
7.49747e-05
7.6071e-05
7.1861e-05
7.2195e-05
7.10947e-05
7.02266e-05
6.87285e-05
6.87434e-05
7.38766e-05
5.71787e-05
6.95843e-05
6.86925e-05
7.16723e-05
7.41736e-05
7.25792e-05
7.49249e-05
6.258e-05
6.66066e-05
7.40471e-05
7.4836e-05
7.30648e-05
6.89491e-05
5.92323e-05
7.0406e-05
5.96094e-05
7.03799e-05
7.40163e-05
6.60474e-05
6.13021e-05
7.32119e-05
7.21133e-05
7.63917e-05
6.224e-05
5.98866e-05
7.236e-05
7.29109e-05
6.06255e-05
7.4419e-05
6.48841e-05
5.86982e-05
6.91139e-05
7.18492e-05
6.94636e-05
6.65253e-05
6.53346e-05
7.27192e-05
6.85766e-05
6.77655e-05
6.07712e-05
6.98591e-05
6.76255e-05
6.20189e-05
6.66462e-05
7.57317e-05
7.51238e-05
6.79401e-05
6.21225e-05
7.3266e-05
7.25156e-05
6.91621e-05
7.58471e-05
7.4447e-05
7.31164e-05
7.48437e-05
6.89293e-05
7.01173e-05
5.87039e-05
6.61184e-05
7.38841e-05
6.80984e-05
7.29271e-05
6.72962e-05
7.07947e-05
7.52094e-05
7.5811e-05
7.06334e-05
6.01289e-05
6.88521e-05
6.42086e-05
7.42664e-05
6.93208e-05
7.4619e-05
7.59632e-05
6.74609e-05
6.12379e-05
6.40625e-05
6.19356e-05
5.93305e-05
7.38208e-05
6.28179e-05
7.56418e-05
6.88382e-05
6.68151e-05
6.28696e-05
7.62546e-05
6.77125e-05
6.60988e-05
7.43857e-05
7.05688e-05
6.43325e-05
6.97073e-05
6.20548e-05
7.00736e-05
6.89373e-05
6.17887e-05
6.87609e-05
6.87391e-05
5.54841e-05
5.8265e-05
7.38673e-05
7.55793e-05
7.35854e-05
5.97765e-05
6.23185e-05
7.33748e-05
6.33628e-05
6.41747e-05
7.53529e-05
7.51956e-05
6.82092e-05
7.45938e-05
7.57665e-05
6.16327e-05
7.64675e-05
5.8324e-05
5.94262e-05
7.41742e-05
7.33595e-05
7.40255e-05
7.54818e-05
7.29243e-05
6.25745e-05
6.89229e-05
6.90266e-05
7.45622e-05
7.58706e-05
7.62891e-05
6.90338e-05
6.72631e-05
7.17326e-05
7.3608e-05
7.21972e-05
6.71155e-05
6.9887e-05
6.86673e-05
6.90704e-05
7.39124e-05
6.78334e-05
6.15084e-05
7.30204e-05
7.7116e-05
6.81936e-05
7.57326e-05
7.44781e-05
6.95882e-05
6.17967e-05
6.92181e-05
6.94464e-05
5.95518e-05
7.5228e-05
6.21292e-05
7.13097e-05
7.47645e-05
5.81615e-05
7.00724e-05
6.93756e-05
6.02619e-05
7.10848e-05
6.25285e-05
6.93557e-05
7.58934e-05
7.28929e-05
5.82789e-05
7.20357e-05
6.21432e-05
7.21185e-05
7.42266e-05
7.50033e-05
7.46362e-05
6.23021e-05
7.26131e-05
5.95258e-05
6.85239e-05
5.87657e-05
7.51392e-05
7.37491e-05
7.4826e-05
7.42641e-05
6.53059e-05
7.53575e-05
7.0032e-05
7.18004e-05
6.9275e-05
6.30881e-05
7.00015e-05
7.23711e-05
7.1563e-05
7.2796e-05
7.15077e-05
7.3059e-05
6.92711e-05
6.11229e-05
7.01963e-05
7.41046e-05
7.30371e-05
5.8151e-05
7.48448e-05
7.39029e-05
6.95132e-05
7.17903e-05
7.25732e-05
7.06315e-05
7.48563e-05
6.04892e-05
7.20912e-05
7.47937e-05
5.83282e-05
7.11761e-05
7.18495e-05
6.27187e-05
5.9684e-05
6.04237e-05
6.79445e-05
6.01615e-05
6.99293e-05
7.00162e-05
6.72394e-05
7.57872e-05
6.12369e-05
7.37135e-05
7.53602e-05
6.98563e-05
7.28472e-05
6.85776e-05
7.45528e-05
7.00568e-05
7.05345e-05
7.57128e-05
7.0011e-05
6.03161e-05
7.00557e-05
7.57681e-05
7.44534e-05
7.29293e-05
7.60527e-05
6.79277e-05
7.21627e-05
7.32567e-05
7.56888e-05
7.60157e-05
6.16046e-05
6.93389e-05
5.64897e-05
6.91027e-05
6.88696e-05
6.14599e-05
5.9106e-05
6.82149e-05
7.25906e-05
7.38398e-05
6.05156e-05
7.26063e-05
6.67709e-05
6.9435e-05
7.32675e-05
5.61672e-05
6.88684e-05
5.91221e-05
6.81173e-05
7.4208e-05
7.68887e-05
7.29423e-05
6.9718e-05
5.8296e-05
7.28051e-05
7.00852e-05
7.36205e-05
5.97252e-05
6.11148e-05
6.935e-05
6.09591e-05
6.2172e-05
7.20532e-05
5.97672e-05
6.78543e-05
6.08255e-05
7.27498e-05
6.08321e-05
7.55902e-05
7.3896e-05
7.42245e-05
7.47557e-05
6.47431e-05
7.44707e-05
7.50836e-05
7.15025e-05
7.37763e-05
7.06536e-05
7.39891e-05
7.6573e-05
6.74373e-05
7.47491e-05
7.58326e-05
6.95736e-05
6.48787e-05
7.57754e-05
7.03106e-05
5.70924e-05
5.86597e-05
7.03913e-05
7.48345e-05
7.53853e-05
6.85007e-05
7.61008e-05
7.67748e-05
7.33457e-05
7.09981e-05
6.90256e-05
7.08477e-05
6.26403e-05
6.90848e-05
7.21191e-05
7.57644e-05
6.44302e-05
6.40651e-05
6.32189e-05
6.67504e-05
6.93277e-05
5.71343e-05
7.29918e-05
6.66251e-05
7.22085e-05
6.95828e-05
7.3414e-05
6.99741e-05
6.14527e-05
7.1589e-05
7.47783e-05
6.3477e-05
7.3544e-05
7.67157e-05
7.0472e-05
6.89047e-05
6.33709e-05
6.38265e-05
6.97032e-05
7.0503e-05
6.1814e-05
6.12086e-05
7.06102e-05
6.5917e-05
7.27895e-05
6.5084e-05
6.93507e-05
7.45229e-05
6.98952e-05
5.98671e-05
6.59606e-05
7.05255e-05
7.50365e-05
6.02709e-05
5.65527e-05
7.42166e-05
5.98838e-05
7.13812e-05
7.62184e-05
6.02415e-05
7.03135e-05
7.53891e-05
7.04334e-05
5.98091e-05
7.47243e-05
7.00919e-05
6.05244e-05
7.43477e-05
7.12057e-05
6.82505e-05
7.42976e-05
5.79125e-05
6.6269e-05
6.95347e-05
6.83607e-05
6.56613e-05
7.09564e-05
7.53232e-05
7.50313e-05
7.34011e-05
7.56089e-05
7.41175e-05
7.26841e-05
6.59127e-05
7.27284e-05
7.54213e-05
7.82813e-05
6.39716e-05
7.06035e-05
7.12073e-05
7.77342e-05
6.19029e-05
5.79592e-05
7.54614e-05
6.41361e-05
7.61512e-05
6.78329e-05
6.09631e-05
6.98975e-05
7.44269e-05
6.98823e-05
7.24812e-05
5.93843e-05
7.36433e-05
7.10003e-05
5.86917e-05
7.53348e-05
7.36282e-05
6.10978e-05
6.19834e-05
6.24793e-05
6.89219e-05
7.05081e-05
7.03968e-05
6.94381e-05
7.03357e-05
7.38019e-05
7.05033e-05
6.98963e-05
6.21979e-05
7.55688e-05
5.96463e-05
7.01955e-05
6.94384e-05
6.82442e-05
7.68909e-05
7.01314e-05
6.41747e-05
5.89522e-05
6.16609e-05
6.94284e-05
7.49286e-05
6.24706e-05
7.56775e-05
6.95351e-05
7.37524e-05
6.1069e-05
6.80588e-05
7.34156e-05
7.58411e-05
7.4361e-05
7.32192e-05
7.09218e-05
6.96637e-05
7.60635e-05
7.58079e-05
7.49543e-05
6.47555e-05
7.41665e-05
6.1467e-05
7.52331e-05
7.43828e-05
6.9059e-05
6.2392e-05
6.80095e-05
5.68781e-05
7.45311e-05
7.0584e-05
7.63062e-05
6.99715e-05
6.74799e-05
6.12937e-05
7.49658e-05
5.94756e-05
5.65964e-05
6.30279e-05
6.44388e-05
6.18886e-05
6.9805e-05
6.0264e-05
7.21745e-05
7.20222e-05
5.63797e-05
7.58183e-05
6.14838e-05
6.57479e-05
6.81634e-05
6.71803e-05
7.32076e-05
7.50325e-05
7.59878e-05
7.53131e-05
6.82006e-05
7.00684e-05
6.80094e-05
6.85057e-05
5.82873e-05
4.89982e-05
7.51976e-05
6.92587e-05
7.3223e-05
7.42005e-05
6.05763e-05
7.47356e-05
7.60717e-05
7.32663e-05
7.36404e-05
7.33893e-05
7.14372e-05
7.52032e-05
7.59469e-05
7.04362e-05
7.43923e-05
7.41212e-05
6.26069e-05
7.44245e-05
6.77333e-05
7.41574e-05
6.76854e-05
6.96799e-05
6.57793e-05
7.65029e-05
6.84357e-05
7.0539e-05
6.97706e-05
6.17595e-05
7.54641e-05
7.10915e-05
6.735e-05
6.08549e-05
7.30028e-05
5.82595e-05
7.41108e-05
7.3257e-05
6.79518e-05
7.5789e-05
7.60402e-05
7.55542e-05
6.04757e-05
6.97615e-05
6.97359e-05
7.05389e-05
6.22287e-05
7.2904e-05
7.37557e-05
6.715e-05
7.00187e-05
6.6528e-05
7.24964e-05
6.81945e-05
6.89855e-05
5.81437e-05
7.36025e-05
7.1893e-05
7.48725e-05
6.53652e-05
6.99881e-05
7.12875e-05
6.94073e-05
6.6489e-05
7.07847e-05
7.36982e-05
6.90072e-05
5.80828e-05
5.85142e-05
6.87219e-05
5.78101e-05
6.17673e-05
7.15089e-05
7.13861e-05
7.37993e-05
5.796e-05
6.89539e-05
7.51486e-05
6.20759e-05
5.89676e-05
7.07623e-05
6.26596e-05
7.30579e-05
6.3597e-05
7.55992e-05
6.60363e-05
6.7029e-05
7.54054e-05
5.86392e-05
6.83873e-05
6.84676e-05
7.39713e-05
7.49855e-05
7.4996e-05
6.27963e-05
7.31921e-05
7.51503e-05
6.7764e-05
7.56478e-05
7.34701e-05
7.28761e-05
7.55048e-05
7.03697e-05
7.71007e-05
7.5965e-05
7.66467e-05
7.24652e-05
6.80944e-05
7.05411e-05
6.98535e-05
6.07736e-05
6.82611e-05
7.21167e-05
7.42473e-05
7.59461e-05
6.8737e-05
7.64638e-05
7.37107e-05
6.7152e-05
7.37178e-05
7.45403e-05
7.32863e-05
7.33084e-05
6.13488e-05
6.78601e-05
7.5426e-05
5.76428e-05
6.94111e-05
6.91661e-05
6.90311e-05
6.87992e-05
7.52712e-05
7.27973e-05
7.41197e-05
7.00809e-05
7.26538e-05
7.08195e-05
7.44367e-05
7.08373e-05
6.84403e-05
6.16413e-05
7.45403e-05
6.22518e-05
6.80404e-05
6.95577e-05
6.7735e-05
7.09466e-05
7.60481e-05
6.14406e-05
7.6161e-05
6.17919e-05
7.08288e-05
6.86811e-05
6.91421e-05
6.95024e-05
7.5412e-05
6.09504e-05
7.36134e-05
7.44161e-05
7.5268e-05
7.08977e-05
7.19914e-05
5.72153e-05
7.56864e-05
7.42303e-05
7.33767e-05
7.34836e-05
7.43075e-05
6.98637e-05
7.07585e-05
7.07714e-05
6.2385e-05
6.95117e-05
7.55536e-05
5.89604e-05
6.4062e-05
7.78263e-05
7.43252e-05
6.5983e-05
6.7758e-05
7.12355e-05
6.64292e-05
6.88091e-05
6.32254e-05
7.35318e-05
7.56415e-05
5.75809e-05
7.08175e-05
7.47128e-05
7.3462e-05
7.53139e-05
6.82375e-05
7.42289e-05
6.28338e-05
6.22668e-05
7.6023e-05
7.45436e-05
6.93322e-05
6.19386e-05
7.29268e-05
7.46385e-05
6.46505e-05
7.48337e-05
7.41805e-05
7.43728e-05
7.22221e-05
7.44238e-05
7.08346e-05
7.10714e-05
6.88584e-05
6.68692e-05
5.94603e-05
7.10953e-05
7.07198e-05
6.22143e-05
7.47817e-05
5.87184e-05
6.80199e-05
6.91325e-05
6.17505e-05
6.91303e-05
6.73103e-05
7.30359e-05
7.09746e-05
7.39956e-05
6.07681e-05
6.16376e-05
6.84255e-05
6.08605e-05
6.75092e-05
7.4518e-05
6.88601e-05
7.48808e-05
7.02883e-05
6.99897e-05
7.49712e-05
6.78884e-05
7.05053e-05
6.9495e-05
6.93188e-05
7.21415e-05
6.34322e-05
7.0672e-05
7.36396e-05
7.51318e-05
7.66578e-05
6.06664e-05
6.00918e-05
6.95611e-05
7.48777e-05
6.2921e-05
6.83875e-05
7.18391e-05
6.99661e-05
7.73104e-05
6.91251e-05
6.84452e-05
7.33005e-05
6.04757e-05
7.46918e-05
7.52757e-05
6.20335e-05
6.61149e-05
6.92709e-05
6.74542e-05
7.58225e-05
7.50258e-05
7.20256e-05
6.29724e-05
7.43451e-05
6.06208e-05
6.87374e-05
7.44228e-05
6.66924e-05
7.68376e-05
5.93628e-05
6.9781e-05
7.20219e-05
7.02955e-05
5.97322e-05
5.94704e-05
7.46232e-05
7.52713e-05
6.80556e-05
7.52068e-05
7.199e-05
6.93216e-05
6.12634e-05
6.3678e-05
7.15936e-05
6.99124e-05
6.98654e-05
7.59702e-05
7.45514e-05
7.70448e-05
7.52183e-05
7.15034e-05
7.17274e-05
7.3395e-05
6.14478e-05
7.39918e-05
7.27824e-05
7.08429e-05
7.15783e-05
7.54806e-05
6.90917e-05
7.52556e-05
6.92071e-05
5.76688e-05
7.62131e-05
6.68117e-05
7.56236e-05
6.79957e-05
7.40635e-05
6.22814e-05
7.28296e-05
7.76674e-05
6.98489e-05
7.0466e-05
6.05504e-05
7.37973e-05
7.59613e-05
7.19289e-05
6.08543e-05
7.85672e-05
7.02104e-05
7.20492e-05
7.5332e-05
7.42276e-05
7.3682e-05
6.92479e-05
6.9737e-05
7.69997e-05
6.20321e-05
6.28741e-05
6.22661e-05
6.49167e-05
7.15814e-05
5.93559e-05
7.58449e-05
7.45907e-05
7.625e-05
6.87917e-05
6.95519e-05
7.061e-05
7.53952e-05
7.0481e-05
7.09493e-05
7.51712e-05
7.55704e-05
7.01642e-05
7.41515e-05
7.00767e-05
6.89285e-05
7.32731e-05
6.77968e-05
7.63243e-05
7.62037e-05
7.58501e-05
7.59179e-05
7.52846e-05
6.6464e-05
7.73793e-05
7.08128e-05
7.17593e-05
6.87005e-05
7.16218e-05
7.66498e-05
7.02496e-05
7.3769e-05
6.77877e-05
7.00133e-05
7.29463e-05
6.34918e-05
6.07177e-05
6.92745e-05
6.90477e-05
7.61736e-05
6.72552e-05
5.93777e-05
7.17004e-05
7.39909e-05
6.45176e-05
6.75387e-05
7.05883e-05
7.59575e-05
7.57773e-05
6.82392e-05
6.54051e-05
7.01278e-05
7.35259e-05
6.81021e-05
7.1555e-05
7.05482e-05
5.99652e-05
6.81787e-05
6.75262e-05
7.30372e-05
7.5024e-05
7.04876e-05
7.55518e-05
7.33513e-05
7.05567e-05
7.17854e-05
6.20384e-05
6.37868e-05
5.94866e-05
7.5285e-05
7.10644e-05
7.59222e-05
7.88458e-05
7.35219e-05
6.00502e-05
7.32913e-05
6.83968e-05
7.28304e-05
7.2476e-05
7.33758e-05
5.99224e-05
7.63241e-05
6.17241e-05
7.03615e-05
7.13703e-05
6.96043e-05
7.70014e-05
6.9523e-05
7.31059e-05
6.22955e-05
6.9583e-05
7.0716e-05
7.39508e-05
6.60984e-05
6.36441e-05
7.29136e-05
7.47382e-05
7.21506e-05
7.26278e-05
7.59955e-05
6.15354e-05
6.96253e-05
6.89382e-05
6.49462e-05
7.39813e-05
7.60067e-05
7.59501e-05
7.47087e-05
7.63478e-05
6.27697e-05
6.18935e-05
6.22601e-05
7.68625e-05
6.05325e-05
7.31122e-05
7.1631e-05
6.19762e-05
6.7954e-05
7.40927e-05
7.48268e-05
6.59085e-05
6.75411e-05
6.84156e-05
7.06974e-05
7.57318e-05
7.16162e-05
6.20733e-05
7.03933e-05
7.63829e-05
7.5219e-05
7.63602e-05
7.55394e-05
7.84147e-05
7.59076e-05
7.40658e-05
6.3109e-05
6.07582e-05
7.07093e-05
6.59683e-05
7.57241e-05
6.11162e-05
7.15574e-05
6.93077e-05
7.54621e-05
6.29522e-05
7.27695e-05
7.41034e-05
7.18468e-05
6.83727e-05
6.16101e-05
7.41539e-05
6.7389e-05
7.63472e-05
7.0515e-05
7.83744e-05
7.5916e-05
7.08681e-05
6.03166e-05
6.14751e-05
6.92832e-05
7.15187e-05
6.72502e-05
7.72969e-05
6.23661e-05
7.52369e-05
7.31796e-05
6.82897e-05
7.25744e-05
7.46182e-05
7.52718e-05
7.55015e-05
7.64491e-05
7.15196e-05
7.23335e-05
6.00886e-05
6.7116e-05
7.5169e-05
6.28659e-05
7.2423e-05
6.90056e-05
6.22747e-05
7.00083e-05
7.24499e-05
6.94958e-05
7.31877e-05
7.43076e-05
6.20491e-05
6.91988e-05
7.07683e-05
6.11401e-05
6.72423e-05
6.87657e-05
6.82852e-05
7.30596e-05
6.26166e-05
6.23055e-05
6.96139e-05
6.79057e-05
7.49303e-05
7.66104e-05
7.49648e-05
6.84609e-05
6.86267e-05
7.07416e-05
6.74414e-05
7.57244e-05
6.22742e-05
7.0148e-05
6.91936e-05
7.58466e-05
7.33292e-05
6.96429e-05
7.04324e-05
7.46848e-05
6.2145e-05
7.08413e-05
7.5671e-05
6.7973e-05
5.40564e-05
7.00097e-05
6.08776e-05
7.18472e-05
5.90547e-05
7.65095e-05
7.59788e-05
7.54461e-05
7.16405e-05
6.30434e-05
6.0572e-05
7.41913e-05
7.64124e-05
7.56545e-05
7.05244e-05
7.07974e-05
7.31239e-05
7.66263e-05
7.5092e-05
6.00827e-05
6.98377e-05
7.10809e-05
7.26044e-05
6.84842e-05
7.34969e-05
5.93209e-05
7.59043e-05
7.44523e-05
7.15608e-05
7.11604e-05
7.3013e-05
7.02927e-05
7.58996e-05
7.26111e-05
6.29034e-05
6.98679e-05
7.31149e-05
6.91938e-05
7.13012e-05
7.23039e-05
5.94951e-05
6.34459e-05
7.47976e-05
7.62564e-05
7.43409e-05
7.58254e-05
7.37486e-05
7.43931e-05
7.20629e-05
7.0828e-05
7.24333e-05
7.48127e-05
6.79028e-05
6.97631e-05
6.73521e-05
7.0519e-05
7.47156e-05
5.87745e-05
7.13513e-05
5.94183e-05
7.43707e-05
5.96861e-05
6.09606e-05
6.93863e-05
5.76088e-05
6.98658e-05
7.20529e-05
7.44643e-05
7.44053e-05
6.6464e-05
6.67047e-05
7.73671e-05
6.51178e-05
6.23393e-05
6.93522e-05
6.61672e-05
7.52732e-05
7.23329e-05
7.14522e-05
6.19638e-05
7.45062e-05
7.58298e-05
7.54245e-05
6.09569e-05
6.43346e-05
7.00402e-05
7.51394e-05
7.68702e-05
6.21285e-05
6.03399e-05
7.38035e-05
7.0901e-05
7.62143e-05
6.98205e-05
5.86636e-05
7.2673e-05
7.4493e-05
6.11909e-05
5.91054e-05
7.49625e-05
6.3442e-05
6.28704e-05
7.54594e-05
7.62398e-05
7.29618e-05
7.77784e-05
6.92546e-05
6.83866e-05
7.49827e-05
6.66163e-05
7.50413e-05
6.73812e-05
7.26967e-05
7.47768e-05
6.89213e-05
6.13424e-05
7.37379e-05
7.45691e-05
6.82814e-05
6.96671e-05
7.04325e-05
6.4937e-05
6.57015e-05
7.1292e-05
7.28683e-05
7.57049e-05
6.75828e-05
7.36676e-05
6.02837e-05
7.32819e-05
7.64735e-05
5.97947e-05
7.50741e-05
7.09526e-05
5.57579e-05
6.11056e-05
7.08795e-05
6.98337e-05
7.37813e-05
6.78963e-05
6.25105e-05
7.46931e-05
7.64319e-05
7.5703e-05
7.20104e-05
7.53538e-05
6.03836e-05
7.51382e-05
7.0175e-05
6.07157e-05
6.16869e-05
5.54652e-05
6.18904e-05
7.34198e-05
6.84746e-05
7.18204e-05
7.05147e-05
6.44233e-05
6.55127e-05
5.82642e-05
5.8196e-05
7.78836e-05
7.67243e-05
6.25942e-05
7.5332e-05
7.41412e-05
6.24135e-05
6.92497e-05
7.08347e-05
6.42093e-05
6.72566e-05
7.5282e-05
6.35371e-05
5.85705e-05
7.54838e-05
7.71081e-05
6.63381e-05
7.51704e-05
6.92395e-05
6.41201e-05
6.24218e-05
6.99638e-05
6.09353e-05
6.10954e-05
7.10506e-05
7.27906e-05
6.93853e-05
7.54473e-05
7.5015e-05
6.9509e-05
7.6073e-05
5.07758e-05
6.9757e-05
6.03472e-05
7.06071e-05
7.59862e-05
6.92501e-05
6.68012e-05
6.95605e-05
6.19115e-05
7.22808e-05
6.96845e-05
6.68617e-05
6.13411e-05
5.80039e-05
5.73363e-05
6.77532e-05
6.08857e-05
6.98411e-05
6.12859e-05
6.86939e-05
7.49404e-05
7.23884e-05
6.91363e-05
7.13797e-05
7.28292e-05
6.98986e-05
7.3807e-05
5.98316e-05
7.04896e-05
7.60649e-05
7.56485e-05
6.88187e-05
7.73347e-05
6.39986e-05
7.46528e-05
6.91739e-05
6.00972e-05
7.35076e-05
7.59998e-05
7.25903e-05
7.36224e-05
7.58215e-05
7.20907e-05
5.75774e-05
5.83791e-05
6.88761e-05
7.63349e-05
7.17777e-05
7.39715e-05
6.72973e-05
6.83868e-05
6.41943e-05
5.95841e-05
5.94776e-05
5.98084e-05
7.31829e-05
7.1415e-05
7.58224e-05
6.77602e-05
6.81637e-05
7.65931e-05
5.92265e-05
7.05019e-05
7.57945e-05
7.58081e-05
6.69125e-05
6.77335e-05
7.40059e-05
7.65574e-05
7.56303e-05
6.12071e-05
7.05704e-05
7.36916e-05
7.22225e-05
7.07841e-05
7.8103e-05
7.46746e-05
7.56196e-05
7.10267e-05
6.61726e-05
7.0315e-05
7.57001e-05
7.36661e-05
7.03247e-05
6.04799e-05
7.48667e-05
7.43946e-05
7.57613e-05
7.38309e-05
5.99048e-05
5.68252e-05
6.91527e-05
7.33343e-05
6.98291e-05
7.1188e-05
7.36061e-05
7.37004e-05
7.43214e-05
6.7504e-05
7.32411e-05
7.03707e-05
7.42379e-05
6.0974e-05
6.04922e-05
6.75423e-05
7.53042e-05
6.19097e-05
7.46707e-05
6.12979e-05
6.89612e-05
7.03035e-05
7.60275e-05
6.90071e-05
7.42258e-05
7.49765e-05
7.47505e-05
7.1553e-05
7.38038e-05
7.09385e-05
6.7759e-05
5.82574e-05
7.60201e-05
5.62708e-05
5.96506e-05
6.03844e-05
5.88065e-05
5.92003e-05
6.82297e-05
7.08465e-05
6.18441e-05
6.74802e-05
5.6061e-05
6.28769e-05
6.86825e-05
7.50456e-05
5.90523e-05
6.11033e-05
7.38185e-05
5.90856e-05
6.88999e-05
7.40739e-05
7.1937e-05
7.01983e-05
6.18208e-05
5.9987e-05
6.78482e-05
7.58659e-05
6.46694e-05
6.15698e-05
7.15893e-05
6.76517e-05
7.15763e-05
6.95126e-05
6.19545e-05
7.59707e-05
5.86278e-05
6.0387e-05
6.93776e-05
7.55207e-05
6.72475e-05
6.92513e-05
6.97494e-05
7.06159e-05
5.78612e-05
6.30614e-05
6.84578e-05
7.61149e-05
7.27695e-05
5.98399e-05
5.72936e-05
6.9742e-05
7.60183e-05
6.93313e-05
6.9779e-05
6.73659e-05
6.7859e-05
6.9629e-05
6.06723e-05
7.5411e-05
6.66848e-05
6.09382e-05
5.69479e-05
7.38338e-05
7.00553e-05
7.62557e-05
7.14502e-05
7.41256e-05
6.03954e-05
6.92932e-05
5.81623e-05
5.67105e-05
7.47308e-05
6.23225e-05
6.89998e-05
7.03385e-05
7.29008e-05
6.12544e-05
7.57626e-05
7.41934e-05
7.57984e-05
7.21703e-05
5.38254e-05
7.04966e-05
5.84439e-05
7.64869e-05
6.17585e-05
7.58661e-05
5.65507e-05
7.16374e-05
7.38656e-05
6.75253e-05
6.84366e-05
5.70916e-05
6.59742e-05
7.00198e-05
7.48046e-05
7.26605e-05
7.50927e-05
7.60673e-05
6.0137e-05
7.57347e-05
6.53379e-05
7.14491e-05
7.15825e-05
7.44422e-05
7.4165e-05
7.023e-05
7.632e-05
6.86805e-05
6.60017e-05
6.61878e-05
7.13434e-05
7.59145e-05
6.5287e-05
6.37323e-05
7.52549e-05
7.31252e-05
6.98256e-05
7.80066e-05
7.19803e-05
7.18134e-05
7.43112e-05
7.46495e-05
7.58279e-05
6.9188e-05
6.74826e-05
7.46732e-05
7.38281e-05
6.26356e-05
6.90963e-05
6.58662e-05
7.62351e-05
7.12122e-05
7.41668e-05
6.14794e-05
6.19019e-05
7.05133e-05
7.38174e-05
7.49648e-05
7.6121e-05
7.49488e-05
7.11012e-05
7.24927e-05
6.20275e-05
7.05661e-05
7.06106e-05
7.48615e-05
7.59741e-05
7.55172e-05
6.93342e-05
7.56565e-05
6.29123e-05
7.53555e-05
6.58417e-05
6.89868e-05
6.80832e-05
7.04827e-05
6.79231e-05
7.38846e-05
6.07995e-05
7.46967e-05
7.50839e-05
6.93751e-05
6.16483e-05
7.69897e-05
7.29548e-05
7.52488e-05
6.9884e-05
7.06856e-05
7.3654e-05
6.01952e-05
7.55263e-05
6.9442e-05
7.11178e-05
6.53039e-05
6.56332e-05
6.51062e-05
6.01383e-05
6.6984e-05
7.62929e-05
7.08433e-05
5.88383e-05
7.29883e-05
5.97599e-05
7.14691e-05
7.12384e-05
5.80821e-05
5.96954e-05
6.63824e-05
7.09352e-05
7.37334e-05
6.76356e-05
7.38055e-05
6.93265e-05
6.37615e-05
6.67161e-05
7.54499e-05
7.55497e-05
7.50431e-05
7.32971e-05
7.20025e-05
6.07996e-05
6.09999e-05
7.57756e-05
6.82744e-05
7.0894e-05
7.47919e-05
7.72634e-05
7.05134e-05
7.1963e-05
5.79053e-05
7.38712e-05
7.49426e-05
6.73576e-05
7.5701e-05
7.50587e-05
7.18553e-05
6.7534e-05
7.33245e-05
6.793e-05
5.86576e-05
7.05654e-05
6.16881e-05
6.01633e-05
7.10838e-05
7.03883e-05
7.47416e-05
7.49481e-05
7.12198e-05
7.49973e-05
5.7117e-05
6.7576e-05
7.66151e-05
7.65049e-05
5.96434e-05
7.0613e-05
6.29753e-05
6.74252e-05
7.51846e-05
6.77335e-05
7.22867e-05
7.68094e-05
7.25964e-05
5.81308e-05
7.46972e-05
6.02282e-05
7.47199e-05
7.30991e-05
7.1703e-05
7.46282e-05
7.13033e-05
7.48884e-05
6.11231e-05
7.56281e-05
7.5535e-05
6.2625e-05
7.22143e-05
6.97495e-05
6.9077e-05
7.42483e-05
6.97664e-05
7.39533e-05
7.6026e-05
7.56225e-05
7.03211e-05
7.58313e-05
7.01046e-05
7.27867e-05
6.37194e-05
6.69934e-05
6.02398e-05
5.88385e-05
7.14683e-05
7.23286e-05
6.97901e-05
7.56271e-05
6.86622e-05
7.5676e-05
5.88254e-05
7.63188e-05
7.62033e-05
7.26038e-05
7.52071e-05
6.32583e-05
5.85544e-05
6.97699e-05
5.97193e-05
7.39311e-05
7.06051e-05
5.80122e-05
6.86134e-05
7.59791e-05
7.40922e-05
5.92663e-05
6.51562e-05
5.76571e-05
7.64716e-05
6.02472e-05
7.40505e-05
6.58546e-05
6.08573e-05
7.51546e-05
7.5962e-05
7.5446e-05
7.34105e-05
6.11553e-05
7.22898e-05
7.65271e-05
6.27299e-05
7.49372e-05
7.35385e-05
7.57517e-05
5.88665e-05
7.33111e-05
6.78827e-05
7.29282e-05
6.80211e-05
6.88615e-05
6.76389e-05
6.78859e-05
6.84827e-05
6.85942e-05
7.32618e-05
6.9501e-05
7.6019e-05
6.3556e-05
6.93727e-05
7.10518e-05
7.38312e-05
7.61811e-05
6.00929e-05
7.35538e-05
6.156e-05
6.84761e-05
7.56804e-05
7.61567e-05
6.95599e-05
7.14525e-05
7.36823e-05
6.76482e-05
6.95468e-05
6.94328e-05
6.05608e-05
5.98635e-05
7.1667e-05
7.45168e-05
7.02786e-05
6.79295e-05
7.46788e-05
6.15539e-05
7.15224e-05
6.12905e-05
7.22914e-05
7.57989e-05
7.02955e-05
5.97133e-05
7.46028e-05
6.04029e-05
7.21277e-05
7.51814e-05
5.90458e-05
7.63959e-05
6.29156e-05
6.74554e-05
6.90426e-05
5.95546e-05
6.59345e-05
6.75251e-05
5.69726e-05
7.53084e-05
7.67234e-05
5.62924e-05
6.67414e-05
7.33572e-05
7.21416e-05
7.15545e-05
7.66952e-05
7.52111e-05
6.9201e-05
6.56606e-05
5.92944e-05
5.75347e-05
6.21479e-05
7.61973e-05
7.42567e-05
7.25785e-05
7.23946e-05
6.03748e-05
6.08955e-05
6.90778e-05
7.52036e-05
5.75123e-05
7.19144e-05
6.98511e-05
6.91342e-05
7.29508e-05
6.71724e-05
7.42296e-05
6.50856e-05
7.00381e-05
7.72366e-05
5.51271e-05
7.07163e-05
7.53662e-05
7.45246e-05
7.25978e-05
7.41607e-05
7.16386e-05
5.98626e-05
7.6808e-05
7.7723e-05
6.97367e-05
7.09076e-05
6.70925e-05
6.98715e-05
7.29371e-05
7.35558e-05
7.07978e-05
6.95868e-05
6.84409e-05
5.92575e-05
6.82584e-05
7.61109e-05
7.35165e-05
7.69197e-05
7.13198e-05
7.01015e-05
7.65443e-05
6.14867e-05
7.42138e-05
6.03169e-05
7.63061e-05
7.30284e-05
6.75864e-05
7.72339e-05
6.71414e-05
6.94254e-05
7.65926e-05
6.82356e-05
7.66203e-05
7.45186e-05
7.39255e-05
6.06462e-05
7.03611e-05
6.94231e-05
6.48531e-05
7.42131e-05
6.8044e-05
6.87234e-05
7.67706e-05
6.07983e-05
7.52528e-05
7.04254e-05
7.54334e-05
6.83773e-05
7.14362e-05
6.10674e-05
6.30665e-05
7.73688e-05
6.09431e-05
7.0175e-05
7.43248e-05
6.08454e-05
6.93675e-05
7.46538e-05
6.66638e-05
6.21946e-05
6.56941e-05
6.83408e-05
6.78905e-05
7.48363e-05
6.91576e-05
7.60533e-05
7.26326e-05
7.48632e-05
5.86027e-05
6.55339e-05
7.60453e-05
6.94499e-05
6.03234e-05
6.2756e-05
7.04702e-05
6.10318e-05
5.99706e-05
6.98842e-05
6.8952e-05
7.56918e-05
6.7969e-05
7.4262e-05
7.53745e-05
7.47858e-05
7.40893e-05
7.41095e-05
6.74011e-05
6.63703e-05
7.35979e-05
6.91613e-05
6.74322e-05
7.57573e-05
6.95439e-05
5.96354e-05
5.91439e-05
6.89283e-05
6.02021e-05
7.31157e-05
7.41678e-05
6.66415e-05
7.40878e-05
7.40262e-05
7.39456e-05
7.72514e-05
7.00744e-05
6.11532e-05
6.74397e-05
6.82263e-05
7.44861e-05
6.6954e-05
7.2822e-05
7.60953e-05
6.87297e-05
6.75493e-05
7.10649e-05
7.53062e-05
7.30761e-05
7.88179e-05
7.4977e-05
6.9492e-05
7.0587e-05
6.29364e-05
6.82289e-05
7.53832e-05
6.3622e-05
7.56475e-05
6.72579e-05
7.40598e-05
6.03127e-05
7.33416e-05
7.02461e-05
7.4551e-05
6.95844e-05
7.21057e-05
6.98628e-05
7.40937e-05
5.90332e-05
6.2744e-05
6.99395e-05
6.70222e-05
7.09957e-05
7.061e-05
7.04885e-05
7.57338e-05
7.20614e-05
5.96814e-05
6.63491e-05
6.05372e-05
7.10878e-05
7.03173e-05
6.17836e-05
7.7618e-05
7.0041e-05
6.89922e-05
7.36282e-05
6.51133e-05
6.22373e-05
7.57036e-05
6.17019e-05
5.94473e-05
6.53292e-05
6.55126e-05
6.30421e-05
6.58065e-05
7.53331e-05
7.42058e-05
6.7611e-05
7.14106e-05
7.39027e-05
7.00921e-05
7.37879e-05
5.91517e-05
7.49057e-05
5.1712e-05
7.4235e-05
6.08627e-05
6.02565e-05
7.49384e-05
5.93313e-05
6.91162e-05
7.22012e-05
7.4474e-05
6.73209e-05
7.13084e-05
6.71692e-05
6.93915e-05
6.7171e-05
7.26799e-05
7.10579e-05
7.4229e-05
6.98857e-05
6.13352e-05
7.32255e-05
6.8778e-05
6.90751e-05
6.66199e-05
6.30569e-05
6.51484e-05
5.85251e-05
5.96126e-05
7.0069e-05
6.89077e-05
6.30844e-05
6.75449e-05
7.51995e-05
7.52688e-05
7.54883e-05
5.12578e-05
5.95469e-05
7.56574e-05
6.05491e-05
7.41901e-05
5.94213e-05
7.48133e-05
7.48388e-05
7.47785e-05
6.11132e-05
6.91043e-05
7.61509e-05
7.59382e-05
7.19153e-05
7.57499e-05
6.96647e-05
7.16721e-05
6.92624e-05
6.02964e-05
7.19418e-05
6.66993e-05
7.0495e-05
7.03127e-05
6.47857e-05
6.87226e-05
7.51197e-05
6.6093e-05
6.56e-05
6.0433e-05
7.29573e-05
7.3123e-05
5.78748e-05
6.99762e-05
6.9809e-05
7.27701e-05
6.14461e-05
7.08519e-05
6.95846e-05
7.63391e-05
5.83545e-05
6.98018e-05
6.93684e-05
5.83276e-05
7.42894e-05
6.14327e-05
6.28227e-05
7.22445e-05
7.54405e-05
5.81191e-05
7.45464e-05
7.1859e-05
6.80797e-05
5.88971e-05
7.56563e-05
7.54538e-05
5.81134e-05
6.99842e-05
5.75709e-05
6.16845e-05
7.54167e-05
6.8017e-05
7.19457e-05
7.5186e-05
7.53873e-05
6.79326e-05
6.69801e-05
6.93104e-05
6.91317e-05
7.12437e-05
6.7007e-05
7.44391e-05
6.04961e-05
6.73113e-05
6.975e-05
6.8638e-05
7.26096e-05
6.86949e-05
7.21887e-05
7.33402e-05
6.98216e-05
7.5846e-05
7.27986e-05
6.84751e-05
6.62146e-05
7.31309e-05
6.79792e-05
6.67103e-05
7.25331e-05
7.58245e-05
7.29523e-05
7.4198e-05
6.65296e-05
7.31011e-05
6.64167e-05
6.1044e-05
6.96176e-05
7.206e-05
6.13882e-05
7.24453e-05
6.88532e-05
5.64922e-05
5.96132e-05
7.38451e-05
5.79852e-05
6.90551e-05
7.44655e-05
7.19834e-05
6.10805e-05
7.25766e-05
7.7037e-05
6.12641e-05
6.09403e-05
6.14315e-05
7.47629e-05
6.98072e-05
6.95277e-05
7.58082e-05
5.97327e-05
7.25943e-05
6.98735e-05
7.58034e-05
7.66643e-05
5.34802e-05
7.00278e-05
7.34997e-05
7.48539e-05
7.13272e-05
6.83105e-05
6.08306e-05
7.21078e-05
7.56721e-05
6.59672e-05
5.88068e-05
6.84005e-05
7.43436e-05
7.21222e-05
6.02341e-05
6.92301e-05
7.33773e-05
7.47082e-05
6.89942e-05
6.87975e-05
5.78854e-05
6.11444e-05
6.07417e-05
7.05381e-05
6.82948e-05
7.13887e-05
7.58712e-05
7.50231e-05
6.15675e-05
7.42308e-05
7.49668e-05
7.17524e-05
6.73759e-05
7.42153e-05
6.83501e-05
6.1851e-05
6.70752e-05
7.1298e-05
7.03181e-05
6.46515e-05
7.22809e-05
6.8608e-05
7.44994e-05
6.22027e-05
5.91212e-05
6.81335e-05
7.58151e-05
7.42605e-05
6.78501e-05
6.88369e-05
7.46481e-05
7.49527e-05
6.738e-05
6.76467e-05
7.43592e-05
7.5696e-05
7.30774e-05
7.56748e-05
7.37202e-05
7.21488e-05
5.91614e-05
6.81634e-05
6.07393e-05
7.30345e-05
7.46494e-05
6.71606e-05
6.04679e-05
7.63318e-05
6.04531e-05
6.67795e-05
6.33378e-05
7.0106e-05
5.91874e-05
7.23214e-05
6.96567e-05
6.94359e-05
7.08252e-05
6.32466e-05
7.54155e-05
6.19279e-05
7.27446e-05
7.02988e-05
6.90945e-05
6.05541e-05
7.43566e-05
7.23598e-05
6.14208e-05
6.45274e-05
6.89554e-05
6.81703e-05
7.21211e-05
5.65237e-05
7.17363e-05
6.81035e-05
7.03733e-05
6.63586e-05
6.61123e-05
6.59382e-05
5.71966e-05
7.5102e-05
6.97634e-05
3.69013e-05
6.12082e-05
7.02603e-05
7.51324e-05
7.35183e-05
6.24843e-05
6.09986e-05
7.44016e-05
6.04032e-05
7.35763e-05
7.53185e-05
7.18457e-05
6.21999e-05
7.44356e-05
5.95717e-05
5.84732e-05
5.8434e-05
7.27469e-05
6.91465e-05
6.77385e-05
7.58197e-05
7.27142e-05
7.11183e-05
6.26702e-05
5.64695e-05
7.61373e-05
7.02427e-05
7.67063e-05
7.40733e-05
6.12024e-05
6.91495e-05
7.03291e-05
6.67237e-05
6.97513e-05
6.6566e-05
6.84338e-05
7.91823e-05
7.10933e-05
6.74795e-05
6.05639e-05
7.21038e-05
6.92284e-05
7.33115e-05
6.7976e-05
6.00224e-05
6.19069e-05
7.21347e-05
7.27288e-05
6.62857e-05
7.38485e-05
6.58566e-05
7.22243e-05
6.68663e-05