/*--------------------------------*- C++ -*----------------------------------*\
| =========                 |                                                 |
| \\      /  F ield         | OpenFOAM: The Open Source CFD Toolbox           |
|  \\    /   O peration     | Version:  2212                                  |
|   \\  /    A nd           | Website:  www.openfoam.com                      |
|    \\/     M anipulation  |                                                 |
\*---------------------------------------------------------------------------*/
FoamFile
{
    version     2.0;
    format      ascii;
    arch        "LSB;label=32;scalar=64";
    class       volScalarField;
    location    "0.02";
    object      p;
}
// * * * * * * * * * * * * * * * * * * * * * * * * * * * * * * * * * * * * * //

dimensions      [0 2 -2 0 0 0 0];

internalField   nonuniform List<scalar> 
31639
(
0.0158146
0.0110443
0.0181063
0.00811259
0.0111344
0.0155632
0.0173607
0.0165652
0.0117994
0.0100598
0.017277
0.0112258
0.0116513
0.0151614
0.013221
0.0184917
0.0214224
0.0219274
0.00361593
0.0168332
0.0122512
0.00947255
0.012917
0.00799934
0.0138491
0.0163896
0.0159524
0.0502147
0.0166542
0.016614
0.0089342
0.0236644
0.0118167
0.00643669
0.0287607
0.016563
0.00953677
0.0172161
0.0172199
0.0141228
0.0113187
0.0161441
0.0126499
0.0175586
0.0180695
0.00758067
0.0113117
0.00896486
0.0193114
0.00813577
0.00751589
0.00606068
0.0291825
0.0179029
0.00588068
0.0219012
0.00966191
0.0160212
0.0110655
0.00771247
0.0084925
0.0162126
0.0134177
0.0164958
0.0290146
0.00476621
0.00293084
0.00923239
0.0114299
0.00716322
0.0102414
0.0215951
0.0099547
0.00426031
0.0293845
0.0233913
0.0102147
0.00946447
0.0109716
0.0103392
0.0157583
0.0151049
0.0148811
0.00832778
0.014739
0.0136834
0.0127081
0.00894708
0.00285733
0.0118855
0.0067714
0.0214683
0.00795405
0.0105919
0.00506912
0.015929
0.00863981
0.00610388
0.0115432
0.0152864
0.0271644
0.0271739
0.0138653
0.0105637
0.0058775
0.0073481
0.0154738
0.00782587
0.00902111
0.0140248
0.0173059
0.0151399
0.0161517
0.00952591
0.00425087
0.01687
0.0288229
0.0178464
0.0272988
0.00852596
0.0238878
0.00739333
0.0038299
0.00813374
0.0154397
0.0151193
0.0109521
0.00824503
0.010057
0.0121774
0.0285888
0.00126282
0.0182896
0.00431477
0.00516008
0.00921937
0.00964413
0.0105681
0.00757982
0.00846257
0.00840525
0.0124423
0.0135504
0.00777357
0.0113432
0.0147583
0.0275073
0.00961838
0.0142514
0.0293609
0.00864837
0.0197212
0.00619752
0.00556542
0.00722131
0.00555725
0.00406746
0.0101756
0.0193002
0.00915778
0.00505115
0.0216226
0.00970028
0.0160987
0.0230064
0.0230792
0.0179206
0.0201449
0.00634112
0.00442065
0.0204567
0.0152035
0.0205224
0.0117707
0.0146219
0.00991219
0.0132407
0.0237824
0.00925682
0.0139527
0.011618
0.0190444
0.0162098
0.0168769
0.0169602
0.0164899
0.0198744
0.013947
0.015201
0.0187803
0.0191016
0.0100465
0.0194079
0.00595893
0.00674386
0.00703948
0.0067868
0.010766
0.00693762
0.0170953
0.0143975
0.0217478
0.0190619
0.0201394
0.00985765
0.00826405
0.00345798
0.00586065
0.0242609
0.00666789
0.0066201
0.0141307
0.0273146
0.0146497
0.0176085
0.0147754
0.014846
0.0147404
0.020616
0.0110992
0.0114866
0.0140773
0.0149042
0.0206489
0.0179659
0.0102694
0.0185775
0.0181314
0.0128708
0.0235473
0.00623043
0.0170526
0.021631
0.018753
0.0192973
0.00331878
0.00307009
0.0196428
0.0161824
0.0058674
0.00836423
0.0177207
0.020572
0.0193361
0.00856649
0.0221706
0.0065736
0.0229684
0.0187238
0.00336848
0.000973334
0.00758452
0.0191959
0.0220411
0.01071
0.0114744
0.0160284
0.00497524
0.0158337
0.0183096
0.00767069
0.00618104
0.0107427
0.0151661
0.0108973
0.0147037
0.00245562
0.0278298
0.0174559
0.0156485
0.0356069
0.00727789
0.0159397
0.0197147
0.00950044
0.0186273
0.00679103
0.0207046
0.00921886
0.00759635
0.02318
0.0238281
0.0237211
0.031431
0.0170065
0.0170388
0.020743
0.0198088
0.00379163
0.0190609
0.0212453
0.00171823
0.00616778
0.00620454
0.0179973
0.00533087
0.0215323
0.0028973
0.00850275
0.00979191
0.00908894
0.0206335
0.00657312
0.00594058
0.0131827
0.00530404
0.0150706
0.00352547
0.0127362
0.0207683
0.00880222
0.0347152
0.0278238
0.0123514
0.011386
0.0159909
0.00307399
0.024029
0.0186265
0.0183196
0.0176184
0.00738038
0.0268428
0.00551787
0.0144791
0.0196682
0.0176669
0.0198362
0.00639534
0.00740793
0.00768134
0.00810074
0.0209538
0.00606546
0.0217285
0.0288958
0.0295705
0.00917986
0.0201655
0.0226455
0.00516586
0.00253994
0.0220583
0.0046562
0.00662494
0.0204771
0.00565641
0.0180775
0.0178809
0.0268922
0.0100885
0.0206582
0.0100882
0.0191057
0.00587674
0.00774233
0.00657147
0.0132312
0.0134596
0.0197403
0.0217054
0.013371
0.0346087
0.0038066
0.00926918
0.00839328
0.00450735
0.0133692
0.0143151
0.0198534
0.0130029
0.0242789
0.0152327
0.00716497
0.00483623
0.00806933
0.0278693
0.0232896
0.0195143
0.0243151
0.0184594
0.00605453
0.00903424
0.00604712
0.00556169
0.00528052
0.00648739
0.0111817
0.000655275
0.0222135
0.00333639
0.0246414
0.00657713
0.0206116
0.00574392
0.0210727
0.0223126
0.0168917
0.00812027
0.032635
0.0219143
0.017217
0.0165181
0.00555548
0.0194314
0.00304397
0.00859975
0.00869601
0.00900115
0.0169782
0.00746269
0.00872902
0.0192773
0.0357728
0.0177494
0.0194836
0.0142893
0.0152601
0.0136913
0.011378
0.0109784
0.0268746
0.0130308
0.00118464
0.0194037
0.0353237
0.0126044
0.0263386
0.0152137
0.0180883
0.00796186
0.006568
0.0206438
0.0075232
0.0164839
0.0165126
0.0200979
0.00495348
0.00610483
0.0214643
0.00911354
0.0032463
0.00388154
0.0148736
0.00516792
0.00924662
0.00973603
0.022465
0.0219974
0.0237839
0.0224247
0.0195606
0.00954115
0.0200181
0.00903375
0.0213521
0.0239538
0.00743724
0.0196377
0.00828259
0.0161487
0.0230779
0.0152978
0.00413217
0.0188774
0.0525019
0.0041047
0.0123626
0.00839434
0.0183277
0.00236268
0.00640598
0.00761503
0.00635848
0.02003
0.00163014
0.0127683
0.0258858
0.0114314
0.0132669
0.00771057
0.0280926
0.00497874
0.0104826
0.0268956
0.0345758
0.0125754
0.0179921
0.0146627
0.00977631
0.00760192
0.00584973
0.0235767
0.00276234
0.0156111
0.0150022
0.0141864
0.00428036
0.00649722
0.0226767
0.0256184
0.00335341
0.00376734
0.00421627
0.00248476
0.0302404
0.00872725
0.00362986
0.0241613
0.0268585
0.0240148
0.00511438
0.0216412
0.0201391
0.022869
0.00260564
0.0268634
0.0269407
-0.000338526
0.0233208
0.0225251
0.0234516
0.0149556
0.0250382
0.00114742
0.00411829
0.022732
0.00342907
0.00415769
0.00700898
0.0170118
0.0114969
0.021022
0.00141619
0.00752748
0.0120673
0.0252942
0.00162906
0.0200167
0.00309863
0.0349454
0.0353669
0.0083775
0.0505175
0.00860887
0.00857911
0.0139469
0.0143017
0.00989959
0.0136075
0.0363532
0.0100103
0.0196764
0.000842714
0.00893106
0.0138253
0.00785838
0.0224475
0.00171681
0.00540146
0.0135499
0.004883
0.0123012
0.0125424
0.00676585
0.0283333
0.00492194
0.00351831
0.000608815
0.0157903
0.025798
0.00390626
0.000835404
0.00476724
0.00530221
0.00411128
0.0240157
2.14e-05
0.00166496
0.00115538
0.0215533
0.00272543
0.0226007
0.0231281
0.0240987
0.00712646
0.000143715
0.000439529
0.00366937
0.00109548
0.0148316
0.001294
0.0148127
0.0234872
0.00201618
0.00863589
0.0115878
0.0281674
0.0260399
0.0204486
0.00983564
0.00472461
0.0270651
0.0232981
0.00220816
0.00240872
0.0100934
0.0170098
0.00702846
0.00156925
0.000168173
0.00119233
0.0225138
0.0188304
0.00866683
0.051667
0.0185544
0.0144049
0.0100013
0.0155413
0.0199858
0.0198501
0.0138804
0.00887602
0.0111614
0.01155
0.0188722
0.00433111
0.0135299
0.00161943
0.014762
0.0342761
0.0238101
0.0220328
0.01636
0.0129668
0.0312091
0.0145714
0.0174503
0.00771387
0.0276812
0.0261192
0.00386239
0.0143239
0.0162503
0.000331957
0.0316931
0.0087469
0.00150047
0.0042711
0.00243938
0.028157
0.0257115
0.0262355
0.00397071
0.000192227
0.0222602
0.0150125
0.0235044
0.0242514
0.0242309
0.00157529
0.000153312
0.023064
0.0200371
0.0206727
0.0242974
0.00138407
0.00872183
0.0355638
0.00506034
0.00284052
0.0249562
0.0141464
0.00601176
0.0227462
0.0224021
0.0182075
0.010585
0.00700961
0.016573
0.00954052
0.000537884
0.000934859
0.00188099
0.00704537
0.00269938
0.0282033
0.0100955
0.000775927
0.000847252
0.0216034
0.00767054
0.000974095
0.0523582
0.00710251
0.00850429
0.0113964
0.0128768
0.0109372
0.0139565
0.0132184
0.00885474
0.010168
0.0146793
0.0093299
0.00872262
0.00990958
0.0130913
0.0248738
0.0141288
0.0133562
0.0218531
0.028238
0.0238059
0.00670035
0.0131368
0.00379836
0.0148603
0.029129
0.00112202
0.00272659
0.00243606
0.00758329
0.00877974
0.0216875
0.0207034
0.00621426
0.00256398
0.0169368
0.0280795
0.00075036
0.0231128
0.00917867
0.0212356
0.0195874
0.0205361
0.0265567
0.0247452
0.0318441
0.0225947
0.0189577
0.0236395
0.0212812
0.0219974
0.00794128
0.0276822
0.00781505
0.00207611
0.00522133
0.0214764
0.000164131
0.0178516
0.00423185
0.00590832
0.017875
0.0107649
0.0266635
0.00501008
0.0187312
0.00607987
0.0307299
0.00888912
0.000932801
0.0013205
0.0251204
0.0167931
0.00113028
0.00279525
0.00164829
0.00540823
0.000739928
0.000387608
0.021178
0.0204648
0.000318311
0.020558
0.0182153
0.021974
0.0120776
0.0119828
0.00967321
0.0154898
0.0161816
0.00758157
0.00122088
0.0141921
0.0194051
0.0143573
0.0266194
0.0237658
0.0142148
0.0230194
0.00883055
0.0356521
0.00418679
0.023337
0.0139593
0.000174738
0.0158765
0.00406234
0.00842838
0.00354674
0.00358982
0.0178964
0.0252718
0.00624585
0.0224121
0.00102547
0.00115353
0.00104121
0.0294473
0.0295905
0.0281499
0.0302979
0.0250144
0.0231042
0.00779686
0.00510406
0.00860626
0.00227463
0.0165047
0.00740895
0.0194676
0.0107693
0.00862156
0.00271294
-9.99111e-05
0.00631272
0.00337154
0.0262702
0.0114602
0.00620923
0.00594523
0.0110273
0.00113356
0.0184676
0.00602412
0.0231148
0.00446877
0.00304644
0.0152369
0.015184
0.0234677
0.0279393
0.0245298
0.0187246
0.0105754
0.0114613
0.0222238
0.000220355
0.00118909
0.0218682
0.0223338
-9.31187e-05
0.000543905
0.00320452
0.0220381
0.00587674
0.0134241
0.0284355
0.0276518
0.0141442
0.0331427
0.0106927
0.00927742
0.00954403
0.00619752
0.00385228
0.0231999
0.00393984
0.01421
0.0171958
0.0261934
0.00828806
0.00952436
0.00910495
0.0210714
0.0213351
0.0214317
0.0303715
0.00285322
0.0246237
0.0243011
0.0248054
0.0134866
0.000514101
0.0290737
0.0300079
0.0276658
0.0163422
0.0172647
0.0188791
0.0176079
0.0209226
0.0161245
0.000630036
0.02207
0.0102832
0.00708771
0.0224276
0.00170595
0.00102134
0.00392683
0.00366718
0.0268841
0.0108454
0.00401118
0.00557282
0.00976299
0.0199039
0.00936335
0.00861113
0.0179928
0.0126035
0.00040892
0.0231521
0.014687
0.0242843
0.0123005
0.00256137
0.0188766
0.018744
0.00093276
0.0108377
0.0101087
0.000798926
0.000953989
0.0229354
0.0263496
0.0106584
0.0137195
0.0016088
0.0244081
0.0303722
0.0254391
0.0175844
0.00823966
0.0236798
0.0179708
0.00955886
0.0132317
0.00738932
0.00748057
0.0119359
0.0225722
0.0041149
0.0147679
0.00936448
0.00845738
0.000297642
0.0251915
0.00993739
0.0260267
0.00721835
0.0213193
0.0246614
0.0122629
0.0123485
0.0256973
0.0208119
0.0233728
0.00909423
0.0105446
0.0206725
0.0197658
0.015671
0.016577
0.0240893
0.02467
0.0323885
0.0191001
0.0215448
0.00140621
0.00096959
0.0220679
0.0201524
0.0103622
0.0239008
0.00346309
0.0169037
0.0188042
0.0235552
0.00293155
0.0241773
0.0219943
0.0262067
0.0248774
0.026037
0.0123344
0.0223857
0.00996261
0.0171689
0.0167161
0.0158832
0.0270472
0.0250719
0.0242738
0.0205376
0.0111783
0.0145703
0.0160346
0.0246517
0.0158371
0.000102754
0.0256958
0.0282557
0.0133676
0.0113403
0.00473767
0.00347202
0.00942718
0.0249075
0.00783061
0.00840457
0.0306197
0.012552
0.00468863
0.0064593
0.000589729
0.0119666
0.0135664
0.0123294
0.0229199
0.000874325
0.0265629
0.00235444
0.0258386
0.0249726
0.0304689
0.0118075
0.0121029
0.0103589
0.0193619
0.0172004
0.0202112
0.0310194
0.0226125
0.0239729
0.0158336
0.0192849
0.0114707
0.0202381
0.017593
0.00385046
0.00344655
0.014236
0.00118863
0.0101453
0.026736
0.0281564
0.00518518
0.0259052
0.0169014
0.0272208
0.014918
0.015365
0.00210032
0.00114144
0.019836
0.0179094
0.00868206
0.0114178
0.0107625
0.016624
0.0115244
0.0224737
0.0241144
0.0308249
0.0237312
0.025635
0.0155661
0.0109709
0.0128274
0.00114746
0.00219149
0.00423049
0.0113017
0.0101809
0.0178646
0.0105224
0.0188032
0.0212805
0.0235623
0.0109116
0.00683105
0.0316007
0.0165838
0.0282084
0.0278467
0.0124649
0.0284648
0.00294322
0.0238875
0.00721732
0.0136269
0.00545494
0.0105554
0.0117599
0.0269985
0.0274119
0.000843873
0.0247087
0.0294013
0.0336787
0.0110111
0.0207646
0.0238413
0.0242329
0.00979486
0.0105569
0.0224568
0.0339408
0.0223688
0.00415547
0.0197971
0.0332119
0.019236
0.0190828
0.0184497
0.00916555
0.0278558
0.024045
0.0280889
0.00249726
0.0199852
0.0017027
0.0166375
0.0235823
0.0050532
0.0236941
0.00727553
0.0225686
0.0306905
0.0133125
0.000694113
0.0149914
0.0161304
0.000928144
0.00996365
0.0101566
0.0159082
0.0116212
0.0323219
0.025878
0.0102094
0.0100906
0.0250598
0.0141185
0.0238304
0.0313809
0.0242931
0.000903781
0.000860189
0.0256894
0.0223054
0.0156829
0.0173973
0.0199706
0.0165274
0.0171743
0.0279971
0.0246147
0.0295466
0.0221892
0.0194476
0.00280887
0.0284674
0.00376295
0.0108035
0.0265874
0.028455
0.0230039
0.0120647
0.010762
0.000602637
0.0248961
0.0154983
0.0263613
0.0145329
0.0278825
0.029561
0.0186935
0.0199601
0.0119635
0.00585236
0.0322354
0.0154245
0.0197935
0.0153614
0.0142132
0.0205315
0.0326337
0.0188953
0.0177997
0.0350939
0.00308801
0.0275687
0.0170512
0.0339429
0.0176621
0.0142228
0.027405
0.0280127
0.00508125
0.0105518
0.00589066
0.00720767
0.0242301
0.0128991
0.014006
0.00060957
0.0112274
0.0406614
0.0114989
0.0120548
0.0165817
0.0171117
0.0162012
0.0255307
0.0261499
0.018981
0.0101718
0.0259113
0.0145799
0.0268506
0.0240576
0.0242439
0.026742
0.0273134
0.0251202
0.00963786
0.000833043
0.0286401
0.00872132
0.0301872
0.0336195
0.0314971
0.0115246
0.028781
0.0193394
0.00310991
0.00255361
0.00424233
0.0257379
0.0266831
0.0264911
0.0245914
0.0293349
0.0120005
0.00999937
0.0269353
0.0299072
0.0142855
0.0265524
0.0285004
0.0189362
0.0110273
0.032383
0.0289131
0.0249197
0.0202362
0.0258159
0.0211165
0.0278332
0.00237337
0.0209472
0.0249071
0.02851
0.0204106
0.0270441
0.0136157
0.0341058
0.0213413
0.0028937
0.025854
0.00623246
0.000210919
0.00588893
0.0203831
0.0173502
0.0201378
0.0258044
0.0280576
0.0107085
0.0222451
0.0127323
0.0173397
0.0163769
0.0161673
0.00995971
0.0263869
0.0177604
0.0183816
0.0261759
0.0184232
0.00920607
0.00884502
0.0184867
0.0193984
0.0176636
0.0246124
0.0251573
0.00147643
0.017416
0.0261892
0.0250283
0.0181208
0.0185092
0.0152361
0.0188962
0.0329939
0.00164205
0.00910575
0.0274806
0.0042814
0.0121691
0.0131492
0.0125606
0.0306405
0.0324574
0.00408328
0.0331883
0.0295184
0.0211913
0.0211404
0.03
0.0218936
0.0277644
0.026051
0.00528101
0.0116428
0.0315717
0.000590241
0.000897192
0.0301456
0.0281174
0.00490916
0.0298262
0.0219409
0.0192965
0.0125358
0.028309
0.0276666
0.0100905
0.0261941
0.0243612
0.0214507
0.0191629
0.00121931
0.00208529
0.00144482
0.0220545
0.0253087
0.0163002
0.0288172
0.031881
0.0157612
0.0140171
0.00986018
0.00590682
0.0349073
0.000178763
0.0040326
0.0126385
0.00156356
0.000375362
0.000696301
0.0134729
0.0098851
0.00125721
0.0434467
0.0274317
0.0208134
0.0321204
0.017966
0.0344427
0.00565686
0.0111231
0.011618
0.0331599
0.0332155
0.0180146
0.00945253
0.0189241
0.0170852
0.0223068
0.0206992
0.0215721
0.0252101
0.00191567
0.0268791
0.0271624
0.027379
0.0266425
0.0223687
0.022059
0.0170022
0.0156414
0.0286283
0.0248491
0.00806982
0.00631515
0.0168794
0.0241251
0.0321811
0.00786821
0.00907092
0.00943725
0.0240322
0.0303504
0.0319496
0.0313332
0.00258781
0.00156608
0.0298391
0.000974786
0.0293329
0.0305191
0.00622187
0.00861491
0.00387007
0.0285504
0.0108844
0.0250802
0.0197131
0.019858
0.0308138
0.0313936
0.0141747
0.0344686
0.0341236
0.0232636
0.0213899
0.000159227
0.000864955
0.0237425
0.0215164
0.0260056
0.0337325
0.0512657
0.0343904
0.0270944
0.0343867
0.0272864
0.00343356
0.0251787
0.029017
0.00395872
0.0271928
0.00668563
0.000785128
0.0266713
0.000982716
0.012489
0.0135608
0.0134153
0.0123653
0.000606826
0.00266215
0.00857334
0.0326476
0.0304085
0.0221041
0.0131769
0.0166439
0.0105406
0.0132498
0.00978196
0.0128012
0.012543
0.0113339
0.0233644
0.0200162
0.0268277
0.0198886
0.0268687
0.00192224
0.0262985
0.00141409
0.0347287
0.0271352
0.0177566
0.0223605
0.0108948
0.0142521
0.00496719
0.00368802
0.00874088
0.00590964
0.0161066
0.0263056
0.0123454
0.0206476
0.0188342
0.00746823
0.0185548
0.0325462
0.00184162
0.00422386
0.00177857
0.0215041
0.0306084
0.0247803
0.00805406
0.00639693
0.0301296
0.00392544
0.0302688
0.0286899
0.0522097
0.0303917
0.0300503
0.0343271
0.0321501
0.0309379
0.0241267
0.00624343
0.024963
0.00594673
0.0255722
0.0265009
4.08161e-05
0.0323438
0.0151454
0.00303674
0.0254158
0.0319715
0.0250573
0.02873
0.0250577
0.0127154
0.0155307
0.0241101
0.0272213
0.0297556
0.0319261
0.00100042
0.00426431
0.0203807
0.0269579
0.0252952
0.022431
0.0235559
0.0017322
0.0224482
0.0121282
0.0127411
0.0123785
0.0108048
0.0143454
0.0172666
0.000738312
0.0274971
0.028635
0.0242372
0.0016126
0.0284703
0.0173445
0.0182594
0.0206313
0.0215156
0.0250985
0.019648
0.0442171
0.00508201
0.0178964
0.0277964
0.021471
0.0214917
0.00420026
0.0195858
0.030496
0.0343347
0.0251379
0.0115636
0.0296229
0.0106274
0.0197804
0.0315326
0.0332958
0.0198031
0.033624
0.0333019
0.0331145
0.0308628
0.0209167
0.0321182
0.03038
0.0266036
0.0119778
0.0239934
0.00948145
0.00267354
0.0246141
0.00780525
0.0312831
0.0318711
0.0310622
0.0289146
0.0183668
0.0291007
0.032862
0.010326
0.00726885
0.0142883
0.035242
0.0240374
0.0231381
0.00598465
0.00523553
0.0277384
0.00178081
0.0169019
0.0345302
0.029668
0.0253259
0.0261039
0.0157021
0.0138822
0.00370485
0.0268725
0.000423856
0.00983848
0.0300594
0.00137288
0.0037648
0.00581285
0.00770253
0.00453522
0.0212902
0.0238074
0.0278013
0.0182774
0.0112605
0.0402332
0.0112111
0.0129609
0.013797
0.0289596
0.0261627
0.0328258
0.0296026
0.00935141
0.0165369
0.0161109
0.0160793
0.0187501
0.0227183
0.0228173
0.0265097
0.0252695
0.0235395
0.0173499
0.0129083
0.013156
0.00326195
0.0249211
0.0296409
0.01064
0.0044046
0.0445423
0.0168361
0.0304141
0.0204789
0.030814
0.0369806
0.0239162
0.0107825
0.00918121
0.0197613
0.0327646
0.0313889
0.0081497
0.0348362
0.000379959
-0.000179755
0.0300569
0.0334989
0.0167998
0.0139042
0.0281194
0.00726391
0.0313936
0.0338208
0.0136542
0.0276303
0.0287524
0.0427631
0.00777281
0.0324037
0.0190535
0.0198416
0.0272619
0.0324787
0.00374582
0.0254665
0.0347911
0.0338935
0.0362341
0.00781546
0.0284392
0.0277009
0.00401887
0.0224751
0.032447
0.0232366
0.00333754
0.0101294
0.0214656
0.00704883
0.0235011
0.0100686
0.000886301
0.00114091
0.0143382
0.0041258
0.0308879
0.0180974
0.00799116
0.013861
0.0320673
0.0321187
0.0284336
0.0297397
0.0315699
0.0182516
0.00331689
0.0068849
0.0158098
0.0269324
0.0270174
0.0277461
0.028081
0.0192855
0.0188628
0.0170731
0.0233836
0.0207846
0.0209083
0.022544
0.0341214
0.0246194
0.0269983
0.0230589
0.0255692
0.0252871
0.0128442
0.0248107
0.0194577
0.0120401
0.0174771
0.0394232
0.0196812
0.0439113
0.0259314
0.00759552
0.0117571
0.0228102
0.0372746
0.0209951
0.0198157
0.00895165
0.0260627
0.000901807
0.00229284
0.00045906
0.0323823
0.03215
0.0326351
0.0168285
0.0352915
0.00632194
0.0334721
0.0339088
0.0325888
0.00346285
0.0372261
0.0328848
0.00256788
0.0348267
0.0198321
0.0207711
0.0195555
0.0271266
0.0294738
0.0241941
0.0254718
0.0268962
0.0167325
0.016146
0.00420249
0.0338969
0.0266857
0.0305154
0.0232706
0.0296669
0.0331952
0.0123813
0.031902
0.00331149
0.0238375
0.0113216
0.00133445
0.000233961
0.014398
0.0298388
0.0113361
0.0272448
0.0277007
0.0093807
0.0290902
0.0109326
0.0349383
0.0276981
0.0344462
0.0259724
0.0141639
0.0274356
0.0287009
0.0318726
0.00739725
0.028242
0.0282146
0.0295994
0.0318521
0.022754
0.0300195
0.0242194
0.00332135
0.0287605
0.00735824
0.0215345
0.0227018
0.0156123
0.0248616
0.0375976
0.0190384
0.0176148
0.018533
0.0129232
0.02412
0.00902415
0.0160756
0.02955
0.0140838
0.0278685
0.00841049
0.0298312
0.0248925
0.00781768
0.0211039
0.0310678
0.00825229
0.0244901
0.0161289
0.0022257
0.000306542
0.00227478
0.0312036
0.0205057
0.023375
0.0178458
0.0174927
0.0312997
0.0339579
0.0328407
0.024955
0.0323599
0.0264462
0.0342509
0.0180244
0.0348951
0.0346682
0.0346398
0.0335372
0.0326403
0.00395027
0.0274025
0.0326979
0.0250032
0.0225638
0.0363821
0.0327448
0.0165089
0.0340015
0.003474
0.0309109
0.0322784
0.0226027
0.0215548
0.0292557
0.0305798
0.0291441
0.00147739
0.0340705
0.0257168
0.00974745
0.000570412
0.0337195
0.0104184
0.00439405
0.00286751
0.00040792
0.0241667
0.007746
0.0406004
0.0123576
0.0290212
0.0155956
0.0118344
0.0169964
0.0283743
0.0121822
0.0335969
0.0279954
0.016501
0.0315093
0.0281371
0.0242007
0.0377735
0.0255295
0.0324285
0.020898
0.0349957
0.0207773
0.0206312
0.00439116
0.0262142
0.0248687
0.0263799
0.0303413
0.0222534
0.0351063
0.0262781
0.0255347
0.00361395
0.00792293
0.0352682
0.0186029
0.00694315
0.0187624
0.046585
0.011341
0.0364399
0.00851852
0.00165216
0.0140352
0.0145886
0.0129851
0.024141
0.00752672
0.0224962
0.0281262
0.0201472
0.00678662
0.00737399
0.0329878
0.00211759
0.024592
0.0228775
0.0152332
0.0308015
0.0367459
0.0160328
0.0307564
0.0287816
0.0255075
0.000524271
0.0248554
0.0277675
0.0328091
0.0335439
0.0379074
0.0351609
0.00442087
0.00294528
0.0355055
0.00430546
0.031849
0.0341038
0.0316262
0.0069035
0.0389338
0.0150292
0.028256
0.0339187
0.0306096
0.0315193
0.0302727
0.0288255
0.026384
0.0155372
0.0289398
0.0218811
0.00257466
0.0143706
0.0316475
0.0287888
0.0373404
0.0394079
0.00204899
0.0205931
0.0033879
0.00645126
0.0331544
0.00638941
0.00545964
0.0348241
0.00806338
0.0135807
0.0201128
0.0335496
0.000372586
0.032863
0.0282846
0.0156678
0.0323268
0.0343644
0.017834
0.0323877
0.0262553
0.0348349
0.0323091
0.0317851
0.0234736
0.0360302
0.0251101
0.00735669
0.00775103
0.0349871
0.0260674
0.0319928
0.0388676
0.0287718
0.0306932
0.0383199
0.00771709
0.0348261
0.0340072
0.0349495
0.0192145
0.0503509
0.0059371
0.00993848
0.0155499
0.0143467
0.0377631
0.0114458
0.0277458
0.0220237
0.0229963
0.021512
0.00789343
0.0142227
0.0092453
0.0328323
0.00158146
0.0349583
0.0356013
0.0361062
0.0170811
0.0299337
0.0447601
0.027804
0.00253395
0.0319681
0.0108548
0.0135155
0.0367925
0.0172913
0.0363354
0.0369427
0.0247181
0.0040262
0.0327648
0.0314966
0.0326425
0.0243259
0.0322601
0.032224
0.0311256
0.0274715
0.028289
0.0291112
0.029257
0.0240833
0.0224416
0.0022475
0.0335787
0.0203568
0.0217775
0.0237707
0.0121369
0.0102062
0.040478
0.0314689
0.0288172
0.0366792
0.0379326
0.0142931
0.00588756
0.00987913
0.0397002
0.0204957
0.010505
0.0339244
0.00892079
0.029565
0.0170329
0.00753551
0.00719967
0.027791
0.0162003
0.0304422
0.00126554
0.0268376
0.00285441
0.0290458
0.0166837
0.0242956
0.0249064
0.0236338
0.0305536
0.0296222
0.0333631
0.0103695
0.0457371
0.0441136
0.0387048
0.0266018
0.0263465
0.0205629
0.0278682
0.0311502
0.0327416
0.0374186
0.000144035
0.0146064
0.0161494
0.0494587
0.0335025
0.00418403
0.0344745
0.00430612
0.019717
0.0226105
0.0138733
0.0101326
0.038904
0.0314447
0.0107826
0.0212544
0.0401571
0.0137427
0.00852393
0.000729155
0.0196363
0.00294795
0.0361445
0.0085781
0.0383583
0.045645
0.0117214
0.0319633
0.000439322
0.000466179
0.0111673
0.0370381
0.0369991
0.0352675
0.031294
0.00237911
0.0241475
0.05176
0.0231745
0.0311233
0.0296815
0.0308367
0.0312738
0.0247819
0.034292
0.0303375
0.0107268
0.0026642
0.00299617
0.00300365
0.0291142
0.0325467
0.0182836
0.0324935
0.00774157
0.00801628
0.00910765
0.0280511
0.0379312
0.037435
0.0393059
0.0221922
0.0111243
0.0344646
0.0105286
0.0278746
0.0302453
0.0313587
0.0171291
0.0344153
0.0156333
0.0285212
0.0296225
0.0283374
0.0150291
0.0212815
0.0526932
0.0133022
0.00341948
0.0270282
0.0231352
0.0288267
0.0186911
0.0217607
0.0234516
0.0250248
0.0207119
0.0301672
0.0438032
0.0224806
0.0338834
0.0156656
0.0277721
0.0211978
0.0267961
0.0291047
0.027523
0.037127
0.00533687
0.0364431
0.0241092
0.00117225
0.0158639
0.0382239
0.034204
0.0202968
0.00484132
0.0309149
0.0112463
0.0393322
0.0112915
0.0319995
0.030267
0.035684
0.0270216
0.0328857
0.0224616
0.00380555
0.029446
0.00342575
0.0357841
0.000363436
0.00121122
0.00756279
0.00277354
0.0245029
0.00130989
0.0396629
0.0399374
0.0335121
0.0344891
0.0375803
0.0376231
0.0363708
0.0368746
0.0103598
0.0401182
0.036228
0.00805494
0.0343273
0.0422582
0.0237286
0.000157946
0.0330575
0.0359615
0.0309123
0.0288111
0.0324919
0.0386861
0.00371734
0.0340572
0.00169575
0.000938153
0.000139346
0.0296566
0.0210094
0.00919599
0.0172693
0.0337379
0.0496645
0.0236518
0.030817
0.0316367
0.038472
0.00311264
0.0522589
0.0354616
0.0103651
0.0252192
0.0122918
0.0264814
0.0326289
0.0125135
0.0349982
0.027249
0.0148484
0.0232572
0.0142822
0.0287518
0.0231456
0.0368481
0.0378516
0.0108906
0.0197385
0.023877
0.0233271
0.031612
0.0446113
0.0161971
0.0315084
0.0240707
0.0159584
0.0204659
0.0402285
0.0226016
0.0208091
-0.0001124
0.0427154
0.0418966
0.00138204
0.0344795
0.00267826
0.0259632
0.0395028
0.00594471
0.0366647
0.0366274
0.0389442
0.0373678
0.0300193
0.0308494
0.0337029
0.00924556
0.0324572
0.011341
0.00305882
0.0172716
0.00469647
0.0307842
0.0333926
0.0143121
0.0143117
0.0174441
0.0390777
0.00445637
0.0333539
0.0199484
0.0385733
0.0273266
0.0377398
0.036365
0.0406802
0.0361316
0.00170072
0.0240433
0.03597
0.0251005
0.0327081
0.0315519
0.00670833
0.0379252
0.0287617
0.0397547
0.000124984
0.0361778
0.00919562
0.0195298
0.00264213
0.0308058
0.029878
0.0467566
0.0285406
0.00960143
0.0353865
0.0337831
0.00105952
0.000730576
0.0461059
0.031589
0.0110719
0.0512168
0.0126848
0.0199631
0.0344789
0.000475844
0.0040216
0.0522027
0.0101129
0.0151165
0.0149453
0.0245941
0.0337092
0.0195072
0.0142249
0.034469
0.0387765
0.0358834
0.0334701
0.0197274
0.033747
0.0237115
0.0145814
0.0297408
0.02931
0.0237928
0.0269142
0.0195691
0.0183858
0.0340519
0.0350118
0.0354868
0.0295703
0.0419857
0.0285377
0.0296148
0.0278459
0.029222
0.0353197
0.0254223
0.00572484
0.0384455
0.0372437
0.0347131
0.0059695
0.0331195
0.0288075
0.0322755
0.0293794
0.039453
0.0345032
0.00457822
0.0140113
0.0390201
0.0393591
0.0425058
0.0038392
0.0190359
0.0133868
0.0363398
0.0351546
0.0376891
0.0421514
0.0425408
0.0365425
0.041749
0.0360299
0.0354643
0.0228138
0.0376388
0.0318914
0.0417692
0.0503959
0.0315938
0.029537
0.0521399
0.0261056
0.0186444
0.0389044
0.0214605
0.041714
0.00121521
0.0324364
0.0200815
0.0481131
0.0312714
0.0297869
0.0397431
0.0191655
0.00130174
0.0176286
0.0484393
0.000382637
-0.000139982
0.0319793
0.0125438
0.0134998
0.0132979
0.00956461
0.00813039
0.00907172
0.00738073
0.0143279
0.0371074
0.0415819
0.00429027
0.0374425
0.0332129
0.00338522
0.0313992
0.0383942
0.0389155
0.0219844
0.0270165
0.0207148
0.0380797
0.0215184
0.0332422
0.0295591
0.0219545
0.0305358
0.0373235
0.0211737
0.0207751
0.0302859
0.0297515
0.0252056
0.0406134
0.00481995
0.0427493
0.0259097
0.0222652
0.0244672
0.0384457
0.016852
0.0130126
0.0386026
0.0342145
0.0351482
0.0375901
0.0479463
0.0434451
0.0388337
0.0350386
0.0382811
0.0403114
0.0390166
0.0242227
0.0409897
0.0392169
0.0114361
0.0350725
0.0259981
0.0409094
0.0339432
0.0402887
0.0202974
0.0362439
0.0256113
0.0297963
0.0376928
0.0407776
0.0111081
0.0332891
0.0264645
0.0256065
0.0270217
0.0417504
0.0341132
0.0360233
0.000761492
0.0305909
0.000130489
0.0358792
0.00308622
0.0491424
0.0124584
0.0254358
0.0100535
0.00970017
0.00873204
0.0329975
0.0359106
0.0246954
0.0252972
0.0329457
0.0225081
0.0377265
0.0387053
0.0281251
0.0424802
0.0368234
0.0427339
0.0370109
0.0345566
0.039816
0.0225004
0.0291116
0.0301118
0.023934
0.00545854
0.0401613
0.0394719
0.0467331
0.01225
0.0368769
0.0328337
0.0130898
0.0298647
0.0365184
0.0318145
0.0415992
0.0395042
0.0377066
0.0410878
0.0305518
0.0392641
0.0409467
0.039617
0.0388808
0.0324487
0.0363419
0.0287221
0.0421021
0.0352222
0.0522732
0.0515166
0.0339393
0.0416135
0.0333863
0.0327998
0.0319364
0.0272812
0.0385352
0.0341593
0.0368756
0.0385759
0.0421831
0.0370908
0.0315949
0.0352161
0.0352672
0.0411539
0.0340804
0.0364053
0.0387662
0.040242
0.00290848
0.037163
0.00398393
0.00457708
0.00502932
0.00253023
0.0366189
0.00788728
0.000867986
0.0268978
0.0363328
0.0496445
0.0505152
0.0419856
0.0335583
0.0411095
0.0223981
0.0462395
0.029723
0.0326242
0.0355818
0.0385009
0.0252161
0.0380052
0.0396367
0.0287934
0.0308332
0.0396127
0.0311254
0.0456977
0.0398293
0.0441946
0.0136933
0.00248686
0.0368254
0.0364765
0.0358603
0.0443791
0.0376202
0.0452263
0.0377032
0.0406013
0.0238489
0.0422251
0.0304753
0.0407427
0.032304
0.0412496
0.0423923
0.0258251
0.0374413
0.0278096
0.0388427
0.0276744
0.0391969
0.0340682
0.0327702
0.0392022
0.0378477
0.034107
0.0377783
0.0259476
0.0452858
0.0353318
0.0375384
0.0387564
0.0403821
0.0110624
0.0273194
0.0408916
0.00405932
0.00539569
0.0417521
0.0366528
0.000643446
0.0498225
0.0331305
0.0459354
0.0360828
0.0314404
0.0314733
0.0433977
0.0363221
0.0311427
0.0327851
0.0353449
0.0362761
0.0359302
0.0467079
0.0398953
0.0401055
0.026969
0.0270598
0.0422587
0.0341218
0.0399936
0.0400049
0.0451499
0.0496251
0.0475555
0.0316978
0.0422465
0.0333426
0.0392398
0.0383359
0.0328468
0.0150616
0.0416141
0.0501631
0.0407736
0.031322
0.0360892
0.0313294
0.0516378
0.0289147
0.03711
0.0314259
0.0329044
0.0393381
0.0415993
0.0331782
0.0397965
0.0390207
0.0353953
0.0404438
0.0392516
0.0392237
0.0351091
0.0422229
0.042471
0.0417198
0.0357889
0.0411445
0.0412669
0.0408508
0.0130514
0.0418257
0.0296843
0.0306753
0.0376763
0.0450838
0.0299773
0.036449
0.0422905
0.0357477
0.0365784
0.0316066
0.0473818
0.0352417
0.0414458
0.0300412
0.0301145
0.036233
0.0419656
0.0298556
0.0356558
0.0353296
0.0412837
0.0419794
0.0357029
0.036075
0.044996
0.0448972
0.0369337
0.0443495
0.0434675
0.039106
0.0445547
0.0182604
0.0443622
0.0419529
0.0412394
0.0416869
0.0398808
0.0416658
0.0460595
0.0375953
0.0414841
0.0330897
0.0379149
0.0341042
0.0391617
0.0391737
0.0474811
0.0399236
0.0471694
0.0473122
0.0339395
0.0387614
0.0406305
0.0272747
0.0350023
0.0363345
0.0363616
0.0462358
0.0402445
0.0314587
0.0358777
0.0293563
0.0428629
0.0298359
0.0312741
0.0357841
0.0365611
0.0370764
0.0414908
0.0409311
0.0415347
0.0345145
0.0304258
0.0325937
0.0407366
0.0424495
0.0279373
0.0417873