/*--------------------------------*- C++ -*----------------------------------*\
| =========                 |                                                 |
| \\      /  F ield         | OpenFOAM: The Open Source CFD Toolbox           |
|  \\    /   O peration     | Version:  2212                                  |
|   \\  /    A nd           | Website:  www.openfoam.com                      |
|    \\/     M anipulation  |                                                 |
\*---------------------------------------------------------------------------*/
FoamFile
{
    version     2.0;
    format      ascii;
    arch        "LSB;label=32;scalar=64";
    class       surfaceScalarField;
    location    "0.02";
    object      phi;
}
// * * * * * * * * * * * * * * * * * * * * * * * * * * * * * * * * * * * * * //

dimensions      [0 3 -1 0 0 0 0];

oriented        oriented;

internalField   nonuniform List<scalar> 
68568
(
-1.43185e-07
1.48125e-07
-2.80423e-08
2.31026e-08
1.38495e-07
-7.06404e-08
-7.38083e-08
5.9539e-09
1.66987e-07
-1.27819e-07
-5.69644e-08
1.77969e-08
-4.32534e-09
2.20397e-09
-1.59614e-07
1.61735e-07
-1.30073e-09
1.33849e-07
9.97473e-10
-1.33546e-07
1.32586e-07
-4.75653e-10
-1.2148e-07
-1.06308e-08
7.90778e-08
-8.43942e-08
1.23495e-07
-1.18178e-07
-3.73333e-08
-2.54718e-08
1.41883e-07
1.24109e-07
-1.47971e-08
-1.04649e-07
-4.66236e-09
1.42437e-07
5.05545e-08
-5.44971e-08
9.54221e-08
1.305e-07
-5.89349e-08
-6.12045e-08
-1.91075e-07
1.81639e-07
-1.33715e-07
6.54059e-08
-5.49957e-09
1.73248e-07
-1.78772e-07
1.32567e-08
-7.73299e-09
-6.72292e-08
-4.92265e-08
1.15344e-07
1.11215e-09
1.21222e-07
8.37438e-08
-1.24362e-07
-8.06038e-08
-4.84536e-08
-7.4744e-08
1.09252e-07
1.3946e-08
1.07655e-07
-1.12484e-07
-4.36251e-08
1.06038e-07
-4.40397e-09
-5.78816e-10
-1.01055e-07
8.17776e-08
-1.4715e-07
7.37957e-08
-8.42338e-09
1.08292e-07
-4.91516e-10
-1.07766e-07
-3.4407e-11
-1.68401e-08
8.64272e-09
1.33156e-07
-1.24959e-07
-4.36961e-08
1.80449e-07
-2.60757e-08
-1.10678e-07
-6.0735e-10
-3.23077e-10
-1.29895e-07
1.30825e-07
-7.19073e-08
-4.64362e-08
1.11771e-07
6.57256e-09
-9.30527e-08
-3.79513e-08
-1.21813e-08
-6.21682e-08
1.3571e-07
8.23557e-09
7.4121e-08
4.42046e-08
-2.82397e-08
-9.00858e-08
-6.48593e-08
-9.58965e-08
1.23423e-07
4.63648e-08
-1.14704e-07
3.47998e-09
1.46057e-07
-7.82526e-08
-1.3756e-07
6.97557e-08
-1.28301e-08
2.46464e-09
1.12697e-07
-1.02332e-07
1.49709e-07
-3.13686e-08
-1.06439e-08
-1.07697e-07
1.14964e-07
-8.84148e-08
-5.62626e-08
2.97134e-08
-2.29428e-10
1.05385e-07
-1.05158e-07
2.82778e-12
1.16315e-07
8.19615e-08
-8.21885e-08
6.52393e-10
-4.25474e-10
4.09357e-08
-1.52239e-07
8.87129e-08
2.25904e-08
-1.55524e-07
1.3518e-07
6.12797e-08
-7.14591e-08
-1.54575e-10
-2.93633e-10
-7.91799e-10
1.10043e-07
-9.59722e-10
1.08375e-07
-1.08158e-07
-4.10284e-10
1.92786e-10
-2.55994e-08
-1.51811e-07
1.14347e-07
1.8516e-07
-1.41124e-07
-1.58384e-07
-5.88641e-08
-9.90324e-08
2.79119e-07
-1.39687e-07
1.57038e-07
-1.31958e-07
1.14607e-07
-1.19584e-07
6.36894e-08
-5.31025e-09
1.1e-07
-1.07372e-07
-3.40958e-09
7.81497e-10
9.41697e-08
2.42383e-08
1.12146e-08
-1.29623e-07
2.04493e-09
-1.46577e-07
1.41993e-07
3.29209e-08
-2.83375e-08
-7.94947e-09
-9.04014e-08
9.79914e-08
3.59447e-10
-1.75924e-07
1.3193e-07
1.75947e-07
-1.30417e-07
-3.65413e-10
-2.85048e-10
1.83909e-09
-1.53223e-09
1.04141e-07
-1.04448e-07
3.7931e-08
-1.10515e-07
-2.15965e-09
8.87322e-08
-9.48476e-08
3.58456e-09
2.53086e-09
-8.2185e-08
1.36691e-07
-6.03756e-08
5.8694e-09
1.41377e-07
-7.33026e-08
-7.14575e-08
3.38342e-09
8.78217e-08
-8.79939e-08
-4.35168e-10
-1.07222e-07
-1.76305e-09
1.11189e-07
7.25037e-08
6.84489e-08
-7.37689e-09
-1.33576e-07
-5.683e-09
1.30457e-07
-1.25487e-07
7.13141e-10
8.55109e-08
-1.44654e-07
-3.02488e-09
1.04011e-07
-1.73984e-08
3.23449e-08
-1.18957e-07
1.43492e-07
-2.22991e-08
-1.62599e-07
4.14068e-08
3.91714e-08
7.83255e-08
-1.14594e-08
6.20234e-08
-1.22849e-07
6.74941e-08
-6.66819e-09
1.29814e-07
-1.31013e-07
-1.01363e-10
-9.63544e-08
1.37366e-07
-3.04334e-08
-1.05781e-08
-1.97099e-07
-1.45089e-07
2.76896e-07
6.52913e-08
-1.10614e-07
2.2081e-09
1.13568e-07
-6.42979e-09
1.30295e-07
-1.38197e-07
-5.16213e-08
5.95227e-08
-1.20888e-07
6.24577e-08
6.43414e-08
-5.91062e-09
-7.19174e-08
-4.84311e-08
-4.68061e-08
-9.75228e-08
9.78221e-08
-2.86634e-10
-1.26689e-11
3.83967e-08
1.67243e-07
-6.4263e-08
1.01052e-07
-6.04513e-08
4.8131e-08
-7.04718e-08
-7.74499e-08
1.44001e-07
3.92092e-09
-5.31862e-10
-2.10274e-07
-6.07459e-10
2.11413e-07
7.16214e-08
-4.47798e-08
8.15337e-08
-9.15361e-11
6.27063e-08
-6.26208e-08
6.07644e-12
-1.82554e-08
1.34586e-07
6.40903e-08
-1.80421e-07
1.63787e-07
-8.27334e-08
-8.59714e-08
4.91816e-09
1.15383e-07
3.6324e-08
-3.48165e-08
-1.16891e-07
1.56446e-07
-7.38311e-08
7.32353e-08
-1.5585e-07
3.37209e-08
1.25998e-08
1.10125e-07
-8.53244e-08
8.12895e-08
-1.55579e-07
1.20256e-07
7.50315e-10
-1.17111e-07
-3.89544e-09
-3.79551e-08
-2.68701e-07
1.87073e-07
8.09399e-08
8.25714e-08
-6.47305e-09
-5.42723e-10
4.71359e-10
8.99791e-08
-8.99078e-08
-1.19098e-07
1.19058e-07
-2.82492e-10
-5.78546e-08
1.15628e-07
5.9162e-09
6.94766e-09
8.37096e-08
-4.67651e-09
-8.59808e-08
-1.23202e-07
5.44056e-08
8.60189e-08
-1.72221e-08
-4.23925e-08
-7.76991e-08
-9.80299e-09
-7.96368e-08
1.55209e-07
5.36758e-09
6.96839e-08
7.27357e-08
-1.3755e-07
-4.86972e-09
1.09938e-07
6.85109e-10
-1.10494e-07
-1.28999e-10
-6.00163e-09
-1.56087e-07
-1.31166e-08
1.6384e-07
-3.89608e-09
1.12491e-07
-1.15057e-07
5.54653e-08
-7.3112e-09
9.41433e-08
-4.59158e-10
-9.26035e-08
-1.0806e-09
1.17603e-07
-7.99981e-10
1.30576e-07
-4.42247e-08
7.74356e-08
7.07224e-11
-9.99786e-08
-3.32586e-09
1.07618e-07
-4.31369e-09
8.78855e-08
-4.83164e-08
-8.70494e-08
1.39342e-10
8.68712e-08
3.8837e-11
-3.37465e-08
-1.31073e-07
1.40099e-07
2.47203e-08
-1.83636e-09
1.25645e-07
-1.23448e-07
-3.60233e-10
-8.4641e-08
-3.52516e-08
1.20515e-07
-6.22589e-10
-4.16568e-09
2.09631e-09
-1.05153e-07
-1.5758e-07
8.4642e-08
7.83186e-08
-5.3809e-09
2.06656e-10
-9.74223e-08
9.74135e-08
-1.97911e-10
1.32306e-07
-6.05069e-10
-9.55808e-11
-1.06136e-07
2.60828e-10
1.05971e-07
-7.71293e-08
1.97525e-08
6.68928e-08
1.26492e-07
-6.92727e-08
4.80414e-09
1.34839e-07
-1.33975e-07
-1.3694e-08
-1.19778e-07
1.35001e-07
1.83741e-08
-3.3597e-08
6.94422e-08
-7.07222e-08
1.44772e-07
3.81034e-09
1.08235e-07
1.45427e-07
-1.25924e-09
-1.46004e-07
6.55616e-08
-1.37026e-07
-4.09603e-09
7.55607e-08
1.37913e-07
-7.6106e-08
7.87743e-09
9.63538e-08
-9.43065e-08
-1.08317e-07
5.56066e-08
-2.94783e-08
-1.44515e-07
1.37859e-07
-1.83617e-08
2.50177e-08
1.57489e-07
4.35896e-08
-4.52394e-08
-1.55371e-07
-7.11933e-08
-2.88048e-08
7.76257e-08
2.23724e-08
-1.25662e-07
6.60069e-08
-5.2234e-08
1.11889e-07
-1.45736e-07
-3.18128e-09
1.51805e-07
-2.88816e-09
-1.0428e-07
1.97889e-08
-6.12447e-08
-1.57417e-07
-6.16005e-09
9.13749e-08
-1.39731e-09
-1.08391e-07
-4.57452e-10
-1.0465e-07
1.34787e-07
-7.11616e-08
5.87435e-09
1.5014e-07
-8.00354e-08
-7.66001e-08
6.49578e-09
-1.28847e-07
1.73192e-07
-4.4535e-08
1.90505e-10
7.95155e-08
-7.96635e-08
-1.28699e-07
9.15093e-08
7.1676e-09
-2.32312e-09
6.2817e-10
1.01028e-07
-1.00544e-07
-1.11235e-09
1.82261e-07
-4.6234e-08
-9.9703e-08
-1.04336e-07
1.07593e-07
1.10892e-07
-1.06201e-07
-2.5939e-09
-1.65332e-09
9.83752e-08
-9.69866e-08
2.64728e-10
-9.06677e-09
-1.30037e-07
1.26877e-07
1.22262e-08
-1.34098e-07
1.50577e-07
-9.648e-09
-6.83158e-09
1.16917e-07
-2.90155e-08
-8.8933e-08
9.98628e-09
-7.51878e-09
-9.35223e-08
9.30916e-08
3.14799e-08
-6.27777e-09
-1.29482e-07
-1.95519e-08
1.06564e-07
-8.08473e-08
-6.16473e-09
1.53112e-07
-6.31232e-09
-1.30439e-08
-1.33756e-07
1.49975e-07
4.59616e-11
-2.35771e-09
-1.47664e-07
1.31294e-07
-1.42256e-09
-5.77117e-11
1.2478e-07
-1.25003e-07
1.85179e-10
3.7625e-11
-1.20125e-07
-7.89015e-08
1.21327e-07
2.02987e-08
-1.63486e-07
-1.06967e-07
1.06895e-07
-2.40887e-11
9.64311e-11
-1.2907e-07
-6.88944e-09
1.86183e-09
-9.84198e-08
-8.55906e-11
9.8513e-08
-7.60714e-12
-1.1789e-07
-4.80299e-10
1.18414e-07
-4.46134e-11
-1.15846e-08
1.21324e-07
-1.00145e-07
-7.89849e-09
-9.89388e-08
9.87321e-08
1.11088e-10
2.63511e-08
2.7381e-08
7.92744e-08
-1.32395e-07
6.99142e-08
-7.01145e-08
1.38061e-07
-1.37861e-07
9.94767e-08
-7.84044e-08
-2.33518e-08
2.27944e-09
7.74036e-08
2.36154e-08
-1.03414e-07
4.67151e-09
5.50778e-09
-1.04431e-07
1.18479e-07
-1.9556e-08
-4.68467e-10
9.86973e-08
-9.78716e-08
-3.57265e-10
-1.35445e-07
-8.32901e-09
1.57954e-07
1.97556e-07
-8.44034e-08
1.78407e-07
1.47945e-07
-7.40263e-08
5.59706e-09
-3.92949e-08
2.46231e-08
-1.03907e-07
1.2061e-07
8.47047e-08
8.98664e-08
-7.32811e-09
8.95053e-08
6.98987e-08
-1.53893e-07
-5.51056e-09
7.88297e-08
7.62992e-08
-7.1842e-09
1.17117e-07
-7.21809e-08
7.98442e-08
7.11795e-08
-1.20586e-07
5.71267e-08
-7.71974e-09
5.2888e-10
-9.52374e-08
-1.18796e-09
1.71982e-10
-2.96031e-07
1.76308e-07
1.54182e-07
-1.07976e-07
2.36265e-08
8.95923e-09
4.14571e-08
4.33109e-08
-9.37272e-08
-1.22793e-07
1.78279e-09
1.221e-07
-1.08994e-09
-9.46571e-08
9.42722e-08
-4.19306e-12
3.89091e-10
1.22413e-07
-1.58787e-07
1.87834e-07
-1.5146e-07
1.46161e-08
-1.43244e-09
1.20666e-07
-3.03402e-08
7.1338e-09
-7.03321e-08
9.35385e-08
-6.93211e-08
1.33996e-07
5.2393e-09
-1.40058e-07
7.24004e-08
7.2872e-08
-5.21485e-09
-1.05468e-07
-2.40126e-08
1.09929e-07
4.1523e-10
7.3262e-08
-5.54992e-11
-7.36218e-08
1.39607e-07
-6.40066e-08
7.41086e-08
1.21997e-09
-1.12066e-10
-5.21145e-12
-9.28408e-08
1.69605e-07
-4.53633e-08
-2.79155e-08
-9.63265e-08
1.39915e-08
2.83385e-08
-1.24629e-07
8.52638e-08
-3.28123e-08
2.16558e-08
1.5896e-07
3.91434e-08
1.591e-07
-1.78864e-07
-6.05507e-08
-6.47339e-08
5.50668e-09
1.25856e-07
6.04345e-09
-6.86312e-08
-6.90637e-08
1.30654e-07
7.04066e-09
-4.35881e-09
9.78888e-08
-1.32778e-07
-1.77831e-10
6.72416e-08
-6.78033e-09
-6.58013e-10
-1.28682e-07
6.61124e-11
1.29274e-07
-1.27991e-07
1.54598e-07
-3.77618e-08
1.0566e-08
-8.94744e-09
4.84848e-08
1.0589e-07
-1.22563e-07
7.13409e-08
-2.54846e-08
7.6707e-08
-1.34262e-07
9.04984e-08
-1.23524e-07
1.21934e-07
3.30768e-10
8.84505e-08
2.11459e-08
-1.58708e-07
-2.06573e-08
1.58219e-07
-1.74572e-07
9.57422e-08
-1.31444e-07
-1.60775e-09
1.57908e-07
2.34043e-08
6.40225e-08
-9.1836e-08
4.40925e-09
1.07422e-07
-7.50004e-08
-3.06537e-10
-9.58075e-08
2.04686e-10
-2.25016e-07
2.24983e-07
-5.75009e-10
-9.14485e-08
-9.52349e-08
-8.95368e-08
9.71112e-08
-1.06513e-07
8.07911e-08
-1.02419e-07
1.62812e-08
5.34667e-09
1.20346e-07
-8.6819e-08
-8.9037e-09
-1.48022e-07
-1.10854e-08
2.02919e-08
1.38815e-07
-2.95471e-07
-3.87592e-10
-1.26105e-07
1.25426e-07
1.35712e-10
-8.95867e-08
-4.82187e-11
9.80798e-11
-1.35271e-08
-9.0242e-08
1.44763e-07
-4.09936e-08
1.03172e-07
5.10173e-09
4.17017e-08
-1.29628e-07
1.28657e-07
-3.43374e-09
-5.99741e-08
1.40972e-07
-9.44374e-08
2.82374e-10
-1.2272e-07
-3.55744e-10
8.84604e-08
-9.01354e-08
1.42815e-10
-6.38374e-08
-6.3866e-08
1.19996e-07
7.70752e-09
1.08531e-07
1.70498e-08
-9.32416e-08
-3.23389e-08
3.78152e-09
1.46902e-07
-1.51708e-07
-1.45719e-09
-1.06482e-07
-1.85153e-08
1.22215e-07
-2.62315e-11
-1.22318e-07
1.29535e-10
2.30307e-08
7.20446e-09
5.226e-08
-8.24952e-08
-1.36723e-07
7.31541e-08
-5.06232e-09
-1.10068e-07
1.05156e-07
-7.1427e-09
-2.92707e-10
1.17081e-07
3.28552e-10
-7.75339e-08
-6.95425e-08
1.40206e-07
6.8707e-09
1.24993e-07
-6.67981e-08
-6.45191e-08
6.32405e-09
1.24289e-07
-2.0274e-09
-4.67497e-11
-9.76123e-08
-8.75569e-08
9.55825e-08
-1.20085e-07
-4.47644e-08
-9.23633e-09
1.74393e-07
-1.01616e-07
2.82452e-08
-1.23728e-07
6.79098e-11
-1.01055e-07
4.90051e-10
-5.91296e-10
1.29623e-07
2.45733e-08
-2.63175e-08
-1.27879e-07
4.43439e-08
-1.24201e-07
-1.07495e-10
-4.2815e-11
3.71372e-08
-1.86012e-07
-7.54623e-08
1.26785e-07
8.60433e-08
1.96965e-08
-1.40121e-07
-1.75237e-08
1.37949e-07
-7.87738e-08
6.42075e-09
1.27896e-07
-1.2719e-07
8.85214e-08
4.00111e-08
-1.34269e-09
-4.4188e-10
1.16371e-10
-9.31914e-08
6.40749e-08
-4.62998e-09
-1.36733e-09
-2.61081e-09
-2.36485e-09
9.13086e-08
-8.63329e-08
7.89686e-08
1.01347e-07
-9.94205e-08
-8.08946e-08
1.42655e-07
-1.59293e-07
2.13702e-10
2.92732e-10
1.50994e-07
-9.66799e-09
-1.32683e-07
-4.07078e-08
1.46786e-07
1.08391e-08
1.14196e-07
-1.07786e-07
-5.43983e-09
-9.70071e-10
-8.13676e-10
1.09597e-07
1.58417e-07
-5.5027e-08
-2.33771e-09
8.98844e-08
-7.98022e-08
-5.16903e-10
3.92852e-10
1.34963e-07
-1.44659e-07
3.9155e-09
1.31866e-07
7.42076e-09
-1.17491e-08
1.20794e-07
-1.51154e-07
3.2151e-08
1.01812e-09
8.67395e-08
-8.51467e-10
-8.69062e-08
-1.13768e-07
1.13868e-07
-1.05754e-10
1.08894e-09
-3.14044e-10
-1.08207e-07
1.07416e-07
-2.34793e-11
-1.06414e-07
-2.32326e-10
1.64109e-10
6.90134e-08
-9.85639e-08
-7.38805e-08
1.03431e-07
4.96069e-11
-1.11836e-07
1.11944e-07
-1.57615e-10
-4.78157e-08
1.20031e-07
-4.36046e-08
-1.86506e-08
-1.35802e-07
7.08619e-08
-6.25295e-09
2.7097e-08
-1.53432e-08
1.02443e-07
-1.31076e-07
6.29186e-08
6.09414e-08
7.21623e-09
-1.52235e-07
-1.0614e-07
1.074e-07
-1.21469e-07
-4.14523e-08
5.55215e-08
1.251e-07
-1.25784e-07
2.60076e-10
4.23292e-10
-1.55469e-09
-1.76439e-07
5.5971e-11
1.77937e-07
-1.01016e-07
1.98041e-11
1.0097e-07
-1.2277e-07
8.60132e-11
3.66147e-10
6.97533e-08
-1.23551e-07
-6.75283e-09
1.44294e-10
-1.24929e-07
-2.18472e-10
7.38868e-08
7.36582e-08
-5.55157e-09
-7.11976e-08
-7.15806e-08
1.36471e-07
6.30758e-09
-1.12961e-07
9.80797e-10
1.11895e-07
8.52833e-11
1.19567e-07
2.95163e-08
1.06939e-07
-1.54126e-08
1.04299e-07
-5.4013e-09
-9.58099e-08
4.51394e-08
4.34674e-08
7.20305e-09
7.28396e-08
1.23506e-07
-8.04638e-08
-1.12291e-07
7.05907e-08
-6.86195e-08
-1.26302e-07
-1.01467e-07
1.11342e-07
1.16427e-07
1.05053e-07
-1.10493e-10
1.11295e-07
-1.12531e-07
1.35965e-09
-1.24018e-10
-1.26203e-07
-1.24353e-07
8.0762e-10
9.69424e-11
1.62808e-08
4.0142e-08
-1.57903e-07
1.4744e-08
-4.11203e-08
1.88246e-07
1.28753e-07
-7.77955e-08
-5.62742e-08
4.86952e-09
1.84421e-08
-2.02385e-08
1.27578e-07
-3.17939e-08
-7.55455e-08
1.02596e-07
-6.31585e-10
-1.01719e-07
-2.46087e-10
-3.93094e-08
-1.39181e-07
2.75955e-07
-9.74654e-08
1.00786e-07
-7.64461e-08
-9.35882e-10
9.86578e-11
9.88579e-08
-2.59301e-10
7.03975e-08
-7.07615e-08
1.17301e-07
-1.52384e-07
-1.24977e-07
7.6058e-08
1.21319e-07
-2.17173e-09
-2.93074e-08
-7.83322e-08
6.844e-08
8.15979e-08
8.37927e-09
1.18837e-07
-1.21118e-07
1.56557e-09
1.43044e-07
-7.69247e-08
6.75222e-09
1.13363e-07
-1.48269e-07
1.2997e-07
-8.41146e-08
-3.1078e-08
-1.3688e-08
1.95849e-09
9.95396e-08
-1.10565e-07
6.57892e-08
-1.24351e-07
-5.27536e-09
1.44224e-07
1.30913e-08
-4.17051e-08
1.23095e-07
-8.09095e-08
-2.48195e-09
-2.48779e-08
1.34634e-07
-1.5076e-07
4.10038e-08
1.11669e-07
1.99044e-08
-5.32477e-08
-7.63867e-10
-1.2305e-07
1.22463e-07
-8.81467e-10
-2.86813e-08
2.18723e-08
-9.33405e-08
1.00149e-07
7.29861e-08
-1.36937e-07
-5.11327e-09
-1.30625e-07
1.30959e-07
-1.90185e-10
-7.39627e-08
1.52358e-07
-1.17704e-07
-6.9956e-08
-7.74009e-08
1.62843e-08
-9.71225e-08
-3.89176e-11
2.06838e-07
-6.71828e-09
-1.00482e-07
-1.02878e-07
-7.11579e-08
1.27891e-07
2.20162e-07
-2.22898e-10
-8.60038e-08
2.91471e-11
8.61976e-08
3.10553e-08
1.09344e-07
-7.38536e-10
1.44057e-07
5.88755e-09
9.29293e-08
5.49368e-08
2.71123e-09
7.09652e-08
-1.36734e-07
-5.42858e-09
-7.04078e-08
-7.95764e-08
1.40959e-07
9.02511e-09
-8.75546e-08
-4.19036e-09
-4.06498e-09
-2.08825e-08
-1.22793e-07
1.09061e-07
-8.01805e-11
-1.18589e-07
-3.15814e-09
1.16064e-07
-8.60243e-08
-1.31011e-07
9.32421e-08
1.23793e-07
-1.08133e-07
3.75533e-08
7.37361e-08
-3.15619e-09
6.78889e-08
6.77793e-08
-1.28708e-07
-6.96056e-09
-6.92054e-08
-6.65604e-08
1.29525e-07
6.2409e-09
4.9913e-08
4.63973e-08
-1.06233e-07
9.92311e-09
-6.47508e-08
1.0787e-07
-3.51202e-08
-7.9994e-09
1.02222e-07
-1.02621e-07
-2.58548e-10
-9.05631e-08
5.06322e-10
7.87957e-08
1.01782e-07
-2.712e-08
-1.53458e-07
-2.99889e-08
8.53147e-08
3.70221e-08
-9.2348e-08
-9.47887e-08
4.0498e-11
9.63099e-08
-1.56172e-09
-7.09956e-08
-4.08236e-08
9.15807e-08
1.19729e-07
-3.34373e-09
6.77289e-08
-1.26047e-07
6.33066e-08
-4.98878e-09
-5.26733e-08
3.53552e-08
-1.12024e-07
1.12394e-08
1.29463e-07
-1.0185e-07
-3.86816e-08
1.12784e-07
7.80817e-08
-7.14143e-08
7.41332e-10
-1.18533e-07
-9.79538e-11
5.65963e-08
-4.35974e-08
9.98097e-08
-1.13783e-07
5.46756e-08
5.18597e-08
7.24769e-09
7.1213e-08
-4.78374e-09
3.77966e-08
6.1376e-08
7.39123e-09
8.86508e-09
1.22327e-07
-9.87288e-09
-5.67026e-09
-7.95636e-08
7.76018e-08
1.2954e-07
-7.19817e-08
-1.51106e-07
1.5163e-07
1.5782e-07
5.66818e-08
-5.38461e-08
-1.60656e-07
1.40414e-08
-1.24877e-07
1.33866e-07
-7.59947e-08
-6.98276e-08
1.39228e-07
6.59476e-09
-4.32878e-08
-1.04128e-07
1.69533e-09
6.59284e-08
-6.60357e-09
1.25679e-07
-4.95466e-10
-8.31712e-11
2.14899e-08
-8.28132e-08
8.84203e-08
1.55487e-10
1.62926e-10
-1.30943e-07
-1.58544e-09
8.69935e-08
-8.50638e-08
1.11502e-08
-8.11662e-08
1.3867e-07
-6.86537e-08
-2.68237e-08
-1.3009e-07
1.10157e-09
1.55812e-07
8.94731e-08
-1.72418e-07
6.75888e-08
1.53556e-08
-1.19009e-07
8.72543e-08
-9.43495e-08
9.72999e-08
-5.35844e-10
-9.63568e-08
-4.07244e-10
-4.43425e-08
-1.24745e-07
4.47028e-08
1.24384e-07
-7.06614e-08
-1.18462e-07
1.44447e-07
4.46766e-08
-2.83042e-09
-1.38516e-07
1.39013e-07
2.33327e-09
-1.21271e-07
1.21199e-07
-1.48181e-09
-1.3897e-07
1.22752e-07
-6.18476e-08
1.32806e-07
6.8844e-08
-5.68639e-09
7.4224e-08
-1.33074e-07
-6.17369e-08
-1.22491e-07
8.45249e-08
-9.87566e-08
-1.3268e-08
1.36776e-07
-8.46114e-08
-3.39165e-08
1.16951e-07
-1.14898e-07
-3.25466e-09
1.20127e-09
-9.44326e-08
-2.34682e-09
3.93863e-09
2.47117e-10
-1.45293e-07
1.42216e-07
-8.78831e-08
-4.77592e-10
8.0612e-10
-8.9496e-08
7.52447e-08
1.47047e-08
-4.53351e-10
-5.36186e-08
-1.28667e-07
1.73013e-07
9.27263e-09
1.11915e-07
-5.5219e-10
5.49032e-08
4.64395e-08
-1.10321e-07
8.97855e-09
-1.06048e-07
-5.32657e-10
1.06333e-07
2.46746e-10
-1.03187e-07
1.46275e-08
-2.39711e-08
6.09395e-08
-1.1782e-07
4.96788e-08
7.20136e-09
-4.51193e-09
-9.12721e-08
4.3355e-09
1.3927e-09
-1.29543e-07
1.84798e-09
5.19908e-08
7.19443e-08
-1.30776e-07
2.07724e-08
9.84365e-08
1.98485e-08
1.23754e-07
-1.24305e-07
6.0938e-10
-5.88945e-11
-1.99316e-07
1.88044e-07
8.31726e-08
-7.19009e-08
5.48408e-08
-1.41648e-07
1.08702e-07
-2.18946e-08
7.22268e-08
-6.54706e-09
-6.52708e-10
6.87043e-11
5.61127e-08
-5.93794e-08
-1.12319e-07
1.59033e-07
-1.31355e-07
1.09869e-07
-1.46207e-08
6.0716e-10
-1.45829e-07
1.45321e-07
1.25378e-07
-1.52819e-07
-1.24004e-09
-8.44421e-08
-8.04128e-08
1.58338e-07
6.51643e-09
9.17924e-08
-2.13202e-11
-9.17817e-08
1.06691e-11
-1.42987e-07
7.65656e-08
7.10992e-08
-4.67734e-09
-1.93048e-07
1.19473e-07
-1.33615e-07
2.07189e-07
-1.85939e-07
2.4643e-08
-4.42879e-08
-1.09037e-07
-1.58259e-07
9.6764e-08
3.6617e-08
-1.40792e-08
-1.24162e-07
1.35417e-07
2.82511e-09
-3.14373e-09
-1.07743e-07
-9.23828e-09
1.17351e-07
-1.0365e-07
1.08051e-07
-3.21658e-08
1.64097e-07
9.03574e-08
1.5975e-07
-1.24778e-07
-1.18482e-07
4.81392e-10
1.15709e-07
-1.16245e-07
5.4564e-11
9.97918e-08
-1.08085e-07
3.78109e-09
-7.75705e-08
-6.78609e-10
6.73503e-08
1.01533e-07
-4.3204e-08
6.23361e-08
-1.1959e-07
-4.59401e-09
-1.29956e-10
1.12508e-07
-1.12486e-07
1.07951e-10
-1.16544e-07
-1.51401e-10
1.17465e-07
-7.70128e-10
-1.18231e-07
4.31828e-08
-3.27387e-08
-1.15537e-08
9.67331e-08
7.78947e-08
-9.85709e-10
-1.73642e-07
2.67867e-09
-1.67457e-10
-1.69126e-08
8.03258e-08
-1.43929e-07
8.05157e-08
-1.24241e-07
1.26064e-07
6.50444e-08
-6.14339e-09
2.66774e-08
-1.2931e-07
-3.65358e-08
1.39169e-07
4.06688e-08
1.20811e-08
3.52277e-08
-8.79776e-08
6.86765e-08
7.44714e-08
-1.36993e-07
-6.15537e-09
-1.02759e-07
1.01017e-07
1.76266e-09
-2.12687e-11
-6.75432e-08
7.38811e-09
5.5209e-08
-5.31864e-08
1.24094e-07
-1.26117e-07
-1.03674e-07
2.1859e-07
-4.52756e-08
-6.96406e-08
8.50928e-08
-7.19012e-08
-7.42994e-08
6.11078e-08
6.7597e-08
-5.5515e-08
-1.35658e-07
5.2812e-08
8.88295e-09
5.76189e-08
7.9359e-08
7.48989e-08
7.64386e-08
-1.45076e-07
-6.26159e-09
1.33819e-07
7.98345e-09
-6.0901e-09
-1.35712e-07
1.02052e-07
8.56825e-10
-3.12364e-10
9.63321e-08
-9.79694e-08
2.24601e-09
-6.08769e-10
-6.55202e-08
-7.73916e-08
1.35768e-07
7.14368e-09
-1.20176e-07
1.53501e-09
4.10223e-10
-1.06354e-07
2.09519e-11
2.85515e-10
1.12411e-08
1.22416e-07
1.11031e-07
1.91653e-09
-1.03218e-09
8.71351e-11
-1.0264e-07
1.0202e-07
9.70273e-08
1.72901e-08
2.63378e-09
-1.15356e-08
3.59374e-08
-1.19648e-07
9.52457e-08
1.24891e-07
-1.24697e-07
-4.94366e-11
-1.44805e-10
-2.95787e-08
-1.17875e-07
1.72096e-07
-1.19006e-07
-1.92348e-08
1.43136e-07
-4.89512e-09
1.53674e-07
-1.30627e-07
-2.26178e-08
-2.02685e-08
1.27979e-07
1.25715e-07
-1.26492e-07
4.188e-10
3.58777e-10
1.50252e-07
-4.61702e-08
-1.47725e-07
4.36436e-08
1.23903e-07
-1.24132e-07
1.47059e-07
-1.4683e-07
8.92522e-09
-1.2258e-08
-9.81292e-08
1.01462e-07
2.68136e-08
-1.02508e-07
-4.35111e-08
1.19205e-07
8.63755e-08
7.87002e-08
-1.58108e-07
-6.96765e-09
2.03425e-07
-2.14881e-07
-6.83214e-08
-1.51522e-07
1.02559e-07
-1.29986e-08
1.24918e-08
-1.85219e-07
1.60585e-07
-8.54299e-08
1.33047e-07
-2.26451e-07
1.78834e-07
8.01292e-08
-1.59324e-07
-6.23543e-09
2.03851e-08
8.92289e-08
-1.54215e-08
-9.41925e-08
-1.42618e-09
1.29614e-07
-1.41426e-08
-1.11434e-07
-5.88943e-08
1.53551e-07
-1.07338e-07
1.26813e-08
-2.7421e-08
7.94563e-08
-4.45623e-08
-7.47299e-09
3.46952e-10
-9.98003e-08
9.98352e-08
-3.81834e-10
2.62764e-09
1.24658e-07
-1.26158e-07
-1.1284e-09
-8.4101e-08
-1.25933e-07
1.38824e-07
7.66e-08
-1.39928e-08
1.14489e-07
2.29562e-09
-4.7709e-08
-4.4234e-08
1.26383e-07
-2.32194e-07
3.36355e-08
-1.52217e-07
1.20275e-07
-7.17315e-08
1.22943e-07
-1.19876e-07
-4.39248e-10
-9.7431e-08
1.56243e-09
-2.32797e-09
9.81965e-08
6.16823e-08
-1.89301e-07
-1.45599e-07
-1.62717e-10
1.26381e-07
-1.26052e-07
-1.66572e-10
-1.11141e-07
-3.92388e-08
1.42555e-07
5.63449e-09
-9.10524e-09
1.10315e-07
-9.8745e-08
-1.11623e-08
1.4399e-07
-1.16889e-07
3.96873e-10
-5.12759e-11
6.3863e-08
-1.52583e-07
8.27565e-08
5.96306e-09
-1.49646e-09
-1.11828e-07
-1.50693e-09
1.27723e-07
5.99739e-09
-1.05113e-07
5.34659e-08
4.97898e-08
1.85688e-09
-1.05877e-07
2.92331e-08
1.44241e-07
1.72642e-10
1.35476e-07
-6.68683e-10
-1.3498e-07
6.76791e-09
1.19665e-07
-2.55066e-08
-1.00927e-07
1.43022e-07
-1.62888e-07
8.48419e-08
-6.49761e-08
4.5793e-08
1.15108e-07
-5.64139e-08
-6.70351e-09
8.2673e-08
8.82263e-08
-1.58523e-07
-1.42538e-08
-6.46744e-09
1.08765e-07
-1.31102e-07
1.15927e-07
2.5771e-10
-1.16309e-07
1.23994e-10
7.06461e-09
9.99673e-08
-3.85986e-09
7.85873e-08
-1.95695e-07
3.10834e-08
-1.32097e-07
2.47906e-09
-7.4663e-08
-6.37959e-08
1.31726e-07
6.73252e-09
-1.07462e-07
-4.9748e-08
3.35044e-08
1.23706e-07
-1.18862e-07
-6.37934e-10
-6.75673e-10
-6.95884e-08
1.47236e-07
-8.35441e-08
5.8963e-09
7.50728e-08
-1.48623e-07
7.68475e-08
-3.29701e-09
-1.12639e-07
-2.55732e-10
1.02424e-07
-1.05055e-07
4.56619e-09
-1.93554e-09
1.50955e-07
-8.45901e-08
8.7077e-09
-1.14978e-07
1.9342e-08
-1.92616e-08
5.89428e-08
-9.74507e-08
-2.19434e-08
1.2491e-07
-1.24094e-07
-2.08828e-10
6.80936e-08
6.07855e-08
-6.08147e-08
-6.80643e-08
7.94989e-08
1.48026e-07
-1.59636e-07
7.89748e-08
6.76096e-08
-1.41555e-07
-5.02917e-09
-1.16231e-07
6.13257e-08
4.74411e-08
7.46437e-09
1.91583e-10
1.25377e-07
1.45667e-10
7.97183e-08
7.45564e-08
-1.48587e-07
-5.68739e-09
1.05466e-07
1.16558e-07
-9.51773e-09
-1.03397e-07
-3.64325e-09
9.53661e-08
4.19834e-11
1.46716e-07
-1.48446e-07
-8.09376e-08
8.26679e-08
4.98086e-08
5.93971e-08
7.35208e-09
-6.30203e-09
-1.93662e-07
1.85793e-08
1.12896e-07
-3.62176e-09
6.23121e-09
1.51668e-07
1.30319e-07
-2.21048e-07
-1.22582e-07
1.09349e-09
-1.46072e-09
1.22949e-07
6.12356e-10
9.94015e-08
-9.98816e-08
-1.32227e-10
-7.93958e-08
1.80426e-07
-1.77025e-07
5.20335e-08
1.22613e-07
-6.48319e-08
-1.09815e-07
4.59345e-08
5.86904e-08
-1.12027e-07
7.40203e-09
1.48715e-07
-1.11872e-08
2.08106e-08
-1.33634e-07
-5.73654e-09
4.08082e-08
-1.33168e-07
-1.90133e-08
-9.41801e-08
-1.11628e-07
1.05169e-07
2.01529e-08
-5.06588e-09
-2.01705e-08
9.65906e-08
2.87492e-08
7.35881e-08
-7.76713e-08
-2.86121e-09
1.24925e-07
3.3384e-09
1.20262e-10
4.79017e-10
-2.15475e-07
-1.54031e-08
-2.92258e-10
1.46884e-07
1.47937e-08
-1.54026e-07
-1.33701e-08
2.71815e-07
-1.19927e-07
-1.38518e-07
-1.67113e-07
1.35632e-07
1.13937e-07
-1.44255e-07
-6.78451e-08
7.36726e-08
-7.54722e-08
6.96447e-08
1.17924e-07
-1.21868e-07
-3.78033e-09
7.72478e-09
-3.83124e-09
-6.34402e-08
7.87917e-08
-1.82465e-07
-7.96078e-08
6.46142e-08
1.13496e-08
-1.19077e-07
2.58851e-07
-4.12684e-08
-9.79962e-08
-1.33179e-08
-7.66325e-08
1.54047e-07
2.08415e-09
-3.28211e-08
-7.05862e-08
8.87508e-08
1.46565e-08
3.92359e-08
-1.7644e-07
8.01162e-08
5.70879e-08
-1.06517e-07
1.0629e-07
-5.06373e-11
2.77643e-10
9.17969e-08
-2.27382e-10
1.36299e-08
1.24545e-07
1.1245e-07
-7.19439e-09
-8.33838e-08
-1.53928e-07
1.82814e-08
7.7751e-10
1.35748e-07
-8.92416e-08
1.35091e-07
-4.27257e-08
-5.97503e-09
3.10234e-09
1.24867e-07
-3.04415e-09
1.0382e-07
3.89199e-08
-1.52348e-07
-2.9559e-08
-1.23688e-07
-1.0731e-07
-8.39869e-08
4.32753e-08
-1.11527e-08
1.08152e-07
-8.47777e-09
-9.34729e-08
-1.07522e-07
-3.05957e-09
9.40312e-08
-1.20669e-07
9.81726e-08
-6.3305e-10
-9.6997e-08
-5.42499e-10
-2.55557e-08
-1.47083e-07
-1.75794e-07
1.75433e-07
1.13755e-07
-4.75615e-08
1.13364e-08
-7.75296e-08
1.12102e-07
-5.90091e-10
-1.11459e-07
-5.2157e-11
9.52391e-10
1.01771e-07
-1.02958e-07
2.34852e-10
2.86989e-08
1.18538e-07
-3.62064e-08
-7.75643e-08
-8.15289e-08
1.04698e-08
7.63325e-09
1.08444e-07
-1.12024e-07
-4.05325e-09
-1.23397e-07
1.33414e-07
-2.38379e-09
-1.32624e-07
-3.30431e-09
-1.4673e-07
1.48632e-07
-5.51874e-08
-8.39359e-08
1.45308e-07
-6.18508e-09
1.06488e-07
-1.49594e-08
6.24992e-10
-7.7173e-11
4.59028e-08
1.16302e-08
-5.34344e-10
-4.31024e-10
7.4587e-08
8.14606e-08
-5.79608e-09
-3.31729e-08
9.8367e-08
7.72475e-08
-2.7608e-07
-1.11137e-07
2.50516e-07
1.35878e-07
1.27091e-07
-5.39096e-08
-8.09834e-08
6.54335e-09
-5.80944e-10
-1.23392e-07
-3.31534e-10
5.36907e-08
6.23155e-08
-1.1491e-07
-1.09626e-09
-1.12911e-07
1.12749e-07
1.23603e-10
3.79626e-11
1.03769e-07
3.1641e-08
-1.34757e-08
1.63344e-09
1.90813e-07
-4.40272e-09
-5.22253e-08
-8.01022e-08
-3.33019e-09
-9.40047e-08
-2.25773e-08
7.26073e-10
1.05069e-07
-1.04938e-07
7.68097e-08
-1.87557e-07
1.0539e-07
-1.05549e-09
-5.66441e-10
6.91245e-08
6.40976e-08
-1.29325e-07
-3.89756e-09
-1.59046e-07
7.95977e-08
-2.23337e-08
-2.60782e-08
-3.56374e-08
1.23914e-07
-6.21986e-08
-2.87666e-08
6.99085e-08
2.99573e-08
-1.37066e-07
-8.7824e-08
9.22093e-08
1.32681e-07
7.52687e-08
-5.94937e-09
6.38103e-08
1.264e-07
-5.22844e-08
-1.37926e-07
-3.68006e-09
1.13581e-07
1.46339e-08
-1.24535e-07
1.08214e-07
-9.21362e-08
-2.00324e-08
3.9544e-09
1.38744e-07
-1.86018e-07
1.71932e-07
1.38781e-07
-6.74424e-08
-6.4651e-08
-6.68811e-09
4.10402e-08
-1.65181e-07
-1.17379e-07
-1.18501e-07
-2.71751e-11
-1.83095e-07
1.54392e-07
-1.59619e-07
1.88323e-07
8.22029e-08
-1.4703e-07
-2.60358e-08
1.17019e-07
-1.16025e-07
-4.79936e-10
-5.14157e-10
5.89499e-08
-1.17002e-07
-5.38798e-09
-6.16046e-09
8.33682e-08
-1.74698e-07
7.49152e-08
-1.3236e-07
-7.23987e-11
3.00101e-10
1.32132e-07
-1.5866e-07
1.3383e-07
-1.04773e-07
-8.27727e-08
-2.87058e-08
-7.11742e-09
5.82801e-08
6.81396e-08
-6.14524e-09
-5.16518e-08
-5.88886e-08
-5.6908e-09
-3.60457e-09
-1.00473e-07
-9.84294e-08
-9.90102e-10
-5.6931e-09
6.80483e-08
-6.76299e-08
6.24861e-10
-1.04332e-09
1.04566e-07
-1.02566e-07
-1.32105e-09
-6.79349e-10
-1.09758e-09
1.2426e-07
-1.22983e-07
-1.80042e-10
-1.29081e-07
1.36766e-08
1.09645e-07
5.76028e-09
1.23943e-07
-1.17806e-07
-4.26448e-09
-1.87191e-09
-1.04764e-07
-1.08273e-09
1.06498e-07
-6.50674e-10
-1.01338e-07
-6.18093e-08
9.39466e-08
3.30433e-08
-9.21301e-09
-1.17777e-07
7.39817e-08
-7.84375e-08
3.64177e-09
8.14007e-10
4.38174e-08
3.63498e-08
-1.2451e-07
1.06576e-07
-1.03773e-07
-7.11613e-09
4.31326e-09
-4.93954e-08
4.99537e-08
1.48614e-07
5.0771e-09
1.24585e-07
-9.32291e-08
1.18265e-08
-2.69265e-08
-1.13331e-08
-9.88064e-08
-3.19515e-08
1.90726e-07
6.04786e-09
-1.65358e-07
1.26513e-07
-3.25231e-08
-1.88011e-08
2.05738e-08
-7.76818e-08
5.61883e-09
-1.2157e-07
1.21419e-07
5.69192e-08
-6.84137e-08
-2.93291e-08
7.55471e-08
2.24236e-09
6.24521e-08
5.55696e-08
-7.73529e-08
-8.07131e-08
1.11431e-07
-1.23441e-08
-6.85787e-08
5.73054e-09
9.12855e-08
1.10687e-08
2.17544e-08
2.37647e-08
-1.03593e-08
5.00345e-08
5.81568e-08
6.91698e-09
-4.77099e-08
1.56179e-07
-1.62088e-07
-1.69367e-07
8.42978e-08
2.14343e-07
-1.44437e-07
1.03325e-07
-3.11232e-08
5.93737e-08
-1.31575e-07
-1.20624e-07
-4.15784e-08
-1.40645e-07
-5.57548e-09
-9.86845e-08
7.82608e-08
-8.60515e-08
1.06475e-07
8.10602e-09
-1.15916e-07
-1.37233e-07
-7.25835e-09
-3.95469e-09
-1.24046e-07
1.12189e-07
1.20071e-07
1.8942e-08
1.00168e-07
2.06465e-09
-1.29239e-07
1.19462e-07
-8.2836e-08
9.26125e-08
-9.92053e-08
1.27578e-08
-1.99065e-08
-3.38253e-08
-2.72257e-08
1.19548e-07
-4.82261e-08
-1.09426e-07
-4.18863e-08
1.21315e-08
-6.9116e-08
-8.29227e-08
7.52387e-09
-6.772e-08
7.78523e-08
7.79368e-08
2.26818e-08
4.13925e-08
-1.42011e-07
7.77825e-08
1.25674e-09
-6.77013e-08
-4.35833e-09
-7.82111e-08
-8.72247e-08
6.38962e-09
6.09138e-08
-7.04853e-08
-4.68821e-08
5.64536e-08
-4.82207e-08
-8.68505e-09
1.42322e-07
-1.79691e-07
3.78445e-08
-4.74734e-10
-7.86783e-09
2.63021e-08
7.67888e-08
-9.52232e-08
4.73687e-10
-9.09688e-08
-7.23006e-10
9.12181e-08
-9.80035e-08
9.77298e-08
1.1476e-10
1.58892e-10
1.26478e-07
-6.97788e-08
-1.2828e-07
-5.95626e-08
-3.7078e-08
9.82953e-08
-1.65469e-09
1.49449e-07
1.13089e-08
-1.1242e-07
5.60225e-09
-1.35319e-07
1.64149e-08
-5.55507e-10
-1.67089e-07
-1.1143e-07
1.11666e-07
-3.09025e-10
6.79204e-08
8.60209e-08
-1.38949e-07
-1.27074e-08
-1.48745e-08
2.2332e-07
-7.06112e-10
-1.12302e-07
-2.37288e-09
9.49867e-08
-9.39712e-08
2.65703e-12
-4.93364e-09
1.42029e-08
2.55906e-08
1.18433e-07
-2.10437e-08
1.12612e-07
-9.03796e-09
-3.2088e-09
1.24004e-07
-1.19343e-07
-1.4521e-09
-1.02353e-07
1.11566e-07
-5.92116e-09
1.17874e-07
5.26787e-09
-3.07087e-08
-9.24335e-08
1.14791e-07
1.57978e-09
-1.14291e-07
-2.0798e-09
-6.88053e-08
-5.20516e-08
6.86317e-08
8.68606e-08
1.57287e-09
1.52546e-07
1.88311e-08
-3.49065e-08
-1.41055e-08
3.71197e-09