/*--------------------------------*- C++ -*----------------------------------*\
| =========                 |                                                 |
| \\      /  F ield         | OpenFOAM: The Open Source CFD Toolbox           |
|  \\    /   O peration     | Version:  2212                                  |
|   \\  /    A nd           | Website:  www.openfoam.com                      |
|    \\/     M anipulation  |                                                 |
\*---------------------------------------------------------------------------*/
FoamFile
{
    version     2.0;
    format      ascii;
    arch        "LSB;label=32;scalar=64";
    class       volVectorField;
    location    "0.02";
    object      U;
}
// * * * * * * * * * * * * * * * * * * * * * * * * * * * * * * * * * * * * * //

dimensions      [0 1 -1 0 0 0 0];

internalField   nonuniform List<vector> 
31639
(
(0.116912 0.000717077 -0.000521207)
(0.115109 -0.000284215 6.44382e-05)
(0.116329 -0.000196777 0.000646198)
(0.118534 9.46943e-05 -4.9767e-05)
(0.11553 -0.000605349 -0.000218629)
(0.115506 0.000109561 -0.000100587)
(0.113788 6.0741e-05 -0.000355453)
(0.116261 -8.67956e-05 -0.0001161)
(0.11624 0.000136154 -0.000182212)
(0.117536 -0.000251147 -0.000429332)
(0.117812 0.000455237 -0.000188411)
(0.117288 -0.000450302 -0.000628557)
(0.115626 -0.000246479 1.04027e-05)
(0.117208 6.57739e-05 5.9684e-05)
(0.11443 -0.000383512 1.18911e-05)
(0.114003 -0.000283534 0.000607233)
(0.115751 0.000235915 6.15346e-05)
(0.113688 3.6149e-05 0.000293547)
(0.114289 0.000168349 -0.000395566)
(0.115908 -6.79512e-05 -7.71397e-05)
(0.110316 -0.000248909 -0.000327339)
(0.117452 -0.000138399 -0.000398038)
(0.117461 0.000608825 -0.000110165)
(0.114562 0.00016267 -0.000151289)
(0.113339 -9.30712e-05 -0.000121608)
(0.116203 2.43463e-05 1.94077e-05)
(0.115949 2.70651e-05 -2.19124e-05)
(0.118987 0.000250383 -0.00015333)
(0.113986 0.000384915 0.00060959)
(0.117125 0.00010498 0.000441767)
(0.117777 -9.90568e-05 -0.000101332)
(0.113544 -0.000113558 -0.00013476)
(0.117691 0.000287875 -0.000464913)
(0.114412 -7.74472e-05 -0.000118684)
(0.111556 -6.37336e-05 3.87042e-05)
(0.117665 0.000477842 -6.11319e-05)
(0.109308 -0.000219522 -2.69684e-05)
(0.118288 -0.000337168 0.000312531)
(0.117644 -0.000198384 0.000233663)
(0.10933 6.54246e-05 -8.25616e-05)
(0.112341 -7.91253e-05 -0.000289689)
(0.111026 -0.000279111 0.000161467)
(0.117193 0.000183099 -6.29336e-05)
(0.117938 -0.000697679 -0.000704672)
(0.116775 -0.000439304 0.000605094)
(0.118313 -0.000638949 -0.000336601)
(0.113688 0.00026488 -0.000193313)
(0.115106 0.000433051 -0.000373755)
(0.115531 -7.06775e-06 0.000191308)
(0.118124 -0.000346945 -0.000216726)
(0.118075 -5.01047e-05 -0.000319313)
(0.110383 0.000245748 -0.000132343)
(0.117761 0.000414695 0.000111014)
(0.109664 -0.000125617 0.000205165)
(0.115509 -0.000199882 -0.000186204)
(0.115299 8.83846e-05 8.56183e-05)
(0.111026 1.01414e-05 -0.000536698)
(0.115869 0.000127195 0.000351784)
(0.115634 1.09343e-06 0.000331891)
(0.111519 0.000148646 -0.000154785)
(0.116341 -5.69107e-05 -0.000296369)
(0.116814 0.000350752 -0.00018741)
(0.113462 -0.000157895 -0.000326937)
(0.115637 4.02985e-05 -0.0001028)
(0.116174 0.000284473 1.01911e-05)
(0.118298 -0.000109633 -0.000513563)
(0.115856 0.000159443 -0.000870185)
(0.115703 -0.00021234 7.24849e-05)
(0.112332 -3.63946e-05 -0.000245636)
(0.118213 0.000341631 -0.00018974)
(0.117156 1.80858e-05 -0.000178612)
(0.113334 3.52317e-05 -0.000943098)
(0.117394 -0.000341003 -0.000648163)
(0.116045 -6.96097e-05 -0.000182376)
(0.116694 0.000268433 -6.12234e-05)
(0.110174 0.000137409 -0.000626913)
(0.118035 -0.000634419 0.000214925)
(0.114855 0.000290918 -0.000492913)
(0.115231 -0.000137721 0.000332495)
(0.116805 0.000236037 -6.68797e-05)
(0.1135 8.79238e-05 0.000143003)
(0.108207 6.86281e-06 7.29713e-05)
(0.117844 -0.000133776 5.37979e-05)
(0.116468 -0.00021711 -0.000181575)
(0.116235 -4.03933e-05 -0.000129984)
(0.117873 -0.000287128 -0.000247713)
(0.118298 2.73063e-05 0.000100719)
(0.118175 -0.000113003 -0.000267366)
(0.110881 0.000874616 -0.00123025)
(0.117516 -0.000184801 -0.000368801)
(0.116376 -0.000159288 0.000231175)
(0.114747 -0.000338877 -0.000120437)
(0.111702 -0.000402712 -0.000267989)
(0.114714 0.000390761 -0.000602783)
(0.113444 -0.000644949 -0.000307196)
(0.114699 0.000875249 0.000213675)
(0.115713 0.000250802 -0.000345817)
(0.116005 -7.61936e-05 0.000233452)
(0.115679 0.000122182 0.000102617)
(0.11118 -0.000687604 -9.72348e-05)
(0.116551 2.00601e-05 -5.74519e-05)
(0.11661 0.000275456 0.000513599)
(0.114609 -0.000210893 -0.000170169)
(0.110216 5.95393e-05 -0.000164762)
(0.1114 3.30566e-05 -0.000327212)
(0.118418 -0.000452273 -0.000243198)
(0.109886 0.0003883 -0.000361285)
(0.110722 -0.000562184 -0.000692072)
(0.112793 0.000422853 4.89963e-05)
(0.109647 -1.64182e-05 0.000421666)
(0.116998 -0.000766901 0.000155898)
(0.111748 -3.25061e-05 -0.000233011)
(0.115455 -0.000108442 -0.000290819)
(0.114381 -0.000479354 -0.000530479)
(0.116063 0.000137009 -0.000535092)
(0.110367 -0.000358464 0.000233988)
(0.114614 0.000379533 -0.000108674)
(0.114096 -0.00048217 -5.87515e-05)
(0.116483 -2.29056e-05 -2.10061e-05)
(0.11541 -0.000197702 0.000127844)
(0.11596 -0.000462878 -3.73123e-05)
(0.117386 -0.000472932 0.000355134)
(0.117809 0.000119995 -0.000519432)
(0.116329 0.000320221 -0.000638722)
(0.116158 -2.79043e-05 -0.000711861)
(0.117207 -0.000220833 7.6718e-05)
(0.11543 1.77994e-05 0.000266474)
(0.113449 0.000215822 -0.000186055)
(0.113311 -0.000527758 -0.000203277)
(0.117436 -0.00022919 9.58604e-05)
(0.117186 -1.06096e-05 -0.000256769)
(0.117617 0.000203589 -0.000322679)
(0.117155 -0.000284289 5.42118e-05)
(0.115425 -5.69238e-05 4.71726e-05)
(0.117264 -5.91704e-05 -0.000175007)
(0.116105 -5.6013e-05 6.06816e-06)
(0.11146 -0.000105059 -0.000293245)
(0.110828 -0.000688742 -0.000347269)
(0.11785 0.000434096 0.000494353)
(0.115841 -0.000310475 -0.000293807)
(0.115631 -2.64571e-05 -0.000233019)
(0.118122 0.00018355 0.000885998)
(0.117614 0.00045756 0.000166497)
(0.110236 -0.000223905 -0.00036925)
(0.110656 -0.000152205 -0.000595739)
(0.117112 -0.000163971 -9.88309e-06)
(0.117043 -0.000275033 -0.00027583)
(0.111139 -0.00012805 -0.000343811)
(0.111723 -5.81738e-05 8.48736e-05)
(0.117315 -0.000246581 -0.000101546)
(0.113409 -1.63894e-05 -0.00088506)
(0.115148 0.000118215 0.000126094)
(0.114906 -0.000147015 -0.000668431)
(0.116994 -0.000128634 -4.5863e-05)
(0.11179 0.000633118 -0.000890461)
(0.118437 7.37182e-06 9.61505e-05)
(0.116291 -0.000143339 -0.000240564)
(0.112509 -0.00104588 -5.15631e-05)
(0.111447 -0.000650697 0.000806863)
(0.114221 -0.000320491 -0.000257601)
(0.118171 -8.10279e-05 -0.000395339)
(0.110378 0.00025884 0.000148263)
(0.111887 7.21614e-05 -0.000907106)
(0.110902 -0.000294419 0.000136359)
(0.110637 -0.000985478 0.000199748)
(0.114374 3.88055e-05 -9.02024e-08)
(0.110915 0.000454294 0.000114966)
(0.117673 -0.000604624 0.000153183)
(0.117953 -0.00037452 0.000187162)
(0.110812 0.000166408 -0.000570152)
(0.11241 -0.000485178 0.000315921)
(0.115169 0.000453529 -0.000580298)
(0.111457 -9.52435e-05 -9.27231e-05)
(0.116119 -0.000109498 0.000403825)
(0.118256 -0.000195317 -0.000299032)
(0.116828 -0.000539668 -0.000310449)
(0.115945 0.000551336 0.000118989)
(0.117362 0.000200063 0.000348491)
(0.116364 -0.000384694 -5.15436e-05)
(0.115198 -0.000209814 -0.000268455)
(0.115547 8.90311e-05 -0.000125387)
(0.114691 -0.000504298 0.000649475)
(0.114748 0.000164166 0.000173246)
(0.109501 0.00100047 -0.000367134)
(0.115789 1.40438e-05 0.000284407)
(0.117682 0.000492581 -0.000336473)
(0.114448 -0.00012779 0.000370681)
(0.11729 0.000233923 -2.2495e-05)
(0.111581 -0.000250494 6.80187e-05)
(0.110043 -0.000150726 0.000300361)
(0.11798 -0.00012131 -0.000194942)
(0.117113 -0.000183617 -0.00011723)
(0.115563 -0.000289574 0.000545039)
(0.115545 -5.60945e-05 0.000199318)
(0.115982 -2.63534e-06 -0.000186414)
(0.115135 -8.29144e-06 -0.000423116)
(0.114912 0.000508629 0.0004059)
(0.117387 0.000245518 -0.000296603)
(0.111296 -1.07033e-05 -0.000208753)
(0.114473 0.00025953 -0.000180812)
(0.11795 0.000141584 2.39018e-05)
(0.117417 -0.000245348 -0.000172586)
(0.116605 -0.000450434 2.21889e-06)
(0.116081 -0.00111551 -0.000214037)
(0.115426 -0.000439658 -0.000323045)
(0.115193 -8.36078e-05 -0.000306994)
(0.115753 -0.000114563 -0.000324395)
(0.115016 0.000396513 -0.000353846)
(0.117125 -9.52105e-06 -0.000309864)
(0.110301 -0.00014443 -8.15677e-05)
(0.115776 2.12146e-06 -0.000112626)
(0.114762 0.000458611 -8.57264e-05)
(0.115958 -4.3437e-05 -0.000386753)
(0.117138 -1.41766e-05 -0.000451998)
(0.116553 -0.000365668 -0.000388602)
(0.117637 -9.70198e-05 -0.000242672)
(0.111662 -0.000956293 -0.000333105)
(0.113468 -0.000330303 0.000312577)
(0.117117 -0.000290663 -0.000267565)
(0.117922 -0.000165975 0.000209522)
(0.117234 3.21101e-05 0.000188201)
(0.115165 -0.000293292 -0.000485745)
(0.109059 -8.4103e-05 0.000653858)
(0.115654 -0.000606821 0.00040328)
(0.110688 -0.000302909 -0.000260563)
(0.113783 0.000301978 -1.52486e-05)
(0.117162 -0.000358603 0.000435184)
(0.113514 0.000339558 0.00041719)
(0.110539 0.000340608 -0.000207348)
(0.115718 8.84128e-05 0.000211798)
(0.116521 0.00024154 -0.000187039)
(0.117875 -0.000140135 -6.15485e-05)
(0.110956 -0.000137791 -6.56497e-05)
(0.109997 -0.00045553 0.000130243)
(0.116079 -0.000333146 0.000212534)
(0.117153 0.000119966 -0.00055919)
(0.111143 8.05361e-05 0.000401713)
(0.117527 -0.000755945 0.000199419)
(0.113015 7.72183e-05 -0.000388337)
(0.11151 -0.000264836 0.00011487)
(0.115507 0.000183624 -0.000201252)
(0.116424 -0.000190221 -2.17497e-05)
(0.114653 -0.000760502 3.84064e-05)
(0.113076 0.000258387 0.000778672)
(0.113687 0.000146961 0.00022378)
(0.115449 -0.00013017 -9.59713e-05)
(0.115172 0.000472904 -0.000253466)
(0.113925 0.000177859 -0.000694495)
(0.110661 -0.000435927 0.000417716)
(0.115385 0.000286078 -0.000351182)
(0.115511 7.99958e-05 -0.000438573)
(0.112331 -0.000217092 -5.35944e-05)
(0.113564 -0.000855473 8.57286e-05)
(0.117465 -3.35251e-05 -0.000104875)
(0.117828 0.000541748 6.55134e-05)
(0.115296 0.000544518 -0.000121007)
(0.11151 5.18023e-05 -4.44613e-05)
(0.117614 0.000243186 -0.000229463)
(0.116878 0.000332632 -0.00050402)
(0.114897 -0.000290342 -0.000410237)
(0.118408 0.000214687 0.00070621)
(0.118148 0.000141969 -0.000326731)
(0.116556 0.000173647 -0.000444682)
(0.117871 9.73416e-05 0.000107343)
(0.114794 0.00036712 5.01562e-05)
(0.115028 -0.000255691 -0.000602476)
(0.110162 0.000314622 -0.00138961)
(0.113629 -0.000177689 -0.000203329)
(0.117488 -0.000629967 0.000129138)
(0.114511 5.09442e-05 0.000329072)
(0.116825 0.000264513 1.58109e-05)
(0.114783 0.000441248 -0.000565184)
(0.115568 -0.000193693 5.5128e-05)
(0.116317 0.000256307 0.00028359)
(0.11818 0.00011813 -0.000510835)
(0.11606 0.000516912 0.000165702)
(0.110905 0.000145228 -4.24151e-06)
(0.114569 6.37744e-05 6.43589e-05)
(0.112306 0.00130142 -0.000312806)
(0.118033 -7.0833e-05 -0.000712967)
(0.114662 -0.000533605 -0.000219526)
(0.117032 -4.4913e-05 -0.000407253)
(0.116015 2.91518e-06 -0.00035758)
(0.113528 -7.28765e-05 -0.000451877)
(0.110663 3.3445e-05 -6.19481e-06)
(0.111811 0.000179818 -0.000524017)
(0.111557 0.000195078 0.000117805)
(0.110266 -0.000250447 9.01972e-05)
(0.118272 -0.00035708 -0.000245007)
(0.111114 -0.000351497 -0.0004838)
(0.116385 -0.000252034 0.000256698)
(0.11623 0.000479307 -0.000175346)
(0.114426 -3.69886e-05 -0.000190504)
(0.111972 -9.38253e-05 -9.10965e-05)
(0.11759 -0.000660508 7.46063e-05)
(0.114718 0.000101284 -0.000670826)
(0.112935 0.000117884 0.000527705)
(0.117331 0.000264752 -0.000365426)
(0.115877 -0.000167382 -0.000119725)
(0.111783 0.000347594 0.000301213)
(0.114827 3.31949e-05 -0.000115583)
(0.111455 0.000204409 -1.62597e-05)
(0.116017 0.000333718 -0.000194219)
(0.115287 0.000180528 -0.000144673)
(0.111843 0.000302002 0.000675696)
(0.115042 -9.07477e-06 -0.000241325)
(0.114789 0.00077295 0.000262916)
(0.109164 0.000117873 -0.00100588)
(0.109378 0.000336673 0.000322869)
(0.117009 -0.000527002 0.000222049)
(0.117897 0.000151614 -1.94505e-05)
(0.118186 0.000128946 -9.10001e-05)
(0.11058 0.000149478 8.83002e-05)
(0.111823 4.03997e-05 0.000279065)
(0.117444 0.0002466 0.00025665)
(0.113027 -0.000211196 -0.000216808)
(0.112591 0.000586955 -0.000694266)
(0.117211 0.000212755 0.000459719)
(0.117524 -0.000320898 -0.000112382)
(0.114611 -0.000641331 4.02858e-05)
(0.117337 -0.000763171 -0.000295713)
(0.118257 -1.97148e-05 -0.000221575)
(0.111159 -0.000106452 -0.000180719)
(0.118308 -0.00069058 -0.000439308)
(0.109416 0.000345191 -0.000114162)
(0.110313 -4.16753e-05 -6.98834e-05)
(0.117763 -0.000394021 -0.000214009)
(0.117163 -0.000511137 -0.000122446)
(0.118228 0.000178384 -0.00048695)
(0.118144 0.000553156 -0.000745069)
(0.11678 -5.99973e-06 -0.000511313)
(0.112346 0.000954423 -0.000454023)
(0.114136 -0.000773385 0.000560714)
(0.11538 -3.35072e-05 -1.54044e-05)
(0.116781 -0.000771786 0.000145098)
(0.117749 0.000760984 0.000455828)
(0.117787 -0.000556426 0.000199744)
(0.115578 0.000149844 -0.000158154)
(0.113933 -0.000708165 0.000462926)
(0.115285 -0.000202788 6.72553e-06)
(0.117662 8.27229e-05 -0.000199689)
(0.116605 -4.9282e-05 -0.000821836)
(0.114293 0.000119189 -0.000295197)
(0.115804 -0.000280347 -3.35647e-05)
(0.115346 0.000539058 -0.000398922)
(0.114614 -0.000300735 -0.000262856)
(0.116687 -0.000158179 -5.31944e-05)
(0.114359 -0.000658962 0.000619788)
(0.111386 -0.00011038 6.33627e-05)
(0.11543 0.000466757 -0.000567996)
(0.117167 -0.000106328 -0.000120193)
(0.114122 4.7284e-05 -0.000168849)
(0.116545 0.000267748 0.000184937)
(0.117514 -0.000573314 0.000134832)
(0.116103 6.07732e-05 -0.000138675)
(0.112059 0.000409962 -0.00026113)
(0.115491 0.000256634 -0.000353979)
(0.114797 0.000249102 0.000139282)
(0.110392 0.000266236 -0.000387934)
(0.116999 -0.000720965 0.000143309)
(0.110557 0.000418552 0.000351533)
(0.116103 -0.000100619 -0.000387724)
(0.117802 -0.000696384 -6.76298e-05)
(0.11104 -0.000205423 9.63488e-05)
(0.115839 0.000248701 1.794e-05)
(0.115118 0.000265688 0.000460364)
(0.110838 -0.000199743 0.000169256)
(0.115963 -0.000109305 -7.56748e-05)
(0.112055 3.664e-06 -0.000255141)
(0.114852 -7.31708e-05 0.00049893)
(0.117373 0.000489156 0.000122612)
(0.116063 4.77687e-06 0.00020876)
(0.110116 0.000306866 -0.000153649)
(0.116535 0.000136329 6.55637e-06)
(0.111788 0.000192 -0.000408718)
(0.116513 -0.000149517 -3.69178e-05)
(0.116734 0.000242739 1.54504e-05)
(0.117003 -0.00037231 -0.000332547)
(0.117593 -0.00025922 -0.000420138)
(0.111107 -6.83477e-05 -0.000371142)
(0.11708 -0.000837451 0.000211563)
(0.110648 -3.97339e-05 -0.000458956)
(0.115136 6.62238e-05 -0.000277758)
(0.111067 0.000166551 -0.000121531)
(0.118298 -3.26354e-05 -0.000164255)
(0.117931 8.25088e-05 -0.000211134)
(0.118354 -0.000133652 3.3094e-05)
(0.117919 -0.000398911 -0.000460663)
(0.115314 -0.000148497 -0.000199239)
(0.11691 -1.99068e-05 0.000125199)
(0.1156 0.000198591 3.85381e-06)
(0.115779 5.48991e-05 -0.000178053)
(0.115676 0.000149448 -0.000330005)
(0.111768 7.41177e-05 5.02118e-05)
(0.116525 -0.000182162 -0.000272305)
(0.115494 -0.00029932 -0.000145498)
(0.115968 -0.000267495 -0.000241508)
(0.117323 0.00010613 2.86498e-05)
(0.116693 -1.74336e-05 -0.000452945)
(0.11676 2.48593e-05 8.88012e-05)
(0.114721 -0.000509029 9.75852e-05)
(0.110379 -2.23735e-05 0.000573467)
(0.114664 0.000152745 0.000353133)
(0.116825 8.9566e-05 8.38836e-05)
(0.116569 -0.000240791 0.000193148)
(0.110963 -0.000434203 -0.000368579)
(0.117959 2.33303e-05 -0.000327418)
(0.117709 -3.5654e-06 -0.000569114)
(0.114714 9.17105e-05 -0.000543383)
(0.11714 -0.000284771 -0.000466483)
(0.117479 -9.49207e-05 -0.000820575)
(0.116284 -0.000126319 -0.000436629)
(0.116937 -0.000210816 -4.73937e-05)
(0.110644 -0.000235441 -0.000110551)
(0.116206 -0.000180154 9.19372e-05)
(0.11695 -0.000310439 0.000244901)
(0.109351 0.000136097 -0.000109051)
(0.115547 -0.000476841 8.22109e-05)
(0.116494 -0.0003221 -0.000233075)
(0.112866 0.000154527 0.000100795)
(0.110374 -0.00020995 -4.58356e-05)
(0.110495 -0.000144566 0.000544233)
(0.114267 -0.000736551 8.97367e-05)
(0.110192 0.000113589 -0.000110988)
(0.115225 -2.66119e-06 0.000172474)
(0.115933 -0.000175502 7.90337e-05)
(0.113157 0.000475921 0.000311295)
(0.116606 0.000521907 -0.0002292)
(0.11136 -0.000111452 0.000105561)
(0.116814 0.00037109 0.000210476)
(0.118418 0.000119035 1.82095e-05)
(0.115516 -0.000138571 1.79881e-05)
(0.116444 -3.75536e-05 0.000404146)
(0.114576 -2.94523e-05 -3.66968e-06)
(0.117823 0.000591797 -0.000275329)
(0.116142 0.000446427 -0.000100884)
(0.115351 -1.07967e-05 -0.000499967)
(0.118436 -2.7679e-05 -0.000372548)
(0.115898 -7.27419e-05 -0.000281771)
(0.111016 -0.000108229 0.000169615)
(0.115649 -2.45373e-05 -0.000122386)
(0.118312 0.000137274 -0.000720569)
(0.117815 0.000242594 -0.000417291)
(0.116782 -7.31967e-05 0.000387023)
(0.117632 0.000234724 -0.00011202)
(0.115657 -0.000530416 0.000241587)
(0.116528 -0.000206829 0.000100849)
(0.116225 0.000150996 0.000270305)
(0.11723 0.000148754 -0.000276108)
(0.117389 -0.000571705 -0.000110362)
(0.110199 -0.000293008 -0.000162453)
(0.114964 -0.000369646 0.00014495)
(0.10908 -0.00020092 0.000106227)
(0.114184 0.00036678 0.000534335)
(0.114732 7.87787e-05 -0.000428318)
(0.110896 -0.00047483 0.000518134)
(0.110158 -0.000325312 -0.000451813)
(0.114951 0.000267733 -0.000231898)
(0.116268 -0.00031858 -3.46936e-05)
(0.11731 8.99068e-05 -0.000421534)
(0.111113 8.15503e-06 0.000320983)
(0.11621 -0.000219266 0.000195341)
(0.114597 -0.000124149 9.42013e-05)
(0.115656 -0.000111239 -0.00050148)
(0.116121 9.96126e-05 -0.000399944)
(0.113197 0.00165255 0.00209053)
(0.115681 5.68646e-05 -0.000512818)
(0.11086 5.47504e-05 0.00032804)
(0.114635 -0.000213048 -0.000198258)
(0.117125 -0.000116995 9.46591e-06)
(0.118438 0.00096882 0.000435065)
(0.117611 0.000144891 -0.000687514)
(0.115447 0.00065704 -0.000439707)
(0.110228 0.000214636 0.000625675)
(0.116396 -0.000254812 3.09447e-05)
(0.116382 -3.81502e-06 -0.000247649)
(0.117318 -0.000252175 -0.000328295)
(0.110174 5.46486e-05 4.46193e-05)
(0.112035 -8.46138e-05 0.000199982)
(0.114957 0.000292652 0.000293861)
(0.111935 0.000358458 -0.000278975)
(0.110061 -0.000376532 -8.94324e-05)
(0.116697 7.03494e-05 -0.000353163)
(0.111549 -1.15191e-05 -6.66171e-05)
(0.113996 0.000679879 0.0001535)
(0.111019 -0.000471459 -0.000676668)
(0.116511 0.000150053 -1.04904e-05)
(0.111629 9.6257e-05 -0.00017528)
(0.117905 -8.26601e-05 0.000306024)
(0.117208 0.000129733 -0.000242801)
(0.118138 -0.000158202 0.000473763)
(0.118111 -9.5621e-05 -0.0001782)
(0.111257 -6.24745e-05 0.000140619)
(0.117651 0.000176787 0.000219123)
(0.11818 -6.90002e-05 -0.000220237)
(0.115534 -0.00032521 0.000193356)
(0.116629 0.000374873 -0.000187539)
(0.116442 -0.000312788 -0.000199653)
(0.117968 0.000272567 1.0112e-05)
(0.117129 0.000243149 0.000550631)
(0.11321 3.75589e-05 -0.00036926)
(0.118618 -2.89952e-05 -7.66924e-05)
(0.118185 -0.000170407 0.000197591)
(0.115997 -9.90142e-05 0.000111287)
(0.114212 -0.000356677 -0.000655183)
(0.11754 -0.000412312 -0.000180237)
(0.116035 0.00024199 -0.000153161)
(0.109505 0.000526849 -0.000285137)
(0.109537 0.000371323 -8.53234e-05)
(0.115434 1.9877e-05 0.000132161)
(0.117348 6.4954e-05 7.59363e-05)
(0.118212 -0.000116069 -0.00018002)
(0.113879 -0.000235151 -9.31696e-05)
(0.117174 0.000356232 0.000206199)
(0.11636 -0.000127033 0.000385108)
(0.118137 0.000968311 0.000843801)
(0.115631 -2.86576e-05 -2.18775e-05)
(0.114511 0.000410765 -0.000276843)
(0.115549 -0.00152156 0.000955715)
(0.110841 -9.69346e-05 -0.000147005)
(0.115027 1.66659e-05 0.000116027)
(0.115722 3.03017e-06 -0.000108548)
(0.117603 4.93033e-05 -0.000105622)
(0.112068 -0.000238027 4.47824e-05)
(0.112209 0.000265393 -0.000382959)
(0.113082 -2.45031e-05 -0.000355352)
(0.1137 -0.000418925 -0.000107089)
(0.115758 -7.21232e-05 -0.000413547)
(0.110368 -7.25489e-05 -0.00046739)
(0.117031 0.000397091 -0.000584163)
(0.114285 0.000134431 -9.95606e-05)
(0.116317 3.04847e-06 0.000669471)
(0.114591 -0.000161299 -0.000134169)
(0.118339 -0.000282006 -0.000262087)
(0.115312 -6.74104e-06 -0.000574119)
(0.110455 0.000104716 0.00045448)
(0.116047 0.000734817 0.000184021)
(0.118278 -0.000127671 -0.000750861)
(0.111194 0.00024941 0.000862315)
(0.117082 -1.45549e-05 -0.000563765)
(0.118216 -0.000927904 -0.000277699)
(0.115873 -0.000353886 0.000140072)
(0.115101 0.000234358 0.000142346)
(0.119469 -0.000167009 -0.000277933)
(0.113159 1.58296e-05 -0.000110036)
(0.115783 -0.000316932 -0.000115669)
(0.115574 0.000179668 1.03528e-06)
(0.111494 -3.10148e-05 5.38062e-06)
(0.111655 -6.20301e-05 -0.00104644)
(0.114946 0.000234643 0.000191199)
(0.113299 0.000500624 0.000167532)
(0.116782 -4.8703e-05 -0.000238089)
(0.112823 -0.000275138 0.000286109)
(0.114497 0.000305724 0.000391645)
(0.118101 6.37607e-05 0.000253949)
(0.115221 9.57531e-05 -8.73878e-05)
(0.110291 0.000241428 0.00012887)
(0.113143 0.000206627 -4.86983e-05)
(0.116111 0.000279831 -9.94677e-05)
(0.118133 -0.000132976 8.04385e-05)
(0.110305 0.000555154 0.000436482)
(0.110209 -7.59034e-06 0.000200929)
(0.118264 0.000107961 0.000696184)
(0.110533 0.000153087 8.28062e-05)
(0.116531 -0.000146927 -9.74881e-05)
(0.116831 0.00020113 -0.000179976)
(0.111579 -0.000110556 -0.000701626)
(0.116081 0.000298298 -4.15652e-05)
(0.117614 0.000134983 -0.000167999)
(0.115174 5.59469e-05 0.000635671)
(0.109249 -1.9828e-05 0.000182064)
(0.118009 8.8315e-05 7.8398e-06)
(0.115181 -8.23363e-05 -0.000302042)
(0.110199 0.000479092 -5.87475e-05)
(0.118069 5.30845e-05 -0.000102306)
(0.115092 -0.000115146 -9.49707e-05)
(0.114635 0.00033494 -0.000298611)
(0.116703 -0.000466335 9.20396e-05)
(0.11023 0.00073395 -0.000361226)
(0.114034 6.64354e-07 -0.000793942)
(0.114321 -0.000404775 1.59755e-05)
(0.114885 0.00017501 -0.000321916)
(0.111481 -5.21638e-05 0.000404879)
(0.113164 9.97115e-06 4.57355e-05)
(0.116837 0.000620465 0.000139559)
(0.118698 -0.000515474 -0.000779708)
(0.118709 -0.000434698 0.00039399)
(0.117698 -8.97323e-06 -4.23398e-05)
(0.117946 -0.00046981 -0.000138055)
(0.116572 7.3609e-05 -0.000957068)
(0.112745 -0.000186092 0.0002707)
(0.118628 9.86811e-05 -0.000732012)
(0.116769 -8.02888e-05 -0.000133072)
(0.117196 0.000635601 0.000372439)
(0.11174 0.000653468 -0.000189921)
(0.116097 -0.000185407 -0.000229812)
(0.115962 0.000169869 0.000383442)
(0.11866 0.000790154 9.28775e-05)
(0.110737 -8.16607e-05 0.000204384)
(0.109763 -0.000546528 0.00024652)
(0.117777 5.56093e-05 -0.000364887)
(0.113222 -0.000206398 -0.000260582)
(0.117446 0.000150318 -2.86596e-05)
(0.114371 -7.8688e-05 -0.000257625)
(0.111635 -6.82466e-05 -0.000583378)
(0.115818 9.54042e-05 -0.000658529)
(0.117904 0.000396539 -0.000157994)
(0.115078 0.000244868 2.81087e-05)
(0.117007 0.000745313 -0.000170272)
(0.111053 8.457e-05 -0.00132401)
(0.117154 0.000993941 0.000569749)
(0.116603 -7.06217e-05 -0.000368699)
(0.109813 0.000273485 -4.3883e-05)
(0.117085 -6.49204e-05 -0.000299111)
(0.117322 -0.000309391 0.000103213)
(0.118473 0.000624304 0.00124863)
(0.111308 -0.000574391 -0.000786384)
(0.110725 0.000216748 -0.000624903)
(0.11433 0.000318625 -0.000307555)
(0.115433 2.27019e-05 0.000687615)
(0.115677 -0.00017378 0.000118374)
(0.115247 0.000321415 0.000124859)
(0.11505 0.000294012 0.00036828)
(0.117666 0.000125167 -3.44177e-05)
(0.115944 -0.000251262 7.1163e-05)
(0.116231 0.000119754 7.71929e-05)
(0.111702 -0.000199813 0.000514812)
(0.118119 -0.000125599 -0.000824252)
(0.110816 -0.000139913 -0.00012001)
(0.11602 0.000703726 4.84691e-06)
(0.114798 0.000329665 -0.000132992)
(0.114255 -0.00067813 -0.000369138)
(0.116824 0.000281824 -0.000117234)
(0.114304 -0.000454668 -0.000423444)
(0.111757 -0.000603227 -0.000407415)
(0.11018 -4.72976e-05 -0.000388835)
(0.111155 -0.000219544 -0.000163113)
(0.114364 -0.000418951 -0.000312909)
(0.117034 0.000582576 0.000377965)
(0.111004 0.0003984 0.00116089)
(0.117052 -0.000214701 -7.17069e-05)
(0.114453 9.81324e-05 -0.000564541)
(0.118103 -0.000241735 -0.000360119)
(0.110613 -5.51648e-05 -0.000626936)
(0.11429 0.000339135 0.000496067)
(0.117409 -0.000125221 -0.000392869)
(0.11764 -0.000539803 -1.61178e-05)
(0.117192 0.000188604 -0.000263315)
(0.117961 -0.000192454 -8.64058e-05)
(0.116236 4.03271e-05 0.000223729)
(0.115149 0.000540884 0.000129599)
(0.117768 -6.93194e-05 0.00035757)
(0.117532 0.00024513 -1.28857e-05)
(0.118101 0.0001842 0.000108754)
(0.112262 0.000731949 -0.000209983)
(0.117894 -0.000435085 -0.000472052)
(0.110347 -0.000240854 0.000352464)
(0.118162 0.000598179 -9.68998e-05)
(0.115829 0.000240235 -0.000173918)
(0.114998 -3.93689e-05 -0.000290962)
(0.111155 0.000625083 4.53177e-05)
(0.115308 0.000990958 -0.000602794)
(0.109058 -0.000986087 -0.000219189)
(0.116985 -5.30398e-05 -0.00022225)
(0.115026 0.000108109 -0.000222996)
(0.117591 -6.2501e-05 -0.000208523)
(0.114703 0.000415099 -0.000243037)
(0.115101 0.000866901 -0.000209518)
(0.110888 -0.000245128 0.00045602)
(0.118085 0.000143161 7.12083e-05)
(0.111564 -0.000506913 0.00012531)
(0.109454 -0.000223947 -0.000281765)
(0.111415 -0.000199802 8.33062e-05)
(0.111983 0.000127044 0.000121947)
(0.11159 0.000639344 -4.7185e-06)
(0.115462 -0.000268555 6.99087e-05)
(0.110482 0.000144409 -8.24078e-05)
(0.116757 -0.000840361 0.0001381)
(0.116571 4.36361e-05 -0.000451319)
(0.109295 -9.35163e-05 3.49371e-05)
(0.116729 0.000330992 5.79144e-05)
(0.111228 0.00030636 -0.000582676)
(0.114229 0.000733022 7.88472e-05)
(0.115718 0.000218229 0.00010021)
(0.114656 -0.000148232 -0.000814757)
(0.116726 3.01462e-05 -0.000127815)
(0.118546 0.000140105 -0.000655484)
(0.117013 9.66344e-05 0.00047706)
(0.116271 1.14322e-05 -0.000239068)
(0.115833 -0.000212719 -0.00076564)
(0.116973 0.000409738 0.00024145)
(0.114011 0.000134003 8.64094e-05)
(0.114558 0.00020187 0.000105077)
(0.110035 0.000628207 -0.000593725)
(0.110575 0.0022582 0.00313612)
(0.117762 1.53986e-05 7.30715e-05)
(0.115716 -3.19121e-05 -0.000144962)
(0.116587 -0.000230857 -0.000121368)
(0.117166 -3.23704e-06 1.23149e-05)
(0.11023 -0.00043485 -0.000108591)
(0.117557 -6.28766e-05 -0.000359364)
(0.117803 0.000452109 -0.000113708)
(0.117791 1.70123e-05 0.000174389)
(0.117728 5.42286e-05 0.000186992)
(0.11672 0.000281506 0.000277568)
(0.116249 -0.000407377 -0.00028016)
(0.117861 -8.88097e-05 5.28856e-08)
(0.118125 -0.000120072 0.000361853)
(0.116448 0.00025894 0.000308977)
(0.117721 6.37048e-05 -0.000160818)
(0.116871 -0.000337681 -0.000401736)
(0.112223 -0.000271449 -0.00036998)
(0.117525 -8.47233e-05 0.000197966)
(0.112808 6.43402e-05 0.000485645)
(0.115573 -6.53873e-05 -5.13913e-05)
(0.115917 -0.000548163 -0.000164658)
(0.115468 -0.000524912 8.83712e-05)
(0.114037 0.000564869 -3.38839e-05)
(0.116865 0.000238054 -0.00019506)
(0.114626 0.000444209 0.000350327)
(0.116352 0.000184795 -0.00027663)
(0.114423 0.000873504 -0.000366296)
(0.11043 0.000771297 -0.00051864)
(0.118554 0.000324068 -0.000220367)
(0.116361 0.000436623 -0.000151569)
(0.113752 -2.73252e-05 0.000526182)
(0.110544 -0.000530567 -3.51076e-05)
(0.117479 -0.000439728 -9.53074e-05)
(0.110088 -0.000590775 -0.000494879)
(0.118005 -0.000221837 -2.188e-05)
(0.116433 -4.03014e-05 0.00037632)
(0.114797 0.000858714 -0.000308298)
(0.116778 -0.000308346 0.000336562)
(0.118073 7.23633e-06 -0.000448185)
(0.116136 -0.000347206 -1.89646e-05)
(0.110404 -0.000130258 0.000142289)
(0.114901 -0.000249873 -0.000229658)
(0.112635 0.000302358 -0.000452495)
(0.115446 2.79048e-05 -8.21059e-05)
(0.110293 -0.00051043 -0.000790736)
(0.116456 -0.000125866 -0.000310196)
(0.116904 -0.000417219 0.000430364)
(0.113548 0.000314752 -0.000457709)
(0.115405 3.8282e-05 1.69205e-05)
(0.113429 5.12763e-06 1.16844e-05)
(0.116872 -4.82037e-05 -0.000287907)
(0.113838 -0.000577928 0.000212456)
(0.115199 0.000342104 0.000198898)
(0.110684 -0.000203098 8.99877e-05)
(0.117822 -7.62071e-05 1.86465e-05)
(0.115787 -0.000450826 -0.000230397)
(0.117716 0.000263636 0.000216459)
(0.112902 0.000437742 -0.000274991)
(0.115913 -7.57557e-05 -0.000207215)
(0.116386 9.60957e-05 -0.000241064)
(0.114738 5.96378e-05 0.000441623)
(0.115174 -4.72324e-05 7.53876e-05)
(0.115272 3.83441e-05 0.000390003)
(0.117672 -0.000345251 7.13573e-05)
(0.115453 -0.000190354 -0.00011557)
(0.111032 -1.03725e-05 -0.000163606)
(0.109714 -0.000224171 -0.00049361)
(0.11682 -0.000392274 -7.21189e-05)
(0.110276 0.000418665 -0.000624809)
(0.113067 -0.000580538 -0.000924464)
(0.115508 0.000267204 -0.000182802)
(0.115695 0.000218334 -5.25441e-05)
(0.118087 0.000514577 -0.000174638)
(0.110112 -0.000156147 -7.6395e-05)
(0.115728 -9.59736e-05 -0.000572201)
(0.118303 4.11869e-06 -0.000287784)
(0.111215 0.000761968 -0.00206943)
(0.11142 0.00127906 0.000195015)
(0.115055 -0.000118583 -0.000568106)
(0.111623 -0.000117866 -1.79571e-05)
(0.116051 9.2743e-05 -0.000373564)
(0.111411 -0.000258051 6.61509e-05)
(0.117616 -0.000680137 -0.000300652)
(0.112763 0.000115913 0.00044085)
(0.11368 0.000229965 0.000375289)
(0.118479 0.000224056 0.000595436)
(0.109724 -0.00017138 0.00029727)
(0.114338 0.000108915 0.000328788)
(0.114206 -2.80008e-05 0.000486112)
(0.117885 -9.23395e-05 -0.000573307)
(0.117975 3.40639e-05 0.000181389)
(0.117385 1.86058e-05 -0.000197073)
(0.111169 0.000642454 0.000391484)
(0.116702 -8.96983e-05 -0.00043362)
(0.117275 0.00017795 0.000639996)
(0.113194 -0.000334358 -0.000100887)
(0.117707 0.000206977 -0.000180541)
(0.117118 0.000147875 0.000135437)
(0.116667 0.000297352 1.06653e-05)
(0.117351 -0.000132083 -0.00042998)
(0.115977 6.28305e-05 -0.000210076)
(0.118456 0.000133313 0.000213919)
(0.117866 0.000602336 0.000699802)
(0.117922 -0.000179405 -5.18874e-05)
(0.116323 0.000402976 0.000286608)
(0.114604 -0.000170408 -0.000449093)
(0.116158 0.000228248 7.1574e-05)
(0.115815 0.000155843 -0.000301616)
(0.110477 -0.000726215 -0.00015405)
(0.115077 -0.000544928 0.000103228)
(0.116291 -4.5548e-05 0.000411572)
(0.117739 -0.000223369 -0.00020108)
(0.117634 -0.000307262 -0.000514963)
(0.115362 -0.000367307 0.000112097)
(0.118781 0.000794925 -4.75073e-06)
(0.117382 1.92398e-05 -4.38469e-05)
(0.11419 -0.000610314 0.000625489)
(0.116308 5.13508e-05 -0.000390365)