/*--------------------------------*- C++ -*----------------------------------*\
| =========                 |                                                 |
| \\      /  F ield         | OpenFOAM: The Open Source CFD Toolbox           |
|  \\    /   O peration     | Version:  2212                                  |
|   \\  /    A nd           | Website:  www.openfoam.com                      |
|    \\/     M anipulation  |                                                 |
\*---------------------------------------------------------------------------*/
FoamFile
{
    version     2.0;
    format      ascii;
    arch        "LSB;label=32;scalar=64";
    class       surfaceVectorField;
    location    "0.02";
    object      Uf;
}
// * * * * * * * * * * * * * * * * * * * * * * * * * * * * * * * * * * * * * //

dimensions      [0 1 -1 0 0 0 0];

internalField   nonuniform List<vector> 
68568
(
(0.116317 0.000398542 -0.000159675)
(0.11572 0.000648794 -0.000178744)
(0.115452 0.000449374 -7.00587e-05)
(0.117585 0.000842259 -0.000302377)
(0.116233 -0.000262767 -0.000170041)
(0.116163 -0.000355256 -0.000335217)
(0.115365 -0.000269285 2.29419e-05)
(0.111309 -0.000101548 -0.000114382)
(0.116956 0.000230453 0.0001551)
(0.116695 -0.000379606 0.000595065)
(0.115867 -0.000215768 0.000133756)
(0.113489 -0.000486144 0.000600703)
(0.118318 -0.000150966 -0.000155202)
(0.117243 5.02161e-05 -0.000245098)
(0.118389 -3.33139e-05 -0.00014012)
(0.118531 -5.58806e-05 -0.000160506)
(0.113934 -0.000187669 -0.000150204)
(0.116299 -0.000395855 -0.000168852)
(0.113435 -0.000155412 -0.000243994)
(0.11594 -0.000421202 -0.000266782)
(0.116529 4.70933e-05 -8.38946e-05)
(0.115569 0.000100784 5.89403e-05)
(0.116591 8.99365e-05 6.93115e-05)
(0.112236 9.13478e-05 -0.000291171)
(0.114953 -5.98423e-06 -0.000261575)
(0.111209 -6.24057e-05 -1.02986e-05)
(0.112676 0.000169953 -0.000465197)
(0.114972 3.18764e-05 -0.000325083)
(0.11506 0.00022805 0.000371259)
(0.116955 0.000159238 -8.75966e-05)
(0.115783 -5.70004e-05 -6.51247e-05)
(0.116234 -0.000146373 -0.000298685)
(0.115257 5.92967e-05 -0.000226915)
(0.115272 0.000181325 -0.000511677)
(0.117058 -0.000256873 -7.48184e-05)
(0.116623 -0.000308068 -0.000302649)
(0.117645 -1.31651e-05 -0.000517791)
(0.117873 -0.000315534 -0.0003253)
(0.11772 0.000482451 -0.000105741)
(0.116932 0.000350561 -0.000172877)
(0.117505 0.000304569 -0.000172085)
(0.115272 -5.41407e-05 -0.000385934)
(0.118057 -0.000362008 -0.000596539)
(0.117737 -0.000401726 -0.000511553)
(0.116265 -8.82532e-05 2.00788e-05)
(0.115527 -0.000269606 4.86796e-06)
(0.111707 6.34361e-05 -0.000253227)
(0.117573 -8.85922e-05 -0.000211121)
(0.117554 -7.93844e-05 0.000159377)
(0.117031 -3.45451e-05 5.10851e-05)
(0.115114 -4.55382e-05 8.71342e-05)
(0.114517 -0.000299066 -7.99414e-05)
(0.115704 -0.00031935 -0.000182287)
(0.115261 -0.000261571 -6.19638e-05)
(0.111162 -0.000328851 -0.000112466)
(0.114988 -0.00029895 0.000631265)
(0.111285 -0.000209319 0.000337199)
(0.112732 -0.000262893 0.000568124)
(0.115118 -0.000203449 0.000247065)
(0.11478 0.000118917 0.000154735)
(0.115479 0.000209024 0.000181404)
(0.115172 0.000128071 6.48894e-05)
(0.116387 -1.98892e-05 4.36479e-05)
(0.111892 0.000350713 0.000335501)
(0.111946 -0.000297768 0.000575219)
(0.114962 -5.9582e-05 0.000209017)
(0.114826 0.000130663 -0.000551576)
(0.11291 -0.000214973 -7.16562e-05)
(0.111756 0.000160074 -0.000618579)
(0.115211 -6.00034e-05 -0.000344448)
(0.115943 3.56315e-06 -4.24458e-05)
(0.116852 -0.000264915 -2.80579e-05)
(0.11658 -0.000388081 9.05352e-05)
(0.112907 -0.000141413 6.17065e-05)
(0.111358 -0.00018539 -0.000308913)
(0.112785 7.79031e-06 -0.000210057)
(0.111599 0.000234079 -0.000244603)
(0.103912 -0.000128674 -0.000369382)
(0.11646 -0.000284589 -0.000387351)
(0.117807 -1.93244e-05 -0.000448647)
(0.116813 -0.000114217 -0.000431097)
(0.117209 -0.000153861 -0.000543247)
(0.117306 0.000379736 -0.000183456)
(0.117143 0.000360109 -8.13089e-06)
(0.115156 0.000444561 3.73944e-05)
(0.117803 0.000529454 -0.000151105)
(0.112773 0.000210755 -0.000189096)
(0.113085 -8.77008e-05 -0.000137652)
(0.115224 0.000214254 -0.000260154)
(0.115581 6.52952e-05 1.55296e-05)
(0.111061 3.63236e-06 6.5241e-05)
(0.114371 -6.84037e-05 -8.38454e-05)
(0.112551 0.000261151 -0.000381701)
(0.114513 -9.10599e-06 0.000163242)
(0.115177 0.000153114 -7.51252e-05)
(0.115182 -0.000156639 0.000112035)
(0.116986 -2.76192e-05 0.000601765)
(0.115823 -1.04724e-05 -0.00012574)
(0.116738 -0.000131799 -3.02779e-05)
(0.112737 -6.82915e-05 0.000306493)
(0.119041 0.000188568 0.000185489)
(0.117145 0.000224295 -6.07805e-05)
(0.119258 9.81165e-05 -0.000137543)
(0.118097 -0.000123084 -0.000591562)
(0.115843 0.000280093 0.000369497)
(0.111021 0.0004535 -9.60678e-05)
(0.112474 0.000348448 0.000150268)
(0.117293 0.000220897 0.000196802)
(0.116499 6.60092e-05 0.000331074)
(0.117285 0.00022242 0.000195318)
(0.11795 -0.000224528 -0.000170803)
(0.116887 -1.27853e-05 -1.98968e-05)
(0.118043 -0.000179672 -0.000125699)
(0.116479 -9.17568e-05 -0.00013458)
(0.114669 -0.000270695 -0.000103186)
(0.114667 -0.000114367 -0.00018332)
(0.111891 0.000210117 4.14738e-05)
(0.111516 -0.000303222 0.000296097)
(0.117416 0.000158074 -0.000359151)
(0.116932 2.89591e-05 -0.000271295)
(0.117246 4.7393e-06 -0.000383678)
(0.117693 -1.85181e-05 -0.000336366)
(0.112851 -2.82724e-05 -0.000231032)
(0.111948 -0.000194184 3.63295e-05)
(0.115531 -0.000112265 1.40809e-05)
(0.115637 2.79726e-05 5.39007e-05)
(0.112945 0.000143998 4.53513e-05)
(0.11106 3.94455e-05 6.20176e-05)
(0.111044 -9.13284e-05 -0.000194689)
(0.10459 -7.67533e-05 4.2392e-05)
(0.117552 0.000429282 -0.000237815)
(0.110911 6.90792e-05 -3.15643e-06)
(0.111014 -0.000365916 -0.000129776)
(0.109191 -0.000189837 4.26195e-05)
(0.103964 -0.000219457 -1.44379e-05)
(0.117998 -0.000261435 0.000287285)
(0.117847 -0.000463818 0.000202385)
(0.118044 -0.000111336 0.000424354)
(0.117341 -0.000334687 0.000291307)
(0.116638 -0.000205444 0.000283773)
(0.116627 -0.000145939 0.000439205)
(0.117747 -0.000153792 0.000510691)
(0.109939 0.000455658 -0.000344957)
(0.111021 -0.000240053 3.98665e-06)
(0.104691 8.17376e-05 -0.000111084)
(0.113795 -6.63697e-05 -0.000133023)
(0.11179 -8.41445e-05 -0.000330521)
(0.10497 8.55843e-05 -0.000379144)
(0.112293 -8.6818e-05 0.00016542)
(0.112295 -0.000329488 -3.06524e-05)
(0.113125 -0.000282455 -1.95976e-05)
(0.104157 -0.000200056 0.000157455)
(0.117535 -8.6361e-05 8.69906e-05)
(0.116217 -7.31857e-05 -9.20252e-06)
(0.11654 -0.000206312 -0.00031015)
(0.117515 -0.000704814 -0.000378203)
(0.11637 -0.000693133 -0.000633834)
(0.117629 -0.000492354 -0.000765915)
(0.11702 -0.000421101 0.000521202)
(0.11722 -0.000569382 0.000170108)
(0.116628 -0.000140047 0.000207376)
(0.118121 -0.000484303 -0.000168497)
(0.117269 -0.000501955 -1.8038e-05)
(0.116831 -0.00030718 -0.000305893)
(0.118072 -0.000139516 -0.000409305)
(0.115359 2.28812e-05 -0.000246694)
(0.114237 0.000370096 -0.000380624)
(0.110494 1.09082e-05 -0.000213058)
(0.115528 0.000327191 -0.000450608)
(0.115812 5.85055e-05 -0.000335639)
(0.113748 0.000203075 -0.000682222)
(0.112609 0.000138235 -0.000267859)
(0.11477 -0.000118399 0.000189516)
(0.114481 2.30137e-05 6.14757e-05)
(0.116378 4.82621e-05 -0.00022424)
(0.115436 -0.000130077 0.000131719)
(0.11712 -8.63513e-05 -0.000325322)
(0.116924 -0.000142073 -0.000337671)
(0.117079 0.000151232 -0.000269279)
(0.118109 0.000276663 -0.000576028)
(0.118436 7.84914e-06 -0.000240637)
(0.112748 -2.81838e-05 -0.000418681)
(0.110901 0.000152147 -0.000162935)
(0.111452 8.52982e-05 -7.16914e-05)
(0.103433 0.000143291 -0.000195783)
(0.116961 0.00049947 6.93663e-05)
(0.116143 0.000378826 3.42297e-05)
(0.117714 0.000384173 6.40613e-05)
(0.117258 0.000203458 9.85108e-05)
(0.110142 -0.000195769 1.54967e-05)
(0.104181 -5.18306e-05 0.00018613)
(0.113598 -4.10929e-05 -0.000250119)
(0.113405 -0.000240618 -4.50801e-05)
(0.116036 -7.98785e-05 -0.000259148)
(0.116058 -0.000184958 -8.61736e-05)
(0.11395 0.00012442 0.000209409)
(0.114399 7.00573e-05 0.000172442)
(0.116111 -0.000208425 4.36403e-05)
(0.112617 3.35791e-05 -0.000573532)
(0.111523 7.04856e-06 -0.000277735)
(0.112796 0.000122979 -0.000107064)
(0.104391 0.00036378 -0.000240174)
(0.116894 0.000164839 0.000459973)
(0.116641 -8.57487e-05 0.000157237)
(0.115824 9.44145e-05 0.00038271)
(0.112837 9.58337e-05 0.000378271)
(0.116845 -0.000327989 0.000146995)
(0.115893 -3.15237e-05 0.000377758)
(0.116781 -0.000147429 1.2153e-05)
(0.112275 -6.82127e-06 0.000217247)
(0.110943 -6.4959e-06 -0.000133128)
(0.111066 0.000367228 -0.000106721)
(0.105105 8.2417e-05 -0.000108932)
(0.115095 -0.000301988 -0.000396624)
(0.114819 3.60988e-05 -0.000240367)
(0.115058 -8.2434e-06 -9.14373e-05)
(0.11659 0.000367646 4.77023e-05)
(0.115519 0.000383156 0.000132344)
(0.117358 0.000149852 -0.000140523)
(0.116054 0.000284382 -0.000213021)
(0.114861 -0.000117357 -0.00034776)
(0.112661 -0.000168037 -0.00047082)
(0.112737 -0.00014818 -0.000261121)
(0.104992 -0.000255103 -0.000234302)
(0.116709 -2.58613e-05 -5.24557e-05)
(0.11678 0.000139872 8.31673e-05)
(0.111842 0.000106226 -0.000131725)
(0.114837 -3.02544e-06 -0.000118392)
(0.115095 0.000259565 -3.50179e-05)
(0.11661 0.000289315 1.24436e-05)
(0.115266 0.000253463 0.000148638)
(0.118092 3.80049e-06 -0.000541657)
(0.118233 -0.000104152 -0.000450612)
(0.118129 -0.000194484 -0.00038183)
(0.117473 -9.44743e-05 -0.00036578)
(0.114279 0.000304862 -0.000887251)
(0.1162 0.000185766 -0.000757026)
(0.116784 -0.000173201 -0.000631514)
(0.115596 -0.000281072 6.90961e-05)
(0.116545 -0.000241241 1.06574e-05)
(0.115591 -9.8133e-05 0.000142268)
(0.112388 -3.26742e-05 -0.000180857)
(0.112877 -0.000780915 -0.000298414)
(0.113281 0.00018793 -0.000224339)
(0.104386 -5.03648e-05 -0.00033059)
(0.117953 0.000331754 3.25483e-05)
(0.118187 0.000247282 -0.000260624)
(0.117628 0.000105256 -0.00010154)
(0.118197 0.000151848 -0.000379909)
(0.117362 0.000285083 -7.60918e-05)
(0.116046 0.000185349 -6.23503e-05)
(0.116909 -5.15996e-05 -0.000198192)
(0.116576 0.000155659 -0.000312341)
(0.113687 -0.000218326 -0.000763283)
(0.113412 0.000127646 -0.000263655)
(0.1146 -0.00011489 -0.000635878)
(0.108142 -0.000600779 -0.000597138)
(0.116321 -0.000212784 -0.000473754)
(0.116354 -0.000301365 -0.000689745)
(0.117612 -0.000241543 -0.000379088)
(0.117493 -0.000195652 -0.000435571)
(0.117022 -0.000116038 -0.000206938)
(0.115939 -0.000169515 -0.000270179)
(0.115846 7.60361e-05 -0.0001223)
(0.11264 0.000122943 -0.000461436)
(0.117073 0.000304451 0.000202008)
(0.116712 0.000311775 -6.02774e-05)
(0.115248 9.88846e-05 -0.000185291)
(0.111201 -7.1709e-05 -0.000635222)
(0.110815 -1.42238e-05 -0.000447531)
(0.112139 0.00014879 -0.000659846)
(0.103873 0.000276969 -0.0003277)
(0.117409 -0.000485472 -7.30135e-05)
(0.117323 -0.000536406 0.00011778)
(0.118199 -0.000502049 6.15539e-05)
(0.113324 0.000902283 -0.000528567)
(0.116003 8.84577e-05 -0.000341348)
(0.115661 0.000236462 -0.000329324)
(0.115726 -0.000214395 0.000406758)
(0.11609 8.5282e-06 0.000187434)
(0.116487 9.52301e-05 0.000307131)
(0.111893 -8.72351e-05 0.000305915)
(0.11292 -0.000227055 -0.000108382)
(0.117237 2.80508e-06 2.738e-05)
(0.115358 0.000221146 -2.47355e-05)
(0.117302 0.00035881 -2.96822e-05)
(0.111268 0.000371895 -0.000247511)
(0.114363 -7.47041e-05 -3.32537e-05)
(0.114574 2.13e-05 7.61324e-05)
(0.108994 7.54914e-05 -0.000223492)
(0.109961 0.000204788 0.000247708)
(0.109572 -7.52104e-05 0.000111272)
(0.104261 3.12961e-05 0.000110285)
(0.117954 7.52497e-05 0.000131787)
(0.116699 4.23519e-05 -0.000142477)
(0.117963 -8.06039e-05 7.19324e-05)
(0.11743 -0.000330123 0.000146321)
(0.117605 -0.000362814 -0.000233823)
(0.117276 -4.15342e-06 -8.64593e-05)
(0.117236 -0.000116344 -0.000246853)
(0.112328 -0.000145805 4.46478e-05)
(0.115316 -0.00019696 -0.000122029)
(0.116667 -0.000222262 -0.000123402)
(0.11693 -7.28744e-05 -0.000171234)
(0.115314 2.59613e-05 0.000103489)
(0.117929 -7.74621e-05 -0.000133859)
(0.116606 -6.41362e-06 -0.000283667)
(0.116818 9.34923e-05 5.15955e-05)
(0.117937 -8.73837e-05 -7.72544e-05)
(0.118046 -9.31605e-06 0.000151602)
(0.117406 -0.000107168 -2.53492e-06)
(0.118126 -7.54561e-05 -0.000195637)
(0.117032 -9.54698e-05 -0.000185004)
(0.116894 -0.000184532 -0.000279817)
(0.117945 -2.06865e-05 -0.000488117)
(0.111142 0.0011701 -0.000782807)
(0.113582 0.000274223 -0.00109539)
(0.112674 0.000591589 -0.000781465)
(0.102607 0.000216606 -0.000435223)
(0.117078 -0.000127098 -0.000176099)
(0.117235 -0.000252487 -0.000164332)
(0.118058 -0.000135179 -0.000400583)
(0.116183 -0.000129316 0.000221353)
(0.117319 -6.21706e-05 8.64375e-05)
(0.112148 2.52233e-05 -2.86998e-05)
(0.113186 -0.000106137 -1.64986e-06)
(0.112878 -4.42516e-06 6.10728e-06)
(0.115557 -0.000192781 0.000163272)
(0.115316 -0.000250306 -4.59824e-05)
(0.112167 -0.000303483 -0.000768644)
(0.112651 -0.000406303 -5.06987e-05)
(0.103803 -0.000317556 -8.62522e-05)
(0.11457 0.00038124 -0.000595609)
(0.115855 0.000179123 -0.000718085)
(0.111367 -0.000215967 -0.000364444)
(0.111964 -0.000416926 -7.04542e-05)
(0.114556 -0.000504748 -0.000135093)
(0.111564 -0.000330628 -0.000306791)
(0.11438 -0.000367204 -0.000156373)
(0.115949 0.000582951 -6.83989e-07)
(0.115839 0.00073116 -8.79265e-05)
(0.114763 0.000837153 0.000258519)
(0.112251 0.000626493 0.000217322)
(0.114276 0.000315735 -0.000146247)
(0.114934 -8.14099e-06 -0.00026319)
(0.116775 0.000287163 -2.18479e-05)
(0.117391 -0.000143709 3.02266e-05)
(0.117126 -0.000101765 0.000104694)
(0.111962 -5.8411e-05 0.000137727)
(0.115541 9.32707e-05 0.000166699)
(0.115271 0.0002802 8.77529e-05)
(0.11632 6.7185e-05 5.68014e-05)
(0.111768 2.70149e-05 -0.000216445)
(0.112103 -0.000546938 8.24988e-05)
(0.112618 -0.000156974 -3.32373e-05)
(0.111629 -0.000696117 -0.00025574)
(0.104218 -0.000452832 0.0001069)
(0.116574 0.000183587 0.000122306)
(0.116639 -9.41149e-05 0.000112811)
(0.114712 1.99068e-05 -0.000279387)
(0.116756 -0.000206683 -0.000159909)
(0.116533 0.000101963 0.000194747)
(0.115409 -7.00236e-05 0.000258158)
(0.115396 0.000401052 7.03365e-05)
(0.114449 -0.000274666 -0.000333844)
(0.111307 -6.33019e-06 -0.000177097)
(0.110856 -2.29974e-05 -0.000224951)
(0.112313 -0.000311101 -0.00026046)
(0.111552 7.0044e-05 -0.000324114)
(0.10415 -6.28296e-05 2.96696e-05)
(0.112915 2.10852e-05 -0.000274951)
(0.103963 3.4382e-05 -0.000307428)
(0.117103 -0.00028279 -1.36785e-05)
(0.11837 -6.32926e-05 0.000252483)
(0.118459 -0.000189801 -5.59139e-05)
(0.105047 0.000104275 0.000212839)
(0.111575 -0.000383823 -0.000569026)
(0.112477 -0.000268636 -0.0002205)
(0.112086 -0.0005257 -0.000502184)
(0.103453 -0.000215334 -0.000767936)
(0.111551 0.000554151 -9.05033e-05)
(0.114455 0.000438208 -1.3813e-05)
(0.11106 -9.28509e-05 0.000461145)
(0.110182 0.000167107 0.000189652)
(0.111587 0.00043257 0.000432582)
(0.104161 -4.31697e-05 0.000209131)
(0.117294 -0.000680902 0.000154834)
(0.115722 -0.00069282 0.000356715)
(0.116005 -0.000528625 0.00025618)
(0.117347 -0.000621283 0.000102915)
(0.113829 -0.000182641 -0.000552336)
(0.112951 -0.000230404 -0.000251171)
(0.112387 -0.000122454 -0.000225224)
(0.103878 0.000115165 -0.000235418)
(0.116521 0.000152006 -0.000254104)
(0.115771 0.000167038 -0.0002426)
(0.116152 -0.000429748 -0.000212602)
(0.112867 9.81198e-06 -0.000383703)
(0.11283 -0.000343724 -0.000406224)
(0.112794 -0.000310353 -0.00048978)
(0.115054 -0.000371327 -0.000498002)
(0.116943 7.9811e-05 -0.000353591)
(0.116845 0.000142232 -0.000384717)
(0.116085 0.000204806 -0.000311233)
(0.111872 0.000354506 -0.000477861)
(0.112504 4.8252e-05 5.28253e-05)
(0.110982 -0.000290745 0.000127248)
(0.111822 -0.000355061 0.000395118)
(0.104106 -0.000277839 -1.41641e-05)
(0.116153 0.000322459 4.26332e-05)
(0.112731 0.000288608 -0.000395306)
(0.112478 -4.72636e-05 -5.4244e-07)
(0.115662 -0.000560115 -6.54861e-06)
(0.11271 -0.000365618 8.93386e-05)
(0.115439 -0.000403137 0.000281959)
(0.116975 -3.17194e-05 -8.81699e-05)
(0.115295 -0.000105491 -0.00021554)
(0.11685 -8.32069e-05 -0.000192174)
(0.116506 0.000167104 0.000199365)
(0.116565 -0.000149197 3.60607e-05)
(0.112268 -0.000180874 0.00011122)
(0.115164 -0.000400407 -0.000125699)
(0.115517 -0.000162188 -0.000313124)
(0.11662 -6.83484e-05 -0.000178806)
(0.11621 -0.00029513 -5.75998e-05)
(0.116475 -0.000316178 0.000248242)
(0.117588 -0.000184934 0.000170937)
(0.118043 -0.00032523 0.000188109)
(0.116722 5.77815e-05 -0.000448536)
(0.116669 8.50169e-06 -0.000491976)
(0.118123 0.000101374 -0.000532031)
(0.114809 0.000267718 -0.000390336)
(0.11625 0.000201622 -0.000282305)
(0.116547 -3.52735e-05 -0.000592928)
(0.113766 -0.000604409 -0.00020706)
(0.117296 0.000288347 -0.000572775)
(0.115684 -0.000228631 0.000168644)
(0.117129 0.000190173 0.000333159)
(0.117086 6.76096e-05 0.000124858)
(0.117263 -0.000160808 0.000149498)
(0.116137 9.97463e-05 6.47976e-05)
(0.116735 -8.4229e-05 0.000167532)
(0.111578 -1.84989e-05 2.85926e-05)
(0.11137 -1.47126e-05 -0.00044815)
(0.111423 -0.000194017 -0.000245872)
(0.112047 -0.000627207 -0.000250375)
(0.114766 -0.000522226 -0.000223912)
(0.114944 -0.000476708 -0.000283061)
(0.116358 -0.00039325 9.19672e-05)
(0.116149 -0.000276283 -7.10519e-05)
(0.117695 -0.000224466 -0.000290629)
(0.117724 -0.000212993 2.92713e-06)
(0.117197 -0.000178081 -0.000263105)
(0.115971 -0.000323413 -0.000351271)
(0.115795 6.38707e-05 -0.000229704)
(0.117119 0.000134868 -9.49475e-05)
(0.117046 0.000302857 -0.000280727)
(0.117918 6.01872e-05 -0.000504793)
(0.117312 0.00015491 -0.000114629)
(0.117895 -7.50344e-05 -0.000438613)
(0.11704 -0.00025228 6.99642e-06)
(0.116493 -1.76596e-05 2.54577e-05)
(0.115633 -0.000574479 0.000181585)
(0.117451 -0.000378414 6.63504e-05)
(0.116298 -5.51467e-05 3.45296e-05)
(0.113446 -7.88084e-05 -0.000360845)
(0.117016 -3.78156e-05 -7.31375e-06)
(0.113238 0.000122401 -0.000599924)
(0.117065 -3.05805e-05 -9.90056e-05)
(0.117851 -9.28665e-05 -0.000396197)
(0.116825 2.81932e-05 -0.000303646)
(0.117066 9.03133e-06 0.000235418)
(0.111899 4.48383e-06 -7.56379e-05)
(0.11097 -0.000157142 -0.000387608)
(0.104881 -6.88287e-05 -0.000277187)
(0.111507 -0.000599574 -0.000691464)
(0.103851 -0.000393234 -0.000168039)
(0.118087 0.000262538 0.000617721)
(0.116734 0.000273173 0.000172604)
(0.115915 -0.000311232 -0.000303285)
(0.111903 -0.000220272 -0.000204753)
(0.116898 3.62612e-05 -0.000563571)
(0.116697 -2.59744e-05 -0.000367064)
(0.115812 -0.000136428 -0.00022322)
(0.111585 -0.000102121 -0.000226097)
(0.117838 0.000281059 0.000530375)
(0.117895 6.91979e-05 0.000561368)
(0.117941 0.000110698 0.000511634)
(0.117005 0.000210491 0.000549575)
(0.116727 0.00054943 0.000178693)
(0.116721 0.000395687 0.000123133)
(0.117587 0.000479298 7.38173e-05)
(0.110718 -8.7495e-05 -0.000289347)
(0.112172 1.3272e-05 -0.000139621)
(0.10345 -0.000220989 -0.000347506)
(0.113006 0.000259951 -0.000330559)
(0.112141 -0.000123122 -0.000290082)
(0.111454 0.000159688 -0.000397235)
(0.104173 -0.000109211 -0.000639706)
(0.117459 -6.5631e-05 1.42385e-05)
(0.116001 -0.000209415 -0.000361739)
(0.117553 -0.000322224 -0.000119757)
(0.114938 -0.000195618 -0.000250994)
(0.116642 -0.000298696 -0.000322794)
(0.111825 -0.000164006 -0.000411322)
(0.112351 -0.00010954 -0.000513508)
(0.104133 -0.000238287 -0.000301224)
(0.113083 -0.000240408 -0.000154793)
(0.111319 -7.59807e-06 -3.39587e-05)
(0.111024 -8.01556e-06 0.000162363)
(0.105084 -9.75539e-05 6.85742e-05)
(0.117583 -0.000421758 5.84214e-05)
(0.116557 -0.000278743 0.000225657)
(0.11641 -0.00022293 -9.74581e-05)
(0.117574 -0.000167806 -0.00014301)
(0.112823 -3.95582e-05 -0.000960359)
(0.112636 0.000161748 -0.000582772)
(0.11492 -7.92233e-05 -0.000618675)
(0.104581 -0.000136382 -0.000852733)
(0.115494 0.00023971 0.00013774)
(0.115905 -0.000296854 0.000140692)
(0.1157 -7.08931e-05 0.00018407)
(0.111852 -6.37243e-05 0.000235787)
(0.113008 -0.00034764 -0.000305876)
(0.115545 -9.72253e-05 -0.000490051)
(0.115385 7.40405e-05 -0.000624593)
(0.116022 -7.06909e-05 -0.000145342)
(0.117559 -0.000128612 -1.77525e-05)
(0.116683 6.40118e-05 0.000241805)
(0.113463 0.000286681 -0.00080267)
(0.11157 0.000442337 -0.000517153)
(0.113044 0.000827536 -0.000588071)
(0.103229 -0.000170811 -0.000609643)
(0.118477 -5.02897e-05 7.10173e-05)
(0.118412 -0.00013751 8.1269e-05)
(0.116803 1.95682e-05 1.06838e-05)
(0.118413 5.27856e-05 5.52561e-05)
(0.116738 4.37795e-06 -0.000401691)
(0.114548 -5.64374e-05 -0.000308671)
(0.114133 7.16111e-05 -0.000563165)
(0.116536 -0.00012574 -0.000184872)
(0.113768 -0.000833383 -0.00023433)
(0.11407 -0.000726554 3.62561e-05)
(0.104416 -0.000259616 -0.00033208)
(0.113016 -0.000576593 0.000788967)
(0.111986 -0.000229363 0.00072393)
(0.113446 -0.00052538 0.000488961)
(0.103462 1.73755e-05 0.000150192)
(0.115235 -0.000273231 -9.83515e-05)
(0.111361 -0.000260206 -5.03706e-05)
(0.113153 -0.000255727 -0.000687498)
(0.118397 -0.000112066 -0.000178581)
(0.117391 -8.96603e-05 -0.000273425)
(0.111783 0.00029208 0.000270962)
(0.111094 0.000146074 0.000207476)
(0.112588 -8.28175e-05 -7.59952e-05)
(0.103535 -4.08708e-05 0.000213723)
(0.113624 -0.000143863 -0.000664521)
(0.113532 0.00033063 -0.000382268)
(0.104453 -0.000327743 -0.000730436)
(0.111114 -0.000128854 0.000259681)
(0.113178 2.69385e-05 0.000239676)
(0.111392 -0.000315958 8.33015e-05)
(0.104586 -0.00016677 8.71602e-05)
(0.111295 -0.000750208 -0.000135253)
(0.113339 -0.000628427 0.000418977)
(0.112295 -0.000888351 -9.78712e-05)
(0.103196 -0.000432032 -0.000196552)
(0.114153 0.00017386 -0.000283363)
(0.1152 0.000109221 0.000114579)
(0.115473 -0.000147817 -4.86246e-05)
(0.110924 -2.5115e-05 1.07716e-06)
(0.111936 0.000463596 0.000145154)
(0.11129 0.000260914 0.000258486)
(0.104502 0.000174874 0.000207487)
(0.117452 -0.000525875 -1.27906e-05)
(0.117032 -0.000387849 8.25644e-05)
(0.11764 -0.000435392 -5.77292e-05)
(0.117322 -0.000453218 9.48178e-05)
(0.116769 -0.000230413 0.000184442)
(0.116849 -0.000150356 8.35679e-06)
(0.118085 -0.000251094 0.000162017)
(0.11833 -0.000238715 0.000242958)
(0.110051 0.000145876 -0.000843988)
(0.110162 0.000103992 -0.000302213)
(0.111823 0.000145105 -0.000426004)
(0.104955 -0.000242269 -0.000384975)
(0.113183 -0.000341256 0.000342151)
(0.11393 -0.000918371 4.64292e-05)
(0.113868 -0.000408804 0.000114831)
(0.107565 -0.000341133 0.000138106)
(0.114972 0.00065747 -0.000259582)
(0.116244 0.000400107 -0.000431932)
(0.116295 0.000334817 -0.000566416)
(0.1125 0.000135165 -0.000682805)
(0.11296 -2.39347e-05 1.31564e-05)
(0.110882 -6.96913e-05 -8.21839e-05)
(0.110422 -0.000218907 -0.000210082)
(0.104648 9.68809e-05 -9.27343e-05)
(0.116891 -9.21762e-05 0.000386077)
(0.112586 1.13889e-06 2.25245e-05)
(0.116514 -0.000370745 -0.000366109)
(0.117825 -5.12774e-05 -0.000375969)
(0.117201 -0.000123172 -0.000130389)
(0.116965 -4.5126e-05 -0.000171452)
(0.116021 0.000338469 4.64888e-07)
(0.11507 0.000315236 4.20202e-05)
(0.112328 0.00043182 0.000234066)
(0.117242 9.92e-05 1.77358e-05)
(0.116498 0.000151382 0.000304941)
(0.117217 8.61119e-05 0.000364984)
(0.117202 0.000169765 0.000260594)
(0.117247 -8.74659e-05 -3.07618e-05)
(0.11712 -0.000292634 -7.14682e-05)
(0.112164 -0.00022537 -9.89698e-05)
(0.116056 -8.57067e-05 -0.000270421)
(0.115166 -0.00018355 -6.53297e-05)
(0.116042 -0.000184514 -8.64214e-06)
(0.11089 -1.72694e-06 -0.000339968)
(0.116188 -4.47359e-05 -8.63957e-05)
(0.116441 0.000230442 1.76548e-05)
(0.112006 0.000124954 7.73106e-05)
(0.11264 -0.000442898 0.000531513)
(0.115537 -0.000414668 0.000412228)
(0.115699 -0.000641423 0.00048296)
(0.114581 6.3591e-05 0.000179632)
(0.115849 -0.000226941 -0.000111696)
(0.115934 -0.000122034 4.26052e-05)
(0.111767 5.88243e-05 0.000213127)
(0.112438 0.000440888 4.33799e-05)
(0.110159 0.000379536 -0.00034824)
(0.10365 0.000860449 -0.000323702)
(0.116375 9.84386e-07 7.17341e-05)
(0.117541 0.000134741 -0.000182053)
(0.117934 0.000591067 -0.000222548)
(0.115531 -0.000281316 0.000151951)
(0.115709 -0.000240763 0.000346463)
(0.110478 -0.000513821 0.000456372)
(0.116581 0.000306316 0.000119194)
(0.117406 4.1365e-06 9.77408e-05)
(0.117298 0.000236919 -5.64714e-05)
(0.117405 0.000298609 -1.50987e-05)
(0.112398 -5.78291e-05 -9.98197e-05)
(0.113093 -0.000172942 0.000107767)
(0.11261 -0.000355779 -1.94269e-05)
(0.103565 9.09001e-05 4.60116e-05)
(0.111118 5.33374e-05 0.000310902)
(0.110944 -0.000155924 0.000278705)
(0.112189 -7.96731e-05 0.000487734)
(0.104011 -0.000234195 0.000283944)
(0.116049 -0.000170491 -0.000356741)
(0.116899 -8.79516e-05 0.000113909)
(0.117712 -0.00022922 -7.69072e-05)
(0.117407 6.06278e-05 9.05878e-05)
(0.116287 -0.000276419 -0.000197892)
(0.11744 1.83499e-06 -0.000251291)
(0.115977 0.000136477 -0.00019188)
(0.114315 -0.000155583 0.000643116)
(0.116185 -0.000181478 0.000164458)
(0.115821 -0.000137481 0.000350866)
(0.114785 -0.000195359 0.000625765)
(0.115525 -0.000107772 0.00011037)
(0.11668 -0.000277702 1.42991e-06)
(0.112143 -5.23632e-05 0.000215471)
(0.117001 -9.98671e-05 -0.00044943)
(0.117113 9.01954e-05 -0.000337096)
(0.115685 -1.87594e-05 -0.000107636)
(0.111999 0.000212631 -0.000306451)
(0.115723 1.93419e-05 -0.000494989)
(0.112944 -5.54042e-05 -0.000487728)
(0.11563 0.000166975 -0.000348315)
(0.112865 0.000272656 0.000240553)
(0.115633 0.000393676 0.000376014)
(0.113538 0.000155753 0.000563525)
(0.115923 0.00027957 0.000303421)
(0.117652 0.000118491 -0.000327699)
(0.115832 0.000293808 -0.000389303)
(0.116259 -0.000140103 -0.000593182)
(0.112796 6.24981e-05 6.84174e-06)
(0.104225 -3.9772e-05 -0.000218902)
(0.112784 0.0001208 -6.35839e-05)
(0.115272 -2.58727e-05 -6.53678e-05)
(0.117883 0.000304136 -3.8359e-05)
(0.117729 6.63913e-05 -3.6475e-05)
(0.117133 0.000138451 9.57403e-05)
(0.117816 0.000114562 0.00017174)
(0.117122 -0.000396103 -2.57388e-05)
(0.117064 -0.000496472 -0.000204205)
(0.117038 -0.000447029 -0.000172611)
(0.117161 -0.000447355 -0.000333228)
(0.117126 -0.000511079 5.19298e-05)
(0.116972 -0.00052944 3.64585e-05)
(0.115561 -0.000480184 0.000170039)
(0.114982 -0.000896679 0.000201336)
(0.116572 -0.000861983 -8.65489e-05)
(0.116116 -0.000861901 -0.000281158)
(0.115068 -0.000144162 -0.00025046)
(0.114997 6.78682e-05 -0.000471126)
(0.112128 -1.76298e-05 0.000151713)
(0.117074 0.000182892 -0.000314228)
(0.11257 -7.0307e-05 -0.000252955)
(0.115112 0.000453224 -0.000268486)
(0.115198 0.000476201 -0.000418126)
(0.116043 1.0626e-05 -0.00029771)
(0.111713 -8.87393e-05 -0.000253993)
(0.117347 0.00010293 -0.000211226)
(0.116121 0.000202619 -0.000243804)
(0.116674 9.695e-06 -0.00034848)
(0.104404 1.50147e-05 -0.000196415)
(0.115839 0.000121446 -0.000186274)
(0.11233 -3.7615e-05 -9.53884e-05)
(0.113276 0.00015124 -0.000187962)
(0.115607 0.000215842 0.000108127)
(0.113043 0.000233036 -0.000184796)
(0.115848 0.00045643 -9.7403e-05)
(0.116189 -3.93537e-05 -0.00025122)
(0.115763 -1.64613e-05 -0.000306199)
(0.115552 7.30879e-05 -3.82291e-05)
(0.112648 0.000144012 -0.000319973)
(0.117404 -3.24163e-05 -0.000346768)
(0.115992 -0.000124647 -0.000514897)
(0.116913 -0.000226349 -0.000490856)
(0.115685 -0.000309309 -0.000444555)
(0.115482 -0.00044433 -0.000364157)
(0.117177 -0.00029689 -0.000244657)
(0.1164 -0.000344033 -0.000112792)
(0.117183 0.000169092 -0.000373657)
(0.117399 -9.44784e-05 -0.000290115)
(0.111963 -0.000608029 -0.000353623)
(0.112776 -0.000776284 -0.00040884)
(0.103733 -0.000100963 -0.000339487)
(0.114778 -0.000464236 0.000164577)
(0.116262 -0.000372528 -1.12968e-05)
(0.117485 -0.000275891 -0.000198611)
(0.115968 -0.000117281 -0.000221651)
(0.117639 -0.000329246 -0.000154771)
(0.117559 -5.55293e-05 0.000109689)
(0.117267 4.44721e-05 -0.000124516)
(0.116603 0.000177324 0.00019654)
(0.113465 -0.000179408 -0.000426118)
(0.116704 -0.00021118 -0.000489083)
(0.109279 0.000259128 0.000200249)
(0.11093 -0.000146386 0.000648444)
(0.110705 -0.000257846 0.000359549)
(0.102469 -0.000309538 0.000421096)
(0.116598 -0.000420123 -2.73823e-06)
(0.116042 -0.000487322 0.000167166)
(0.112805 -0.000442552 0.000617492)
(0.110679 -0.000748351 -0.000298494)
(0.104557 -0.000330565 -0.000188195)
(0.115121 0.000260156 -0.000206408)
(0.115269 0.00035148 9.89048e-05)
(0.101963 5.30353e-05 -0.000225413)
(0.116131 -0.000182598 0.000277015)
(0.117599 -0.000298525 0.000277745)
(0.111431 -0.000136715 0.000237153)
(0.113634 0.000360869 0.000298943)
(0.114199 -0.00010884 5.63312e-05)
(0.112186 0.000376797 -0.000180476)
(0.112276 0.000168995 -0.00024878)
(0.112627 0.000304731 -0.000469528)
(0.103578 3.73481e-05 -0.000100301)
(0.115814 -0.00012788 0.000102697)
(0.115352 -6.35332e-05 0.000140789)
(0.114816 -5.21494e-05 0.000199412)
(0.116473 0.000518155 -0.000203436)
(0.117259 0.000503465 -0.000215704)
(0.114835 -1.27869e-05 -0.000152959)
(0.115592 -8.50866e-05 -0.000280973)
(0.117323 -0.000429569 -0.000194527)
(0.116897 0.000133119 0.000237027)
(0.112992 -0.000350112 -5.31805e-05)
(0.112822 -0.000148916 -0.000129255)
(0.103157 -0.000140354 4.06615e-05)
(0.111526 -0.000639159 7.50142e-05)
(0.110425 -0.00039341 0.000386048)
(0.104275 -0.000364792 9.85412e-05)
(0.116835 -0.000602298 0.000228686)
(0.11535 -0.000150321 0.000391481)
(0.116281 -0.000414877 0.000452992)
(0.115211 -0.000293984 2.4076e-05)
(0.116949 0.000211042 -0.000520717)
(0.117761 9.09989e-05 -0.000515676)
(0.11578 0.00023187 -0.000409982)
(0.112181 0.000467694 0.000107421)
(0.112856 0.000194902 3.09162e-05)
(0.102853 0.000305255 -0.000399545)
(0.117362 -0.000640275 6.4383e-05)
(0.117375 -0.000661265 0.000230278)
(0.117165 -0.000545251 0.000216944)
(0.114217 -5.53856e-05 -0.000170953)
(0.112344 0.000148932 -0.000418116)
(0.104499 1.49831e-05 -0.000329217)
(0.110908 -0.000112905 0.000164154)
(0.110905 -0.000344977 7.24531e-05)
(0.104922 -0.000170998 -5.24094e-05)
(0.115582 0.000179321 -0.000258037)
(0.115351 0.000158013 -0.000194411)
(0.116447 0.000277569 2.12757e-07)
(0.112176 -0.000154745 -0.000201668)
(0.115313 -0.000205034 -0.000277779)
(0.116956 -0.000314185 2.86563e-05)
(0.115174 -0.000202529 0.000350972)
(0.116421 -0.00017679 5.90817e-06)
(0.114356 -0.000840046 0.000290352)
(0.115655 -0.000626437 8.29586e-05)
(0.115735 -0.000650287 -5.26101e-06)
(0.110504 -0.000579926 -3.98534e-05)
(0.111318 -0.000209703 0.000475765)
(0.114438 0.000115379 0.000424458)