/*--------------------------------*- C++ -*----------------------------------*\
| =========                 |                                                 |
| \\      /  F ield         | OpenFOAM: The Open Source CFD Toolbox           |
|  \\    /   O peration     | Version:  2212                                  |
|   \\  /    A nd           | Website:  www.openfoam.com                      |
|    \\/     M anipulation  |                                                 |
\*---------------------------------------------------------------------------*/
FoamFile
{
    version     2.0;
    format      ascii;
    arch        "LSB;label=32;scalar=64";
    class       volScalarField;
    location    "0.006";
    object      epsilon;
}
// * * * * * * * * * * * * * * * * * * * * * * * * * * * * * * * * * * * * * //

dimensions      [0 2 -3 0 0 0 0];

internalField   nonuniform List<scalar> 
31639
(
16.3094
16.3195
16.4451
16.5052
16.1286
16.2931
15.9743
16.2959
16.2033
16.5263
16.4974
16.5153
16.308
16.4772
16.2243
15.8738
16.2097
15.8381
15.6807
16.357
15.3613
16.3491
16.4339
15.7566
15.6221
16.1361
16.3042
15.4481
15.9776
16.3695
16.5179
15.8413
16.5486
15.6624
15.3794
16.4476
15.0105
16.4728
16.4864
14.7937
15.3957
15.3152
16.5018
16.4327
16.4617
16.5096
16.279
15.8465
16.2678
16.5047
16.5216
14.7406
16.505
15.2029
15.8163
16.2425
15.1697
16.3275
16.3551
15.0089
16.1199
16.2492
15.5625
16.335
16.2305
16.486
16.1039
16.2966
15.6524
16.5081
16.4938
16.0356
16.4579
16.2584
16.5265
15.3909
16.4712
15.8833
16.3577
16.4595
15.7285
14.906
16.551
16.4389
16.42
16.5431
16.5098
16.5439
15.1402
16.5337
16.4054
15.9203
15.202
16.2026
15.4857
16.2739
16.0186
16.3906
16.3074
15.339
16.4672
16.4982
16.245
15.0399
15.2744
16.4845
15.0273
14.8919
15.6013
15.3064
16.3673
15.3873
16.3283
15.8196
16.3605
15.0272
15.9949
15.902
16.5226
16.3012
16.3026
16.4569
16.4456
16.159
16.1265
16.4605
16.2903
15.5908
15.6458
16.5253
16.4754
16.3753
16.4303
16.0349
16.4066
16.4344
15.0239
15.164
16.4961
16.3665
16.3282
16.4905
16.5377
14.9915
15.0203
16.4598
16.4375
15.2909
15.2709
16.4798
15.3493
16.4464
15.6262
16.3366
15.2659
16.4559
15.9505
15.5411
15.2692
15.6308
16.4936
15.3445
15.4356
15.0952
15.3797
16.2146
15.3077
16.4498
16.4856
14.9003
16.1218
16.2688
15.2578
16.345
16.5035
16.3723
16.3788
16.5199
16.4165
16.3626
16.3469
15.8102
16.2143
15.0084
16.2474
16.4857
16.0098
16.4265
15.2723
15.1521
16.4828
16.2925
16.1874
16.3266
16.3057
15.8115
15.8622
16.477
14.9714
15.8475
16.4244
16.5388
16.2138
16.3531
16.0158
16.2532
16.2394
16.2698
16.4745
14.868
16.3187
15.9515
16.3162
16.395
16.1772
16.505
15.4303
15.9135
16.6183
16.5078
16.5396
16.0859
15.0787
16.5895
15.1663
16.2991
16.5064
15.6858
15.345
16.315
16.3759
16.4826
15.3742
15.0988
16.1164
16.1663
15.0869
16.3677
15.5235
14.9492
16.2491
16.1474
16.2031
15.7708
15.592
16.1745
16.3251
16.1095
15.3198
16.3308
16.1996
15.3605
15.7316
16.4889
16.4559
15.925
15.4981
16.4544
16.4415
15.821
16.473
16.5071
16.33
16.4869
16.3401
16.1416
15.1962
15.8365
16.3432
16.228
16.3769
15.7299
16.0818
16.3559
16.5245
16.3589
15.3334
15.8105
15.4855
16.469
16.0257
16.4974
16.4262
15.8325
15.3383
15.6163
15.1587
15.1031
16.4405
15.4061
16.4877
16.2537
15.7593
15.4913
16.4579
15.8761
15.6241
16.3269
16.0094
15.6522
16.3202
15.3427
16.3527
16.3206
15.2977
15.9645
16.2
14.662
14.9725
16.5131
16.4996
16.4728
15.2462
15.4673
16.5018
15.5687
15.5906
16.5011
16.5149
16.2876
16.4363
16.4771
15.2793
16.4826
15.0123
15.1166
16.4885
16.3844
16.4538
16.4765
16.1851
15.458
16.1295
16.3356
16.4855
16.5523
16.5224
16.2858
16.1713
16.3096
16.5304
16.0983
16.2429
15.9442
16.3618
15.8829
16.4075
16.1709
15.2367
16.3096
16.55
15.7825
16.4419
16.3846
16.3124
15.2044
16.3447
16.2931
15.0989
16.4951
15.2664
16.0088
16.5053
15.0104
16.3516
16.2911
15.2231
15.9988
15.2421
15.8099
16.4399
16.2123
14.966
16.1912
15.4746
16.2576
16.4267
16.5124
16.6759
15.4912
16.3794
15.2578
16.2934
15.1319
16.423
16.4939
16.4939
16.5072
15.7877
16.4439
16.361
16.3809
16.3421
15.3773
15.9873
16.1552
16.3217
16.2878
16.1529
16.2736
15.8261
15.2211
16.1659
16.3771
16.4925
15.0272
16.5308
16.4747
16.3079
16.3801
16.4984
15.9543
16.4606
15.4182
16.1622
16.4662
15.1339
16.0217
16.4419
15.3647
14.8877
15.2427
15.9585
15.2976
16.3134
16.3617
15.754
16.4953
15.4297
16.5151
16.5382
16.3253
16.0848
15.9494
16.527
16.3154
16.0308
16.4297
16.4332
15.0702
16.3593
16.4808
16.524
16.2965
16.5412
16.2293
16.0677
16.46
16.5181
16.5123
15.31
16.3594
14.8455
15.9824
16.2418
15.2063
15.3432
15.9566
16.2017
16.4121
15.0231
16.1943
15.8316
16.2756
16.3218
15.0059
16.3264
15.0735
16.2651
16.4995
16.4699
16.4276
15.8982
15.3664
16.1804
16.2954
16.4409
15.1033
15.1402
16.2756
15.2935
15.4299
16.223
15.1165
15.9044
15.3101
16.2517
15.3322
16.5081
16.476
16.5044
16.3971
15.7642
16.5378
16.5145
16.192
16.3422
16.4041
16.5866
16.5602
15.7724
16.4415
16.5177
16.3711
15.4574
16.4658
16.3569
14.8469
15.1263
16.3904
16.6373
16.4875
16.1789
16.3848
16.4494
16.5024
16.365
15.9199
16.1547
15.4733
16.3354
16.2118
16.4903
15.573
15.4768
15.3401
16.1317
16.2291
14.7231
16.2658
15.8995
16.1049
15.8496
16.3723
16.0423
15.2593
16.2972
16.3673
15.448
16.2111
16.5189
16.3806
16.309
15.4646
15.4412
16.3456
16.2947
15.4174
15.1518
16.3375
15.8225
16.1628
15.5867
15.9125
16.5188
16.323
15.17
15.6734
16.382
16.5215
15.3364
14.7282
16.475
15.1784
16.383
16.4153
15.305
16.3308
16.3931
16.223
15.3393
16.5672
16.1508
15.3827
16.561
16.315
16.2183
16.3061
14.8786
15.6054
16.3201
15.8221
15.6671
16.2837
16.5379
16.4688
16.3185
16.3422
16.4328
16.056
15.7158
16.4709
16.421
16.5123
15.6289
16.3732
16.0552
16.4663
15.3767
14.8897
16.4751
15.3986
16.5134
16.308
15.2606
15.8636
16.491
16.0456
16.377
15.0962
16.3588
16.021
15.0344
16.4964
16.5226
15.3567
15.3395
15.4024
15.9568
16.3548
16.2864
16.3577
16.2616
16.5041
16.3438
16.3353
15.4157
16.4276
15.1683
16.3602
16.0368
15.9303
16.567
16.2129
15.6002
14.9188
15.3027
15.9115
16.5169
15.469
16.4901
15.9597
16.496
15.2215
16.2826
16.4937
16.4602
16.4617
16.4556
16.4035
16.1177
16.5497
16.508
16.5461
15.6441
16.3739
15.2932
16.5184
16.3478
16.2562
15.4765
16.2555
15.1416
16.4108
16.0134
16.4465
16.2321
16.2527
15.2106
16.5155
14.9659
15.0417
15.4386
15.6545
15.1736
16.3505
15.0674
16.2692
16.1715
14.8232
16.4317
15.2955
15.6973
16.3094
15.7064
16.3713
16.4216
16.4936
16.4133
15.7468
16.3001
15.8206
15.9091
14.9907
14.1708
16.5219
16.3303
16.3246
16.5268
15.1001
16.5337
16.4925
16.4938
16.4296
16.4383
16.3473
16.49
16.5024
16.3701
16.5069
16.3364
15.2051
16.4813
15.8663
16.4874
16.243
16.3393
15.6222
16.4639
16.2898
16.358
15.9743
15.4469
16.5223
16.0319
15.7495
15.2339
16.4887
14.799
16.4291
16.3385
16.1062
16.4598
16.4513
16.4611
15.1677
16.3037
16.2762
16.5462
15.2694
16.4149
16.2624
16.2201
16.3475
16.1017
16.2437
15.9981
15.9357
14.9471
16.4537
16.1493
16.387
15.5832
16.3583
16.4192
16.2941
15.7338
16.3483
16.4691
16.3737
14.7549
15.0463
16.2469
14.9941
15.3527
16.4107
16.4559
16.4102
14.7758
16.3326
16.4281
15.1513
15.054
16.2769
15.3164
16.2317
15.6039
16.5097
15.8124
15.7312
16.4564
14.9138
16.2064
16.2555
16.4716
16.4808
16.4897
15.4411
16.4334
16.4878
15.943
16.5079
16.4847
16.1923
16.4756
16.3418
16.4811
16.5517
16.5282
16.4767
16.0079
16.3672
16.3265
15.2415
16.1708
16.3922
16.4442
16.4664
16.2938
16.5009
16.4999
16.1632
16.2942
16.5369
16.3618
16.3273
15.3152
15.8911
16.4988
14.8989
16.0776
16.2969
15.9764
16.1188
16.4875
16.2293
16.4466
16.1132
16.2271
16.0089
16.4843
16.3575
15.9344
15.4284
16.4637
15.392
16.2591
15.8111
16.2857
16.0614
16.5723
15.4393
16.5103
15.5421
16.3973
15.8972
16.221
16.3477
16.4589
15.347
16.4385
16.5231
16.4397
16.4064
16.2412
15.1465
16.5206
16.5127
16.402
16.458
16.4868
16.3719
16.1245
16.4097
15.1423
15.8819
16.4816
15.3683
15.6336
16.5399
16.5608
15.6337
15.8286
16.526
15.6574
16.1867
15.318
16.3581
16.3926
14.8017
16.1232
16.5442
16.3688
16.4047
16.3021
16.4782
15.4831
15.3659
16.5986
16.5533
16.2526
15.357
16.1335
16.583
15.6361
16.5237
16.3749
16.415
16.1575
16.4164
16.3874
16.2848
16.3172
15.663
15.1043
16.0599
16.4219
15.2599
16.4717
15.0369
16.2934
15.8267
15.1941
16.2584
15.5897
16.3247
16.0887
16.3786
15.2481
15.3218
15.8438
15.2901
16.3226
16.5475
16.3154
16.5277
16.0169
16.2988
16.5656
15.8589
16.0357
16.3395
16.3181
16.2724
15.3997
16.3761
16.4238
16.5377
16.5125
15.3965
15.0342
16.2874
16.5474
15.5151
16.1967
16.0888
16.337
16.5242
15.7609
16.1922
16.2556
15.2638
16.4817
16.3629
15.1906
15.5813
16.376
15.839
16.4676
16.4812
16.2084
15.2627
16.554
14.936
16.4955
16.4304
15.9324
16.5174
15.133
16.306
16.2216
16.2401
15.2205
14.9843
16.4605
16.5288
15.8137
16.4065
16.3567
16.2879
15.3738
15.6177
16.4932
15.9738
16.3428
16.4913
16.4628
16.4843
16.4639
16.1178
16.0997
16.4818
15.5152
16.4201
16.4651
16.3365
16.4223
16.5909
16.1094
16.4255
16.3162
15.0301
16.5136
15.7734
16.4797
15.7531
16.4753
15.2507
16.4089
16.4918
16.3143
16.4345
15.2993
16.5191
16.5037
16.4118
15.0811
16.5681
15.9421
16.4671
16.4767
16.4811
16.4907
16.3044
15.9807
16.3956
15.4004
15.4085
15.3296
15.4785
16.4304
15.1773
16.487
16.5304
16.4338
16.2186
15.9584
16.3703
16.5239
16.3745
16.1891
16.5022
16.403
16.0629
16.4482
16.3064
16.2184
16.3679
15.8382
16.4492
16.533
16.4263
16.4543
16.4497
15.79
16.5491
16.1723
16.2828
16.3873
16.4293
16.5193
16.3961
16.4369
15.6376
16.3094
16.2053
15.3597
15.2308
16.3011
15.9385
16.5133
15.838
14.7687
16.1941
16.5149
15.7231
15.8089
16.3359
16.4851
16.4659
16.2894
15.636
16.327
16.3245
15.8182
16.2911
16.3545
15.1939
15.8834
15.8095
16.2656
16.5202
16.3159
16.4809
16.419
16.2938
16.2974
15.2045
15.3376
15.0869
16.4601
16.3662
16.5876
16.6033
16.3058
15.0697
16.3592
16.0171
16.2602
16.2126
16.5129
14.8898
16.5347
15.1398
16.2984
16.1162
16.0372
16.459
16.3661
16.4944
15.2678
16.4328
16.3247
16.2205
15.5721
15.6825
16.4231
16.5051
16.2358
16.454
16.5724
15.3426
15.9344
15.9372
15.5283
16.3742
16.5108
16.5246
16.4648
16.4675
15.4649
15.525
15.3403
16.5854
15.4901
16.4439
16.0798
15.3117
15.9645
16.4697
16.5385
15.7253
15.9647
16.29
16.3176
16.5191
16.0671
15.2416
16.4097
16.4715
16.4022
16.4639
16.488
16.5561
16.4636
16.3913
15.4753
15.3612
16.3743
15.5425
16.4964
15.3169
16.4331
15.879
16.462
15.585
16.2843
16.5192
16.4573
15.8544
15.4413
16.372
15.8902
16.431
16.1187
16.5417
16.5139
16.437
15.5138
15.2613
16.2958
16.177
15.7948
16.5366
15.4128
16.3996
16.3968
15.8856
16.471
16.5602
16.5014
16.5183
16.551
16.3612
16.1576
15.1813
15.585
16.4701
15.4128
16.2568
16.3169
15.5646
16.2606
16.3519
16.3347
16.4246
16.5795
15.3619
16.4107
16.4102
15.3416
15.9354
16.3325
15.9262
16.3047
15.2994
15.2058
16.3372
15.8644
16.517
16.5397
16.4136
16.151
16.2342
16.3369
16.2265
16.4631
15.4801
16.3661
15.9124
16.5064
16.2974
15.9547
16.167
16.5163
15.3536
16.378
16.4944
16.3839
14.4952
16.0346
15.5223
16.1974
15.0457
16.4935
16.4527
16.4481
16.4102
15.4812
15.2445
16.5174
16.5848
16.4528
16.2812
16.3104
16.4687
16.5726
16.4894
15.2381
16.2108
16.3815
16.5051
16.031
16.4073
15.1554
16.4847
16.4634
16.1047
16.4215
16.2794
16.3939
16.5198
16.509
15.5577
16.2642
16.4709
16.3005
16.087
16.2414
15.2029
15.3129
16.5304
16.451
16.493
16.432
16.4236
16.396
16.0821
16.3607
16.4671
16.4995
15.8762
15.9369
16.2657
16.392
16.516
15.0653
16.0777
14.9673
16.5299
15.0169
15.3075
16.2163
14.6876
15.9091
16.2538
16.5133
16.4548
15.6819
16.2665
16.5277
15.7012
15.5875
16.1651
15.545
16.4785
16.4842
16.0144
15.2077
16.4702
16.5618
16.4336
15.1708
15.5662
16.3138
16.5188
16.3964
15.42
15.4279
16.2906
16.0423
16.5248
16.3737
15.1363
16.2038
16.4526
15.3917
14.9388
16.473
15.5198
15.5809
16.5045
16.3618
16.5122
16.5979
16.3338
15.9583
16.5751
15.8518
16.3622
15.6553
16.3205
16.3671
16.3075
15.3047
16.4167
16.4468
15.889
16.3697
15.8267
15.5804
16.024
16.1326
16.3041
16.5212
15.7936
16.4979
15.1262
16.4952
16.5084
15.2756
16.4824
16.389
14.7144
15.3355
16.3454
16.3062
16.5273
15.7689
15.3374
16.4374
16.4947
16.5102
16.2297
16.456
15.0964
16.5237
16.3714
15.3024
15.3237
14.6071
15.1305
16.5111
15.8362
16.439
16.3697
15.5845
15.5781
14.8909
14.8168
16.5441
16.5217
15.5499
16.4676
16.3118
15.2919
16.2953
16.1139
15.5279
15.9255
16.4653
15.6104
15.2154
16.411
16.5761
15.732
16.4355
16.241
15.5879
15.2723
16.038
15.4047
15.3325
16.3905
16.3425
15.9377
16.3749
16.4052
16.2904
16.5465
14.7787
16.02
15.2131
16.3669
16.4367
16.313
15.8523
16.3557
15.3911
16.3923
16.3509
15.6948
15.5178
14.9722
14.9326
15.7458
15.1007
15.9537
15.2439
15.9732
16.343
16.2801
16.0176
16.431
16.292
16.3393
16.3945
15.0818
15.9905
16.4561
16.5237
16.3081
16.5032
15.4845
16.435
16.2989
15.2527
16.2799
16.4924
16.2286
16.4697
16.4843
16.1756
14.7779
14.8091
16.3001
16.4761
16.163
16.4243
15.7712
15.882
15.3868
15.1015
14.9717
15.1924
16.3466
16.3827
16.5457
16.1685
15.9264
16.5115
15.2334
16.3837
16.4134
16.4726
16.2654
16.2883
16.5228
16.4662
16.4167
15.5406
15.9973
16.5412
16.2465
16.395
16.5163
16.4664
16.5162
16.3408
15.5647
16.2648
16.5378
16.3175
16.3963
15.2747
16.4816
16.4986
16.5173
16.5338
15.1475
14.9795
16.2777
16.2965
16.2129
16.3815
16.466
16.4258
16.4415
15.8213
16.274
16.281
16.4812
15.2333
15.3594
16.1514
16.4174
15.405
16.4905
15.3725
15.7223
16.3645
16.4113
15.9707
16.4783
16.331
16.4233
16.2879
16.3859
16.3659
15.7794
14.8271
16.4867
14.9809
15.1155
15.6553
15.0892
15.0562
15.8109
16.3939
15.0582
15.8171
14.7081
15.4339
16.239
16.5061
14.9155
15.3273
16.4615
15.1047
15.9307
16.3669
16.1062
16.3855
15.4854
15.2328
15.8249
16.4423
15.5363
15.3625
16.0947
15.7839
16.4009
16.3211
15.3814
16.4803
15.1675
15.4105
16.098
16.478
15.9382
15.9828
16.066
16.4159
14.9392
15.4961
16.2976
16.5053
16.2972
15.228
14.8242
15.9439
16.5146
16.3426
16.2581
15.9228
16.218
16.3519
15.1217
16.531
15.6456
15.3459
15.0299
16.4882
16.267
16.4857
16.148
16.5087
15.1056
15.9626
15.0093
14.9918
16.3645
15.3864
15.9677
16.3591
16.2996
15.2753
16.5027
16.4851
16.4688
16.1546
14.7772
16.3787
14.7526
16.4903
15.3092
16.4812
14.8227
16.4419
16.186
15.8628
15.9361
14.7789
15.6049
16.3131
16.4303
16.2756
16.5116
16.4895
15.215
16.4838
15.9331
16.4265
16.4154
16.528
16.3766
16.3054
16.5049
15.8368
15.5147
15.4765
16.3516
16.4691
15.4178
15.6539
16.3818
16.284
16.3034
16.5212
16.4113
16.1853
16.3642
16.4078
16.4016
16.1178
16.296
16.5218
16.4331
15.6879
16.2587
15.6972
16.5495
16.3993
16.4689
15.3689
15.3367
16.246
16.5172
16.4207
16.4653
16.5186
16.1193
16.2652
15.4035
16.1326
16.4007
16.364
16.5203
16.5336
15.9803
16.4888
15.5568
16.4084
15.7754
16.3615
15.8098
16.3951
16.1847
16.4639
15.2787
16.559
16.498
15.9681
15.256
16.5499
16.1856
16.3794
16.3574
16.405
16.2482
15.0295
16.5021
16.0324
16.3962
15.4999
15.6257
15.5271
15.0606
15.6899
16.4771
16.3297
15.0825
16.2902
15.2142
16.0762
16.4329
14.7942
15.2
15.7205
16.0637
16.3835
15.7765
16.4118
15.9115
15.7183
15.7085
16.4695
16.4639
16.5055
16.4318
16.4337
15.1058
15.1178
16.4785
16.0244
16.031
16.4184
16.5384
16.4003
16.3648
14.9783
16.4538
16.5437
15.9046
16.4317
16.455
16.3286
16.2584
16.3067
15.9105
15.3074
16.4269
15.263
15.139
15.9754
16.3607
16.4186
16.3654
16.3913
16.3572
14.9477
15.8159
16.5391
16.5461
15.2784
16.1343
15.341
16.1287
16.5066
15.8511
16.258
16.4206
16.0796
15.1655
16.4306
15.1636
16.4289
16.4216
16.3901
16.4648
16.3648
16.5142
15.1708
16.4628
16.5094
15.5068
16.4574
16.3617
15.9181
16.5261
16.162
16.492
16.5502
16.4628
16.4
16.5212
16.3882
16.2978
15.4558
16.1658
15.2342
15.0957
16.1133
16.4033
16.3465
16.5077
16.2962
16.478
14.9364
16.4742
16.5437
16.4173
16.3788
15.4123
14.9964
16.2669
15.0759
16.4251
16.3868
14.952
15.9286
16.5052
16.3181
14.8277
15.5483
14.8567
16.4769
15.3905
16.4362
16.05
15.1402
16.4109
16.4698
16.5251
16.4849
15.2872
16.2472
16.4578
15.3413
16.543
16.3543
16.4519
15.3071
16.316
15.907
16.325
15.986
16.2656
15.8061
15.8737
16.0926
15.9171
16.4808
16.2822
16.509
15.658
16.3341
16.342
16.5468
16.3238
15.4398
16.4324
15.3274
16.1627
16.5032
16.5066
16.2363
15.9879
16.3837
15.8394
16.282
16.0503
15.3269
15.1781
16.4504
16.5529
16.151
15.9329
16.5613
15.2073
16.332
15.4071
16.1416
16.5379
16.3567
15.0597
16.5142
15.1681
16.3647
16.3497
15.2123
16.4207
15.3347
15.7221
16.0199
14.993
15.5942
16.2029
14.8031
16.452
16.4635
15.0173
15.6463
16.5162
16.2771
16.3909
16.4787
16.4324
16.3389
15.5104
15.0155
14.8078
15.4881
16.4695
16.4057
16.2527
16.4045
15.2962
15.3448
16.3128
16.4595
14.7238
16.2395
16.3034
16.1511
16.4105
16.1527
16.5434
15.594
15.8936
16.4431
14.7032
16.3002
16.5193
16.5127
16.2307
16.4867
16.3141
15.2089
16.4928
16.5244
16.3383
16.3625
16.1846
16.3088
16.2965
16.2897
16.4311
16.3658
16.1867
15.282
15.8731
16.5552
16.4161
16.499
16.3466
16.326
16.4695
15.3358
16.4658
15.1185
16.5057
16.2955
15.8497
16.5355
15.8851
16.0069
16.5474
15.8375
16.4791
16.3748
16.4111
15.5051
16.3692
16.2706
15.6156
16.4874
16.3385
16.3195
16.5255
15.2023
16.3894
16.2979
16.4074
15.9033
16.4405
15.2621
15.4643
16.5575
15.277
16.4183
16.5206
15.3428
15.9744
16.5375
15.6004
15.5426
15.5416
15.7547
15.9044
16.5353
15.8399
16.4306
16.3842
16.4885
15.0897
15.7773
16.4342
16.3332
15.2626
15.427
15.8663
15.194
15.1467
16.3503
16.2885
16.5031
16.2351
16.5461
16.4287
16.4486
16.4732
16.3077
15.5983
16.1655
16.4056
16.3048
16.1906
16.4668
16.2954
15.1255
15.0193
15.9801
15.5626
16.2756
16.5042
16.1392
16.3175
16.5266
16.4609
16.5296
16.0071
15.31
16.2365
15.858
16.5255
16.1674
16.3805
16.4306
15.9008
15.9297
16.4462
16.5325
16.3864
16.5572
16.4155
16.213
16.2702
15.5604
15.9773
16.5104
15.6144
16.4735
16.2185
16.4787
15.533
16.5644
16.3741
16.513
16.2602
16.095
16.3105
16.4537
15.1891
15.3502
16.2883
15.858
16.0192
16.4377
16.3655
16.5253
16.2561
15.1726
15.5861
15.1565
16.1013
16.3693
15.4277
16.4849
16.3679
15.9282
16.2963
15.4143
15.4543
16.4708
15.3832
14.9192
15.7161
15.6739
15.4117
15.5365
16.5241
16.4513
15.7129
16.4302
16.5344
16.3467
16.3454
15.1179
16.5085
13.656
16.4779
15.349
15.0216
16.393
14.9503
15.9601
16.2035
16.4736
15.8097
16.35
15.8123
16.3278
16.198
16.2813
15.9455
16.4324
16.3217
15.3806
16.4265
16.2388
16.0102
15.8941
15.408
16.1012
15.2365
15.1815
16.3263
15.7731
15.1983
15.816
16.4135
16.4695
16.4703
14.0629
15.4073
16.5518
15.248
16.347
15.1485
16.4658
16.3431
16.5687
15.1404
16.0324
16.5031
16.4822
16.2317
16.5444
16.2996
16.224
16.2932
15.206
16.169
15.9289
16.3258
16.3757
15.7921
16.3052
16.4641
15.579
15.462
15.181
16.3905
16.4023
15.0444
16.3491
16.3218
16.3049
15.3908
16.39
15.8982
16.4932
15.286
15.9269
16.3282
14.9264
16.5017
15.4049
15.4481
16.2448
16.4974
14.8729
16.3807
16.4207
16.1111
15.0063
16.52
16.4736
15.0112
16.3483
14.8585
15.533
16.5205
16.0403
16.3664
16.485
16.5064
16.2407
15.6962
16.2559
15.9346
15.89
15.8571
16.4245
15.1904
16.1638
16.0912
15.9734
16.3172
16.3296
16.4593
16.2829
16.3513
16.4419
16.2695
15.8736
15.7725
16.3774
16.1788
16.2101
16.3945
16.4364
16.2726
16.4608
16.2437
16.4243
15.7186
15.2561
16.3131
16.4667
15.4519
16.3111
16.2067
14.6736
15.1563
16.4813
15.2393
16.1546
16.4599
16.2645
15.1855
16.288
16.4924
15.3211
15.5629
15.2633
16.4648
16.387
16.3124
16.5067
15.166
16.3972
16.2742
16.5045
16.473
13.9004
16.3231
16.3764
16.4442
16.1978
16.2618
15.6262
16.3949
16.4702
15.5178
15.069
15.8977
16.4036
16.3556
15.3263
15.9078
16.4514
16.4813
16.2877
15.9945
14.8817
15.1171
15.1568
16.2957
16.2986
15.9844
16.4322
16.4903
15.3397
16.5033
16.4571
16.4062
15.7507
16.4646
16.1818
15.2809
15.5862
16.2535
16.2766
16.1562
16.181
16.0671
16.4156
15.3118
15.2707
16.3125
16.4489
16.3979
15.9428
15.9497
16.4053
16.5266
16.3718
15.7254
16.4001
16.4433
16.253
16.5014
16.48
16.4022
15.0792
15.914
15.1397
16.2715
16.417
15.8645
15.2928
16.4882
15.3949
15.9322
15.5704
15.9753
15.2796
16.4098
16.3554
16.3159
16.084
15.6022
16.5418
15.2271
16.3017
16.064
16.3195
15.2532
16.4138
16.4592
15.152
15.568
16.0103
16.0172
16.2314
15.0592
16.4256
15.7979
16.3302
15.7191
15.912
15.883
15.1685
16.4276
15.8466
12.3787
15.321
16.0398
16.5059
16.4005
15.533
15.4971
16.3306
15.2483
16.4487
16.4707
16.2685
15.6496
16.4064
15.1379
15.3513
15.0511
16.4291
16.2746
15.7465
16.4275
16.1978
16.3713
15.1974
14.6697
16.4433
16.2604
16.4707
16.4911
15.2194
16.3734
16.1734
16.1505
16.3533
15.757
15.7816
16.5665
16.3788
15.8248
15.295
16.3096
16.2886
16.3573
15.9111
15.1748
15.4603
16.1518
16.2675
16.1519
16.5289
15.7532
16.4156
15.9067
16.1924
14.8471
16.4564
16.2226
16.0081
16.5055
16.3271
15.3854
15.9678
14.9492
16.521
16.0602
16.287
16.3136
16.3488
16.3241
16.5475
16.1921
12.306
15.2761
16.4706
13.2748
15.9924
16.4466
16.3687
16.4535
16.0516
15.4638
15.4374
16.5133
15.1171
16.4746
15.3893
14.8219
16.49
15.3558
16.4584
12.6535
15.1858
16.3093
16.4828
16.5151
16.2352
16.4531
16.3769
16.3915
16.377
16.3679
16.2631
16.2483
14.808
16.4014
16.2975
16.2304
16.4951
16.4471
16.4628
15.5831
16.4808
16.4653
15.591
15.4387
15.129
16.4635
16.3096
16.4726
16.5019
16.4316
16.3448
14.9202
16.311
15.9882
15.8523
16.3413
15.1942
15.1579
16.181
16.5203
16.4482
16.33
15.1569
16.2244
15.9263
15.2471
16.4824
16.3276
13.8074
14.6315
15.1086
15.2915
16.4703
16.3758
16.4076
15.6013
15.2623
16.41
16.5024
14.9175
16.4552
15.6349
16.5254
16.275
16.415
16.4089
16.4146
16.3926
16.3189
15.8764
15.3467
15.585
16.4322
15.9701
15.5365
16.266
16.3885
15.2214
15.9279
15.3657
16.452
16.2511
16.2303
14.4361
16.5275
16.4498
15.8982
16.3874
16.2134
16.2876
16.5203
16.1965
16.3346
16.5193
16.3327
15.2665
15.2861
16.4974
16.0694
15.3241
15.7005
16.4364
16.5699
16.4015
16.4316
16.4998
16.4223
16.3709
16.3003
16.1053
16.3805
15.4982
16.0444
16.3471
15.8687
15.548
15.4488
16.3855
16.6164
15.274
16.2541
16.4255
15.4558
16.5054
14.8177
15.3431
15.2994
16.5423
15.4023
15.0713
15.3848
15.9676
16.4056
15.2963
15.5756
16.129
16.2057
14.8254
16.3242
15.5199
15.4868
16.4504
15.5617
15.0859
16.4539
16.2166
15.764
15.2397
16.3353
15.7189
15.063
16.4766
16.2895
16.4207
16.0532
15.3841
15.1636
16.3131
15.913
16.4633
16.0738
16.4369
15.7516
16.2743
16.3071
16.4336
14.7807
15.4759
15.7155
16.5043
15.5065
16.3238
14.0541
15.4073
16.3498
15.8173
16.3639
15.2983
16.3379
16.3064
16.2496
15.4582
16.4033
16.525
15.8789
16.3313
16.1367
16.3831
15.4768
15.2064
16.3727
15.2786
14.7315
14.7939
15.8732
15.6833
14.8756
16.434
16.1312
15.0307
16.2288
16.5243
16.342
15.1456
16.4493
16.4352
15.165
16.036
16.2754
15.7079
16.2716
16.3117
16.368
15.1094
15.0165
16.3198
15.3633
15.303
14.6918
15.2744
16.2434
15.5362
16.4927
16.3624
16.3594
15.5399
16.4722
16.1188
16.1196
15.5821
12.5554
16.496
15.4365
16.0339
16.4115
16.4486
14.8387
16.4335
16.5708
15.3936
16.0794
16.0022
15.3345
15.2855
16.1777
15.7042
16.1809
16.5065
16.2653
16.4885
16.1673
16.0437
15.78
15.0912
15.4913
16.4387
15.1734
16.2626
15.8144
14.8877
15.7185
16.4607
15.1024
13.1071
15.7852
16.3895
16.4559
16.3731
12.6676
15.4236
16.4779
16.4038
16.4699
16.3068
15.1678
16.4945
15.1053
16.3717
15.7265
15.9898
16.2052
16.4399
15.2
16.0403
14.9186
16.1346
16.4437
16.4596
16.3464
15.4331
15.0563
16.2341
15.2245
16.001
14.8942
15.787
16.2997
16.4354
15.5971
16.4514
15.5316
16.5613
15.5194
16.4865
16.3388
16.3133
15.9801
15.3859
15.7286
16.555
15.8698
16.3077
16.3303
15.6159
16.1983
16.486
15.8558
16.0272
15.7436
15.7639
16.1522
16.4181
14.7633
16.5222
15.0354
16.2974
16.3963
15.1416
16.3203
16.3861
15.8405
16.034
15.9582
16.0242
14.8811
16.3806
14.9769
16.1755
13.5137
16.3777
15.3826
15.7146
16.0749
15.1042
15.7677
16.473
16.2869
16.1465
16.4677
15.4698
16.3842
15.3572
16.2048
15.9031
16.2299
16.3361
16.3755
14.9054
14.8555
16.4642
16.3367
16.405
14.9043
16.5288
16.5196
16.3738
16.4021
16.0356
15.298
16.2983
15.6604
15.9809
16.4476
16.2556
15.6848
16.3878
16.3114
16.321
15.6929
15.4023
15.2654
14.9239
16.518
16.3664
15.8083
16.4958
16.3737
15.3695
16.4883
15.096
15.516
15.2987
15.497
16.4711
16.3316
14.5099
16.4596
14.9587
16.378
16.306
16.3797
16.4308
16.2953
16.4233
15.7478
16.1584
16.1927
16.4621
15.0123
15.5558
16.1942
15.2493
15.6421
14.7239
15.8404
16.3584
15.8824
14.3606
14.4648
14.7602
15.7698
15.8668
16.0518
16.2077
16.3885
14.5921
16.0586
15.6992
15.9729
15.0406
16.0749
15.0855
14.2366
15.7415
15.6144
15.7559
15.4815
15.8329
15.9126
15.5301
16.3886
14.9717
16.3007
15.9798
16.2298
16.0715
15.1711
16.1167
16.2282
15.3502
15.9988
16.2407
16.4566
16.3475
15.9708
16.4047
16.3688
16.297
16.3851
15.3
16.4638
16.5085
16.3681
16.3866
16.424
16.3556
14.2031
15.2471
16.3957
15.9906
15.9246
16.4899
15.3662
15.4135
14.58
16.3371
15.8489
16.2485
16.4742
14.5058
16.4544
15.2008
16.4858
16.403
16.5132
16.5517
14.6342
16.391
16.4472
16.2284
14.4231
15.9808
15.6378
14.6282
16.3399
14.9441
16.2022
16.3991
15.806
16.2108
15.1341
15.0205
16.4794
16.3468
15.9647
16.0979
16.0478
16.2936
16.4241
16.4926
15.7643
12.8073
15.8996
14.936
15.7834
15.7595
16.5095
16.4468
15.6239
16.3274
15.2219
14.5773
16.1973
15.2217
16.3995
16.2866
14.9623
14.8443
16.0246
16.3769
16.2934
16.4332
16.1783
14.1509
14.5146
15.3877
15.4718
16.4858
14.8837
16.3132
16.2567
15.1033
15.1619
14.8143
16.427
14.8429
16.1099
15.4667
16.0279
16.3141
16.5268
15.3471
15.1105
16.1513
15.9555
15.3908
15.2459
15.5273
15.1697
15.442
14.7733
16.0581
16.0054
14.4971
16.3467
14.475
15.8104
15.2739
15.3291
15.1798
16.094
16.1154
16.0243
16.3063
15.2128
14.7216
16.0878
16.4366
15.0535
16.4279
16.3151
16.2216
15.3523
15.9143
16.3517
15.537
15.978
15.9729
16.1906
16.0034
15.5983
15.0669
16.4945
14.3394
14.0433
13.7864
16.2646
16.3579
15.625
15.0326
16.2563
14.3288
16.4153
15.9487
15.4347
15.8711
16.0927
16.5102
14.647
16.2706
16.4441
14.5
14.4117
15.7194
15.9079
14.8896
16.0767
15.6213
16.0913
15.9801
16.4157
15.5046
15.6923
16.1481
16.1915
16.1276
16.2199
15.8281
16.0725
15.0253
16.1407
15.7563
16.1621
13.9217
15.7338
13.6571
14.8101
16.353
16.1476
15.0939
15.4439
16.1918
14.6633
15.3387
16.4189
15.1278
15.2693
15.8858
15.383
15.6241
15.1051
16.1667
15.0338
13.88
16.0774
15.2751
14.8939
16.4307
14.3675
16.2046
16.3754
16.4104
14.7041
15.6917
14.83
16.1365
16.4904
15.8038
16.0111
13.1115
15.5851
15.9391
15.0001
16.2096
16.0392
15.7142
15.187
14.5724
15.2842
14.6236
14.5637
15.0292
15.8177
16.1369
14.3454
15.7406
15.292
15.5466
16.2425
15.9255
14.9288
16.1313
16.3016
16.4302
12.6855
16.4259
15.7869
16.204
14.8534
13.3656
16.1933
15.6157
14.3493
16.1652
15.3251
15.8923
15.9788
15.3883
15.2311
16.0828
15.588
15.5999
16.3004
15.5161
15.3882
15.5837
14.8021
15.3782
15.3817
16.145
16.1752
16.4412
15.583
16.4536
14.0265
15.2337
16.1932
15.6258
12.5158
15.994
15.6742
14.3942
13.7726
15.4702
16.2391
16.2099
16.0829
14.3202
16.3743
15.6926
16.4071
15.0088
15.6784
15.0765
15.5915
15.5125
15.7136
14.672
16.4794
16.0472
15.0153
15.7006
14.4371
15.6141
16.0155
16.3487
15.1071
15.5779
15.7433
15.0894
16.2071
15.8511
14.2574
16.435
16.4981
15.6372
16.3206
15.8848
13.745
16.3675
15.083
16.4131
16.4386
15.9386
16.3305
16.1098
15.8238
16.2911
15.3646
14.793
15.3804
16.4272
16.3154
15.408
16.0733
13.9311
15.2429
16.3724
15.826
14.8181
14.4919
16.4322
15.9009
14.2741
16.1626
14.0526
13.7712
16.1331
15.4524
16.2609
15.4473
15.1672
16.2815
15.5295
14.7132
15.2163
12.7597
15.6916
15.7488
15.3709
14.8062
16.1816
15.2953
16.1394
14.9258
13.0932
15.0472
14.9546
15.1798
16.3381
16.2202
15.9035
14.0312
15.1436
15.1418
14.5361
14.9655
15.5036
15.5437
15.3377
15.1552
13.752
14.5676
16.3178
16.4871
15.1783
16.2892
14.5867
14.7784
14.8729
15.447
15.5831
15.9904
15.6624
16.3104
16.3749
15.9872
16.1748
15.1765
16.2373
14.8994
15.441
16.3849
12.3101
15.5314
16.4722
14.9532
15.6348
15.8072
16.0342
15.6342
15.2687
16.1154
16.2848
15.5954
16.3241
15.8554
15.1035
14.7217
16.3757
15.4756
15.5604
14.8502
15.3557
15.5649
15.0549
15.9016
15.6348
15.8398
13.8115
16.0219
16.2277
13.6435
14.9518
16.3911
15.2647
15.6067
16.074
15.9455
16.4004
13.1661
16.4018
16.2697
14.6025
14.8688
13.8567
15.6041
14.8471
13.4573
16.4081
14.892
15.6688
13.9661
15.2972
14.9119
15.6238
15.9987
15.1756
15.4936
15.8195
15.7935
15.4246
15.091
15.2666
15.1304
14.811
15.4868
14.5551
15.1821
14.8069
15.1652
14.5775
16.1337
15.3948
15.835
14.9984
15.485
14.7839
14.8686
16.2121
16.3959
14.9661
16.3614
14.4471
16.2612
15.7627
16.4555
14.6925
16.0497
15.7454
15.5251
15.4149
14.5265
15.085
15.3118
15.4351
15.829
14.9526
14.8604
14.4942
14.8436
15.6318
15.9028
13.7308
16.4334
15.4859
15.1149
14.8262
14.765
15.1076
12.7843
15.9343
16.4437
15.8962
16.5094
16.4624
15.5977
16.2842
15.494
12.9172
16.2796
16.2939
16.2817
15.3932
14.5031
13.7074
15.5404
16.1029
15.6572
14.8254
15.3662
15.851
14.8673
15.474
15.1943
16.1635
16.3484
15.1194
14.348
15.1009
14.2948
16.3366
16.2912
16.4597
15.3373
14.5853
16.2942
15.6505
15.1103
15.6655
14.2287
14.5801
15.7897
15.1946
15.1279
16.2686
16.2312
14.0871
15.3542
15.5836
15.6584
14.7841
16.2873
15.2616
16.1673
15.2901
16.0911
14.788
14.0728
14.1103
16.0395
15.7136
15.7685
15.2821
14.8997
15.5651
15.5972
15.2309
16.272
14.5646
16.3515
15.6618
15.2816
14.0952
15.1114
16.3979
15.7129
14.5436
15.141
15.7433
16.2847
15.9671
15.8288
16.0062
16.0259
15.524
14.2316
12.3739
15.3945
15.1284
15.3604
14.9047
16.3815
14.3804
15.1118
14.7474
16.4091
16.1828
15.3621
14.7912
16.0347
15.9531
15.7621
15.8025
15.3874
13.3826
15.6803
15.4222
15.2474
14.1097
15.5445
13.9208
15.2788
15.7612
16.014
14.8743
15.7241
15.8576
15.4028
16.0353
15.0356
14.8659
14.9012
16.4888
16.3918
15.4281
15.5187
16.3746
13.7144
16.0415
14.9663
14.2881
16.2371
15.9773
16.4979
16.0938
15.1134
16.1782
15.834
14.7002
16.3296
15.337
14.6171
15.52
15.6357
14.7557
14.8999
14.5846
15.7208
14.2734
14.9208
16.0669
15.9606
16.1502
15.6442
14.8242
15.8279
15.9003
15.6928
15.293
15.6333
16.1098
15.7852
15.556
15.1648
16.2049
15.4876
15.5353
14.9779
12.9857
15.064
15.6373
14.4801
16.4896
14.4674
14.7058
15.614
14.9284
14.428
15.1573
13.7364
15.5688
15.3839
16.172
15.3372
14.4504
16.4868
15.8756
14.7868
13.7807
15.2376
15.6641
13.4561
16.1631
13.8053
13.3134
13.011
14.4385
14.2702
15.5792
12.5612
15.8831
14.5061
16.3623
16.4086
16.06
15.5183
14.9268
15.4815
14.3359
15.7608
13.1593
15.2061
16.2374
16.4058
15.7608
15.0101
15.505
15.4018
12.3846
15.7797
15.5444
14.2401
16.3488
16.0052
15.3706
15.7852
13.3555
15.8561
14.3981
14.7191
15.6845
15.7384
15.6498
15.8566
13.5047
15.0798
15.8603
15.0174
16.2205