/*--------------------------------*- C++ -*----------------------------------*\
| =========                 |                                                 |
| \\      /  F ield         | OpenFOAM: The Open Source CFD Toolbox           |
|  \\    /   O peration     | Version:  2212                                  |
|   \\  /    A nd           | Website:  www.openfoam.com                      |
|    \\/     M anipulation  |                                                 |
\*---------------------------------------------------------------------------*/
FoamFile
{
    version     2.0;
    format      ascii;
    arch        "LSB;label=32;scalar=64";
    class       volScalarField;
    location    "0.006";
    object      k;
}
// * * * * * * * * * * * * * * * * * * * * * * * * * * * * * * * * * * * * * //

dimensions      [0 2 -2 0 0 0 0];

internalField   nonuniform List<scalar> 
31639
(
0.129042
0.131252
0.134042
0.13714
0.124664
0.129082
0.12308
0.130241
0.128202
0.136644
0.136066
0.135324
0.133052
0.136554
0.129808
0.119899
0.12809
0.121755
0.117716
0.132012
0.111994
0.130726
0.136417
0.118804
0.118625
0.127373
0.132761
0.115037
0.12351
0.135348
0.136372
0.121632
0.136381
0.118519
0.113169
0.135795
0.106939
0.136949
0.136572
0.105431
0.114042
0.11214
0.13634
0.132918
0.13527
0.136856
0.128912
0.121327
0.128407
0.136807
0.135751
0.104375
0.136519
0.109882
0.12036
0.128227
0.109743
0.131925
0.131807
0.108505
0.125848
0.129606
0.116725
0.130721
0.128039
0.135962
0.125823
0.132279
0.11637
0.136508
0.137405
0.124367
0.13483
0.131685
0.136938
0.112543
0.136752
0.122726
0.130748
0.13294
0.118376
0.106221
0.138087
0.13352
0.133459
0.136692
0.136608
0.137493
0.109968
0.138362
0.133665
0.122762
0.110314
0.130551
0.11485
0.128764
0.124353
0.132434
0.132592
0.112074
0.13761
0.136356
0.130412
0.108227
0.110678
0.136528
0.108872
0.105972
0.116556
0.110854
0.133057
0.112423
0.130491
0.120117
0.132447
0.10849
0.123415
0.122792
0.136673
0.13098
0.130203
0.134933
0.133736
0.127278
0.126155
0.13586
0.130975
0.117297
0.116732
0.135958
0.136111
0.133615
0.134728
0.12232
0.130492
0.133113
0.108902
0.109828
0.135142
0.132279
0.131097
0.135197
0.136618
0.107288
0.107252
0.136621
0.134388
0.111271
0.111677
0.136521
0.113892
0.131971
0.117541
0.130341
0.111046
0.136435
0.12301
0.115806
0.111184
0.118201
0.13666
0.112176
0.11477
0.109586
0.112507
0.127971
0.112749
0.135846
0.135275
0.107078
0.123241
0.128911
0.112138
0.133226
0.137328
0.134141
0.133291
0.136242
0.133464
0.132608
0.131119
0.120752
0.128366
0.10692
0.128164
0.13695
0.126372
0.13572
0.111337
0.109129
0.135234
0.130703
0.127891
0.131281
0.131193
0.119722
0.120747
0.135173
0.107777
0.121476
0.134465
0.136704
0.130925
0.131685
0.125175
0.131368
0.129115
0.131193
0.135295
0.106001
0.131004
0.121964
0.13261
0.131924
0.127847
0.135525
0.113495
0.121629
0.136408
0.13466
0.13491
0.124539
0.10804
0.133474
0.109451
0.126856
0.136348
0.118806
0.111693
0.129519
0.130125
0.136891
0.111962
0.109916
0.126869
0.127182
0.108717
0.133249
0.116169
0.107502
0.131
0.12668
0.129242
0.119412
0.117431
0.128022
0.130166
0.127441
0.110383
0.13091
0.127325
0.11273
0.119441
0.136216
0.134846
0.121151
0.113675
0.13498
0.133164
0.121998
0.136881
0.136504
0.131245
0.136345
0.129768
0.125565
0.109828
0.118813
0.133101
0.1289
0.129847
0.119162
0.12469
0.133077
0.1363
0.132093
0.110994
0.120882
0.115182
0.135209
0.123523
0.13661
0.135871
0.120374
0.112036
0.117205
0.110578
0.109259
0.135163
0.113371
0.135274
0.129042
0.119667
0.115494
0.136175
0.121137
0.117716
0.13116
0.124657
0.117976
0.130304
0.111826
0.131571
0.130573
0.111866
0.122738
0.129926
0.103569
0.107887
0.135433
0.137561
0.1358
0.110495
0.114589
0.134918
0.115499
0.11678
0.136282
0.13642
0.129227
0.136025
0.136868
0.111874
0.138547
0.10712
0.109807
0.135757
0.133578
0.134928
0.135576
0.128186
0.114235
0.128445
0.130386
0.136194
0.136449
0.137145
0.130207
0.126663
0.133038
0.135135
0.126806
0.126407
0.123145
0.130834
0.121129
0.132735
0.127436
0.112038
0.130877
0.139039
0.12012
0.134577
0.133488
0.130626
0.110952
0.130946
0.130194
0.109915
0.13675
0.11183
0.124304
0.136777
0.107367
0.131981
0.130727
0.110929
0.12482
0.112277
0.120956
0.135722
0.128454
0.107535
0.128564
0.113929
0.128698
0.135387
0.136023
0.13779
0.113597
0.132709
0.110946
0.129596
0.108059
0.135033
0.135629
0.137038
0.136295
0.118229
0.132087
0.131764
0.133578
0.130894
0.113124
0.124422
0.126638
0.131357
0.129475
0.126699
0.129234
0.121548
0.111501
0.126334
0.133159
0.134684
0.107151
0.136172
0.134747
0.130289
0.132542
0.134329
0.122833
0.135074
0.113802
0.127933
0.134995
0.108967
0.126015
0.134117
0.113277
0.107056
0.11103
0.12307
0.111666
0.132538
0.132246
0.121246
0.135832
0.112903
0.135597
0.136711
0.131184
0.127517
0.122894
0.136511
0.131371
0.126328
0.135886
0.132805
0.109522
0.131664
0.135985
0.136543
0.129196
0.136578
0.12785
0.127112
0.132485
0.135373
0.135054
0.111751
0.131567
0.10505
0.123089
0.129454
0.110956
0.110254
0.122105
0.127825
0.132072
0.108902
0.128583
0.119504
0.130441
0.129516
0.109462
0.130282
0.108429
0.129161
0.136086
0.138063
0.13385
0.122266
0.110943
0.128324
0.131219
0.135819
0.109309
0.110332
0.130014
0.111636
0.113688
0.127417
0.10927
0.121274
0.112627
0.128019
0.111633
0.136158
0.135485
0.136542
0.134475
0.119184
0.136932
0.136766
0.126745
0.129991
0.132867
0.137092
0.135731
0.120089
0.134036
0.1375
0.130742
0.114498
0.136741
0.132066
0.104898
0.10929
0.132282
0.137393
0.136078
0.127717
0.135261
0.134818
0.135573
0.132938
0.121978
0.125566
0.113696
0.130096
0.128302
0.136455
0.116279
0.115391
0.113084
0.125842
0.129942
0.103843
0.129287
0.119598
0.126523
0.121683
0.132444
0.124717
0.11236
0.133115
0.134
0.114231
0.128596
0.137284
0.132832
0.130144
0.116615
0.114764
0.131681
0.132142
0.112979
0.110011
0.132511
0.120737
0.128481
0.117147
0.122505
0.13669
0.130781
0.110639
0.118787
0.132096
0.13616
0.110849
0.104207
0.135234
0.109433
0.133945
0.135389
0.111501
0.132281
0.133037
0.126164
0.111831
0.137478
0.125684
0.112317
0.137511
0.133295
0.128111
0.132968
0.10527
0.116294
0.129647
0.120435
0.118753
0.126609
0.13402
0.136968
0.132509
0.132546
0.135154
0.126144
0.119488
0.133834
0.135373
0.139663
0.117571
0.1326
0.125527
0.138338
0.113566
0.106519
0.135853
0.114542
0.136376
0.128645
0.109371
0.120901
0.136247
0.125153
0.130277
0.108603
0.131505
0.124672
0.108324
0.136209
0.13498
0.114346
0.113043
0.114046
0.123338
0.131978
0.132148
0.130915
0.131372
0.135299
0.132301
0.131021
0.113468
0.135613
0.110456
0.131622
0.123883
0.122881
0.139424
0.130553
0.116193
0.106792
0.112264
0.122698
0.13614
0.113908
0.135894
0.123626
0.135476
0.110913
0.12878
0.133867
0.136487
0.136063
0.134289
0.133585
0.125481
0.137365
0.136632
0.1372
0.118086
0.132595
0.110934
0.137651
0.132209
0.130526
0.114095
0.12845
0.106626
0.13419
0.125431
0.135709
0.130342
0.12755
0.111632
0.136233
0.107723
0.106814
0.114712
0.117174
0.109962
0.131452
0.1091
0.131563
0.126538
0.105118
0.136423
0.112281
0.116423
0.128914
0.118293
0.130729
0.134612
0.136626
0.135274
0.118584
0.130674
0.120455
0.122503
0.10585
0.0977451
0.13613
0.13086
0.128619
0.135972
0.109802
0.136966
0.136781
0.134639
0.134762
0.13464
0.133796
0.136857
0.13643
0.131657
0.136003
0.130558
0.111604
0.136143
0.121053
0.134761
0.127989
0.131527
0.116903
0.136547
0.129719
0.130816
0.124377
0.114304
0.136284
0.125486
0.119345
0.111079
0.135021
0.105317
0.134263
0.130446
0.127485
0.133681
0.136375
0.133821
0.110379
0.130295
0.125759
0.132928
0.112065
0.133321
0.129219
0.12735
0.131691
0.124753
0.127157
0.122317
0.122469
0.106344
0.135236
0.127157
0.136288
0.116842
0.131345
0.133294
0.130478
0.118404
0.13162
0.135409
0.130834
0.105586
0.108323
0.129852
0.106611
0.111654
0.133434
0.133843
0.134581
0.104738
0.130248
0.135471
0.11021
0.106353
0.1301
0.112768
0.128328
0.116256
0.136437
0.119809
0.118653
0.13556
0.107415
0.129421
0.129626
0.135046
0.136348
0.135565
0.113854
0.13455
0.135421
0.122219
0.136082
0.134648
0.129169
0.135731
0.131827
0.13724
0.1366
0.136347
0.133706
0.123122
0.131899
0.131151
0.111899
0.128345
0.133399
0.135721
0.136237
0.129344
0.137633
0.134918
0.127222
0.130215
0.136618
0.130888
0.129548
0.111973
0.120991
0.138343
0.106108
0.125506
0.129942
0.121687
0.129061
0.135414
0.12804
0.135231
0.126833
0.129564
0.124374
0.135083
0.132044
0.122033
0.112867
0.136094
0.113374
0.128514
0.121549
0.128889
0.124972
0.137636
0.11251
0.137982
0.114498
0.132853
0.122327
0.130816
0.130958
0.134917
0.111881
0.134888
0.135925
0.133537
0.133157
0.129
0.107658
0.137295
0.136432
0.13287
0.135042
0.136754
0.131478
0.126096
0.133154
0.110263
0.122577
0.136166
0.111233
0.117472
0.137983
0.136918
0.117339
0.120177
0.133433
0.118054
0.129357
0.112879
0.133403
0.133428
0.105651
0.126157
0.136272
0.130116
0.133553
0.128917
0.135401
0.114091
0.113109
0.137949
0.136777
0.130292
0.112301
0.12853
0.137876
0.11643
0.136607
0.131453
0.133145
0.127091
0.133998
0.133001
0.132102
0.129739
0.117895
0.108316
0.12557
0.132898
0.112031
0.13545
0.107779
0.129005
0.121447
0.111215
0.129879
0.117669
0.13238
0.125557
0.131417
0.111195
0.11193
0.121789
0.111322
0.128557
0.13626
0.129994
0.13736
0.124412
0.131272
0.137559
0.121789
0.125984
0.130868
0.130518
0.128471
0.114607
0.1321
0.134096
0.136642
0.138553
0.112871
0.10809
0.129881
0.136397
0.115441
0.128951
0.126944
0.130929
0.137987
0.120958
0.129404
0.129175
0.11084
0.136568
0.133589
0.111033
0.117155
0.130554
0.12048
0.136623
0.13675
0.12717
0.1124
0.137133
0.108274
0.129941
0.133309
0.120531
0.136306
0.109425
0.130934
0.128267
0.130376
0.110465
0.107817
0.134282
0.137163
0.120996
0.134764
0.133684
0.130799
0.112387
0.116332
0.134018
0.123504
0.131339
0.136794
0.135934
0.136972
0.13527
0.126166
0.126217
0.135223
0.113265
0.132446
0.134148
0.132765
0.133409
0.137649
0.124414
0.13506
0.13042
0.107567
0.137496
0.119657
0.137055
0.120703
0.13618
0.111857
0.133495
0.1376
0.129281
0.132897
0.11166
0.136146
0.137474
0.132319
0.10872
0.14092
0.123668
0.133137
0.134441
0.135349
0.134918
0.129677
0.123209
0.137408
0.112999
0.114209
0.112882
0.115263
0.133865
0.10973
0.136883
0.136738
0.134281
0.129447
0.123264
0.132513
0.137796
0.131747
0.127456
0.137196
0.133135
0.12414
0.135411
0.130838
0.130721
0.131515
0.120974
0.135412
0.138468
0.135919
0.135968
0.134505
0.119767
0.139493
0.127215
0.128841
0.130683
0.13406
0.139335
0.132461
0.134938
0.118087
0.130688
0.127282
0.113839
0.111446
0.130844
0.123139
0.135646
0.120242
0.105154
0.127466
0.135643
0.118756
0.120673
0.13214
0.136921
0.136119
0.128732
0.117206
0.131659
0.130253
0.121725
0.128802
0.131304
0.110292
0.122455
0.119711
0.12876
0.136448
0.130831
0.135212
0.130816
0.132787
0.128945
0.110273
0.112638
0.10966
0.133904
0.132402
0.136947
0.140292
0.130871
0.109319
0.134223
0.123068
0.127872
0.128855
0.134991
0.107448
0.137623
0.11057
0.132028
0.127004
0.125565
0.137037
0.130472
0.133697
0.111934
0.131288
0.12753
0.130219
0.115949
0.116464
0.133947
0.134599
0.126567
0.133397
0.137521
0.111697
0.122704
0.122437
0.116043
0.132839
0.136191
0.137144
0.134846
0.136562
0.114199
0.113988
0.112251
0.139097
0.113393
0.134002
0.125648
0.112609
0.122113
0.136113
0.136542
0.118203
0.121857
0.129227
0.132233
0.13661
0.126265
0.111372
0.132377
0.135468
0.134914
0.135245
0.135818
0.139709
0.136351
0.130461
0.114378
0.111736
0.131055
0.116335
0.136522
0.112635
0.133211
0.12236
0.135318
0.11559
0.129066
0.136168
0.133546
0.122026
0.113421
0.136013
0.122738
0.134626
0.125602
0.140984
0.136816
0.13295
0.112668
0.11154
0.130172
0.126138
0.120732
0.137337
0.112903
0.135375
0.131408
0.121193
0.13413
0.137102
0.135174
0.136327
0.138834
0.133542
0.126216
0.110224
0.117413
0.135102
0.114131
0.128415
0.130087
0.115987
0.130899
0.132689
0.130585
0.133974
0.136355
0.113849
0.130682
0.132543
0.11267
0.120517
0.129873
0.122383
0.130285
0.112685
0.111166
0.131177
0.120562
0.136472
0.137346
0.134994
0.129166
0.129558
0.131474
0.127653
0.134631
0.114608
0.131851
0.121996
0.136014
0.129382
0.122908
0.125645
0.136015
0.113263
0.131846
0.135896
0.12932
0.100663
0.123366
0.11395
0.128131
0.108847
0.138358
0.136835
0.135848
0.134222
0.115009
0.110673
0.136139
0.138147
0.135127
0.131536
0.126783
0.135492
0.138339
0.134915
0.110973
0.124886
0.132597
0.134255
0.123475
0.131882
0.109152
0.135544
0.135503
0.126489
0.132832
0.129235
0.132205
0.136785
0.134648
0.115205
0.131582
0.133978
0.130638
0.126089
0.129004
0.109751
0.112319
0.136141
0.135964
0.135462
0.135943
0.133193
0.133743
0.126595
0.13244
0.133929
0.136514
0.121774
0.12314
0.127918
0.132296
0.136367
0.108607
0.126005
0.106711
0.136159
0.108025
0.112575
0.130788
0.10366
0.124225
0.132191
0.136429
0.135107
0.117881
0.127195
0.137209
0.118191
0.115325
0.124564
0.117421
0.135989
0.13305
0.125737
0.111752
0.132827
0.139085
0.135414
0.111176
0.115678
0.130391
0.136063
0.135563
0.113404
0.112501
0.130009
0.125584
0.137378
0.130732
0.108883
0.128548
0.13543
0.112491
0.107253
0.136409
0.115217
0.115611
0.13783
0.134117
0.13429
0.138922
0.130339
0.12355
0.136641
0.1198
0.133936
0.118485
0.12997
0.132928
0.130275
0.111466
0.134787
0.134738
0.121532
0.13155
0.122246
0.116294
0.125254
0.126222
0.130005
0.136788
0.120145
0.135406
0.109977
0.134585
0.136867
0.111651
0.133758
0.132752
0.103151
0.111922
0.132902
0.130678
0.135607
0.119372
0.112806
0.135596
0.136495
0.136084
0.127342
0.1355
0.109138
0.137368
0.131711
0.112006
0.111887
0.102847
0.10979
0.137106
0.121069
0.134121
0.131812
0.115499
0.11628
0.105968
0.105446
0.138763
0.137508
0.115327
0.135837
0.129897
0.113323
0.129406
0.125258
0.11549
0.122371
0.135529
0.11617
0.109752
0.13437
0.138677
0.11777
0.135382
0.125809
0.116142
0.11228
0.125747
0.113187
0.112416
0.133203
0.133271
0.122691
0.132997
0.135067
0.130223
0.136923
0.103151
0.125207
0.110757
0.131944
0.135427
0.13094
0.119771
0.131546
0.112826
0.1344
0.130556
0.118825
0.114219
0.106658
0.106519
0.119733
0.109815
0.123623
0.110982
0.12304
0.133397
0.129164
0.123104
0.133472
0.129678
0.131733
0.133989
0.109277
0.124863
0.136151
0.13642
0.130017
0.137682
0.115077
0.134024
0.130822
0.110593
0.129519
0.136724
0.128754
0.135007
0.136006
0.127908
0.104362
0.104913
0.129975
0.137065
0.127743
0.135054
0.120254
0.12261
0.114101
0.109125
0.107611
0.109737
0.131683
0.133749
0.137251
0.127048
0.122127
0.136299
0.109865
0.132152
0.135046
0.136738
0.127837
0.128208
0.136273
0.1393
0.135353
0.117985
0.124136
0.134875
0.128711
0.132614
0.13871
0.133949
0.137447
0.132158
0.116946
0.131532
0.134647
0.131406
0.132931
0.11061
0.13536
0.135845
0.137061
0.135669
0.109713
0.106878
0.129988
0.1308
0.125157
0.132665
0.135159
0.134577
0.134497
0.120372
0.129509
0.130978
0.1342
0.111852
0.112344
0.126706
0.13169
0.1134
0.137344
0.112795
0.119664
0.132406
0.134206
0.122207
0.135575
0.132209
0.134501
0.128292
0.13082
0.132644
0.120691
0.105807
0.136437
0.106627
0.109783
0.117652
0.108895
0.108514
0.120756
0.1329
0.109497
0.120579
0.102236
0.11408
0.129728
0.13689
0.106698
0.112035
0.135302
0.108555
0.122169
0.132432
0.126631
0.132228
0.114243
0.110842
0.120776
0.135633
0.116309
0.112802
0.125675
0.120511
0.132561
0.130619
0.11315
0.135294
0.109887
0.112605
0.124104
0.134393
0.119982
0.123518
0.124944
0.132157
0.10696
0.116042
0.129972
0.136599
0.132927
0.109754
0.105515
0.123307
0.136903
0.130909
0.130722
0.121806
0.127515
0.13134
0.110072
0.136897
0.118105
0.111641
0.107352
0.136192
0.130256
0.13669
0.126009
0.135871
0.108998
0.124911
0.107378
0.106872
0.131861
0.113299
0.123322
0.13252
0.133201
0.112082
0.137065
0.135689
0.136829
0.128146
0.10364
0.132723
0.104823
0.136635
0.111777
0.135861
0.105083
0.133652
0.130073
0.120692
0.122028
0.103885
0.117019
0.131614
0.134836
0.128317
0.13686
0.136445
0.110657
0.136526
0.123658
0.133721
0.132975
0.136382
0.131021
0.13168
0.136053
0.121647
0.115563
0.114885
0.13305
0.137374
0.113854
0.116793
0.134353
0.12994
0.131742
0.139822
0.134694
0.127725
0.132472
0.134661
0.135209
0.128877
0.128086
0.136047
0.132542
0.117835
0.129886
0.118171
0.138311
0.133035
0.135711
0.112671
0.112807
0.131459
0.135591
0.134564
0.135811
0.137787
0.126626
0.128418
0.113267
0.124681
0.133077
0.134474
0.137224
0.137065
0.123024
0.136394
0.114689
0.134526
0.118988
0.130581
0.120494
0.132237
0.127296
0.135846
0.11223
0.137145
0.13631
0.122758
0.11209
0.140021
0.128578
0.135571
0.13182
0.132908
0.13013
0.109071
0.136416
0.123607
0.132978
0.114753
0.116388
0.116148
0.108202
0.118054
0.136786
0.131137
0.108554
0.130385
0.110641
0.125838
0.133259
0.104808
0.110403
0.118466
0.125079
0.131238
0.11958
0.134581
0.122467
0.11824
0.11824
0.135905
0.136477
0.136562
0.134685
0.132948
0.110208
0.109368
0.135452
0.121579
0.12496
0.136009
0.139096
0.131648
0.13234
0.10737
0.135201
0.137516
0.121528
0.135633
0.135202
0.132175
0.128826
0.130464
0.121025
0.110092
0.132617
0.111839
0.109567
0.124369
0.131691
0.132371
0.133109
0.132391
0.13253
0.106337
0.12061
0.136975
0.137403
0.110952
0.12489
0.113135
0.127686
0.136553
0.122035
0.128473
0.135579
0.126223
0.109515
0.135684
0.109873
0.13479
0.134081
0.13394
0.136486
0.133727
0.135964
0.110009
0.136006
0.136733
0.11474
0.134777
0.131231
0.123133
0.136059
0.124736
0.134941
0.136892
0.136044
0.132792
0.136258
0.131901
0.129752
0.115077
0.126763
0.11154
0.108233
0.125238
0.13428
0.131259
0.137273
0.12997
0.136111
0.107318
0.136659
0.137745
0.134942
0.134246
0.114095
0.10828
0.131239
0.108293
0.134477
0.132378
0.106529
0.122252
0.135526
0.132723
0.105435
0.116479
0.105938
0.136511
0.111351
0.13443
0.12529
0.110953
0.133589
0.135427
0.138113
0.134781
0.111495
0.128078
0.137312
0.113339
0.136123
0.132134
0.134148
0.110095
0.133672
0.122347
0.130361
0.122414
0.129698
0.120385
0.121592
0.123489
0.121127
0.133794
0.130472
0.136152
0.117071
0.130764
0.13303
0.135664
0.134235
0.112609
0.134386
0.111923
0.128638
0.137741
0.137301
0.125822
0.123942
0.133422
0.120505
0.129753
0.124752
0.112245
0.109966
0.133621
0.137195
0.1267
0.121875
0.137333
0.110832
0.134005
0.112342
0.12762
0.13709
0.131749
0.109227
0.136652
0.110689
0.133989
0.132175
0.109897
0.135355
0.113678
0.119223
0.123412
0.106916
0.117076
0.127198
0.105072
0.133867
0.138075
0.107361
0.117748
0.135924
0.130366
0.133341
0.137675
0.134835
0.130834
0.115429
0.10926
0.104761
0.116111
0.136791
0.134138
0.128321
0.132246
0.111211
0.111574
0.130055
0.134019
0.104248
0.131733
0.131874
0.124643
0.134504
0.127966
0.136707
0.11646
0.122762
0.138114
0.103235
0.130812
0.136588
0.136701
0.128466
0.135438
0.133136
0.110017
0.13748
0.136935
0.1307
0.133157
0.128243
0.130913
0.13386
0.129711
0.132952
0.131752
0.128585
0.110397
0.121929
0.137699
0.133311
0.137575
0.133038
0.126951
0.13689
0.113251
0.135826
0.110291
0.136508
0.129566
0.1207
0.13603
0.120374
0.123465
0.137299
0.121369
0.137245
0.136034
0.133381
0.113475
0.132458
0.130751
0.117289
0.13633
0.129329
0.130599
0.13832
0.110487
0.134472
0.132205
0.134929
0.121778
0.131961
0.111095
0.114396
0.141097
0.111569
0.133012
0.13619
0.112222
0.12341
0.137214
0.116736
0.115333
0.115871
0.121063
0.121446
0.13927
0.121892
0.136893
0.131842
0.136559
0.109721
0.119436
0.135061
0.131573
0.111321
0.114256
0.122774
0.112222
0.109867
0.131106
0.129531
0.1363
0.128796
0.136415
0.134536
0.132095
0.135214
0.130111
0.117468
0.126536
0.134385
0.129904
0.127297
0.136277
0.13064
0.109137
0.108504
0.123432
0.116703
0.1286
0.13608
0.125664
0.132347
0.135806
0.13489
0.137349
0.124764
0.112812
0.127183
0.121843
0.13671
0.126005
0.133495
0.135462
0.121293
0.121986
0.134016
0.136269
0.134205
0.140108
0.131876
0.124362
0.126072
0.116512
0.123067
0.136448
0.116288
0.13569
0.128252
0.135925
0.114554
0.134983
0.132834
0.13642
0.131456
0.126801
0.131627
0.135584
0.11004
0.113586
0.13097
0.120128
0.12524
0.132392
0.132257
0.137073
0.128865
0.109764
0.116964
0.110638
0.125942
0.132031
0.114032
0.137916
0.131186
0.121774
0.129839
0.11436
0.114125
0.137719
0.113204
0.10656
0.11964
0.119924
0.114339
0.115542
0.137057
0.135079
0.118389
0.134307
0.135977
0.131511
0.1328
0.108353
0.136784
0.0927654
0.135523
0.11232
0.10825
0.134887
0.107983
0.123543
0.128061
0.136642
0.120651
0.131065
0.120396
0.130858
0.128711
0.128203
0.124049
0.133494
0.129886
0.11275
0.134417
0.12906
0.124306
0.123578
0.113888
0.124128
0.110206
0.109731
0.132163
0.120901
0.111804
0.120337
0.133829
0.135534
0.132893
0.0969418
0.111503
0.137594
0.111228
0.13289
0.10916
0.136084
0.134359
0.137622
0.110803
0.125066
0.137062
0.136707
0.128087
0.137796
0.130138
0.128224
0.130281
0.110473
0.128196
0.120188
0.132086
0.131437
0.119416
0.128817
0.135686
0.116935
0.11443
0.110788
0.133125
0.133482
0.108917
0.131738
0.13135
0.129483
0.112993
0.132885
0.121889
0.134451
0.112723
0.122688
0.130842
0.106293
0.135705
0.113215
0.114461
0.128292
0.136894
0.105692
0.133511
0.134649
0.127576
0.107497
0.136455
0.136053
0.106382
0.131115
0.104807
0.114808
0.13623
0.123355
0.129862
0.136071
0.136798
0.12747
0.118772
0.130444
0.123901
0.123716
0.120361
0.134085
0.110417
0.128822
0.123986
0.123225
0.134722
0.129167
0.133858
0.130327
0.131135
0.136348
0.129448
0.122773
0.118817
0.133123
0.127426
0.127241
0.132707
0.135648
0.129179
0.13732
0.127985
0.134115
0.118494
0.111669
0.13109
0.133803
0.113713
0.129151
0.13066
0.103746
0.109298
0.135783
0.110416
0.129374
0.135752
0.128861
0.111065
0.12972
0.135639
0.111544
0.114066
0.112703
0.134917
0.131749
0.131984
0.139243
0.109981
0.133507
0.131055
0.136235
0.13734
0.0953991
0.130871
0.131749
0.134492
0.127977
0.128165
0.117846
0.133841
0.136268
0.11615
0.108512
0.121283
0.134359
0.132707
0.111324
0.122261
0.13418
0.136087
0.129867
0.122413
0.106467
0.110579
0.110984
0.132619
0.12891
0.124917
0.135308
0.135763
0.113198
0.135437
0.134859
0.133838
0.119422
0.135501
0.125756
0.111845
0.116877
0.12919
0.13123
0.125833
0.127713
0.124101
0.134384
0.111826
0.111324
0.129841
0.135399
0.133431
0.122831
0.122142
0.134866
0.137593
0.128329
0.119319
0.13431
0.135524
0.129865
0.136001
0.13583
0.132105
0.109095
0.120732
0.109494
0.129604
0.136351
0.121068
0.110703
0.136816
0.113421
0.121339
0.115662
0.124131
0.11109
0.133236
0.131359
0.129439
0.125767
0.115396
0.137301
0.112606
0.129316
0.125647
0.130041
0.111732
0.135284
0.133782
0.109645
0.116463
0.124876
0.122095
0.129201
0.108261
0.133814
0.120942
0.131076
0.118831
0.120214
0.120539
0.110127
0.134631
0.121884
0.0774575
0.111153
0.125236
0.135921
0.133722
0.115141
0.115908
0.132868
0.110075
0.134927
0.13605
0.127318
0.114746
0.134073
0.109459
0.111385
0.108532
0.1335
0.130556
0.119768
0.134972
0.128688
0.131851
0.112255
0.102788
0.135835
0.130551
0.13644
0.135737
0.111115
0.131411
0.12547
0.127933
0.131181
0.119507
0.120296
0.140622
0.13302
0.120173
0.112213
0.128757
0.131023
0.13052
0.121968
0.109613
0.113013
0.127794
0.12975
0.127233
0.136264
0.119344
0.133109
0.122538
0.130074
0.105785
0.136706
0.128008
0.125816
0.137796
0.130827
0.114733
0.123842
0.106807
0.134915
0.125818
0.131454
0.129945
0.131954
0.131377
0.136943
0.127419
0.0777957
0.111727
0.135874
0.0876659
0.122601
0.135395
0.132619
0.135583
0.125112
0.114485
0.114748
0.137884
0.108608
0.135956
0.112306
0.105478
0.134561
0.11322
0.135418
0.0803001
0.108374
0.129814
0.135955
0.136371
0.12695
0.134838
0.132616
0.132847
0.133626
0.13314
0.129286
0.130024
0.105048
0.134996
0.13029
0.128006
0.136673
0.134053
0.135138
0.115994
0.136226
0.133761
0.117734
0.114307
0.109139
0.134351
0.131598
0.135434
0.135882
0.13445
0.132087
0.106507
0.13003
0.122669
0.121591
0.131851
0.110705
0.109917
0.12729
0.139194
0.132082
0.1302
0.111163
0.127435
0.122868
0.111678
0.136231
0.129947
0.0937487
0.102942
0.109421
0.112232
0.13555
0.13367
0.133981
0.116821
0.111546
0.134693
0.136428
0.106619
0.135833
0.116876
0.137325
0.130061
0.134077
0.134568
0.131453
0.132717
0.131765
0.122202
0.112816
0.117367
0.133781
0.123621
0.11371
0.131245
0.133003
0.110067
0.122856
0.113549
0.135578
0.129076
0.130918
0.100774
0.136749
0.135489
0.123089
0.13366
0.127661
0.130372
0.13608
0.125767
0.131949
0.137495
0.131754
0.111799
0.111475
0.137353
0.127082
0.111827
0.118552
0.134463
0.137242
0.135192
0.135963
0.135792
0.134276
0.132911
0.130586
0.126107
0.134055
0.116804
0.125058
0.133804
0.120926
0.116961
0.113577
0.132749
0.136602
0.112245
0.130165
0.134402
0.114457
0.136085
0.105032
0.112319
0.112926
0.139154
0.113431
0.109477
0.1137
0.123816
0.132696
0.112995
0.116868
0.124224
0.128335
0.104878
0.130431
0.113759
0.114766
0.134141
0.115778
0.109415
0.134966
0.130541
0.120089
0.11092
0.130229
0.119423
0.108061
0.136516
0.132184
0.134533
0.125698
0.112968
0.110345
0.130469
0.123391
0.136464
0.124464
0.135468
0.117594
0.129794
0.131325
0.135498
0.106191
0.115552
0.119369
0.135562
0.11488
0.130755
0.095975
0.11492
0.132918
0.120998
0.132654
0.112639
0.130806
0.130901
0.129456
0.112632
0.132496
0.139462
0.123455
0.132418
0.128418
0.133338
0.114487
0.110973
0.132897
0.110999
0.104787
0.105468
0.122857
0.118277
0.105078
0.134916
0.126131
0.107246
0.130121
0.13628
0.133513
0.109536
0.136451
0.134891
0.11005
0.124354
0.129141
0.118393
0.130338
0.130437
0.133174
0.10947
0.107331
0.130911
0.11224
0.111892
0.104145
0.111088
0.129323
0.115165
0.134467
0.129305
0.134222
0.116383
0.136337
0.126928
0.126377
0.115593
0.0790619
0.136869
0.114585
0.125811
0.132633
0.135655
0.105249
0.132573
0.137222
0.111905
0.125515
0.123642
0.11335
0.11135
0.12753
0.119377
0.127198
0.135822
0.131924
0.13593
0.127
0.12703
0.120885
0.110301
0.115516
0.131837
0.110012
0.129468
0.119723
0.10613
0.118362
0.134871
0.108541
0.0865722
0.120152
0.13297
0.13586
0.132693
0.080898
0.11501
0.136658
0.133738
0.136113
0.131001
0.108882
0.136476
0.108699
0.134866
0.118719
0.122872
0.128308
0.135738
0.110761
0.126387
0.106849
0.127411
0.13516
0.136617
0.133333
0.113599
0.108957
0.129702
0.110632
0.124895
0.106579
0.121657
0.132333
0.135914
0.115657
0.135607
0.115762
0.138445
0.116652
0.136341
0.132693
0.132471
0.123246
0.114887
0.119365
0.140009
0.122728
0.130409
0.132642
0.116757
0.127913
0.135008
0.120547
0.125778
0.118211
0.119422
0.129352
0.134435
0.103788
0.136252
0.107917
0.130397
0.134631
0.109251
0.129517
0.133645
0.122547
0.124115
0.126057
0.122852
0.106191
0.131853
0.107542
0.129488
0.0900416
0.134085
0.114064
0.120167
0.12633
0.109693
0.119507
0.136428
0.132015
0.127062
0.135784
0.114229
0.134098
0.11197
0.130483
0.12211
0.13102
0.1302
0.131848
0.106258
0.106143
0.136298
0.133292
0.13377
0.106235
0.137415
0.139042
0.13362
0.134593
0.126591
0.111237
0.131392
0.119516
0.123938
0.134293
0.128977
0.11906
0.132184
0.130202
0.131265
0.118415
0.113237
0.111581
0.106501
0.136642
0.132512
0.12036
0.134401
0.133282
0.113455
0.137323
0.10878
0.114078
0.112004
0.11602
0.136024
0.133181
0.101428
0.135872
0.106557
0.131507
0.130886
0.13226
0.136276
0.132639
0.133383
0.120192
0.128985
0.128013
0.135113
0.107671
0.116926
0.129835
0.111088
0.11788
0.104111
0.122423
0.133195
0.120597
0.0988813
0.10011
0.105723
0.120937
0.121955
0.125979
0.130358
0.131537
0.102346
0.122894
0.119128
0.12263
0.108866
0.125227
0.10821
0.0979397
0.119185
0.116836
0.120194
0.11381
0.120737
0.123136
0.1154
0.136202
0.107578
0.133103
0.125115
0.128739
0.12559
0.11066
0.125955
0.131588
0.111839
0.125423
0.130627
0.136419
0.130358
0.12332
0.133355
0.134141
0.130197
0.13213
0.111226
0.135445
0.138647
0.134605
0.133111
0.134258
0.133587
0.0984632
0.111231
0.134132
0.123535
0.122301
0.13539
0.113317
0.114104
0.103382
0.134007
0.120945
0.131251
0.135962
0.100197
0.134447
0.111609
0.136403
0.132789
0.137349
0.137693
0.103039
0.134212
0.136455
0.129509
0.0997267
0.124494
0.117375
0.103425
0.132222
0.107582
0.128971
0.136511
0.12143
0.129551
0.10946
0.109392
0.135168
0.132513
0.12381
0.126845
0.125918
0.130286
0.135371
0.13665
0.119815
0.0819712
0.123415
0.106829
0.120883
0.120052
0.135398
0.134263
0.115953
0.132077
0.111111
0.102848
0.128144
0.110799
0.135028
0.129566
0.107253
0.10618
0.12513
0.136589
0.130434
0.13608
0.129035
0.0976484
0.0998955
0.112483
0.115264
0.134788
0.106224
0.132524
0.128423
0.108126
0.110309
0.105114
0.133598
0.106554
0.127984
0.113997
0.123016
0.132962
0.136349
0.112048
0.108559
0.125694
0.123144
0.114632
0.111732
0.116146
0.110997
0.114289
0.10481
0.12576
0.125431
0.100864
0.133204
0.101248
0.12108
0.111195
0.111729
0.110098
0.128068
0.128379
0.126369
0.132499
0.110364
0.104128
0.126158
0.13644
0.10799
0.134886
0.132861
0.130919
0.113741
0.122042
0.13353
0.116037
0.123357
0.123416
0.130384
0.123979
0.114736
0.108701
0.135735
0.0995764
0.0951871
0.0934469
0.127363
0.134358
0.117279
0.108943
0.132219
0.098597
0.132639
0.123235
0.11434
0.121941
0.128063
0.138786
0.103618
0.129242
0.134867
0.102051
0.0999418
0.119983
0.122139
0.105754
0.125072
0.116913
0.124641
0.123818
0.133417
0.115102
0.119387
0.128588
0.127449
0.127607
0.128609
0.120136
0.124666
0.109089
0.12842
0.119729
0.128659
0.093774
0.119027
0.0913245
0.105891
0.133329
0.125649
0.109135
0.113609
0.127542
0.102742
0.113904
0.134403
0.1101
0.112757
0.123755
0.113122
0.118601
0.108502
0.127269
0.109086
0.0938368
0.125186
0.110652
0.106142
0.135434
0.0998319
0.127916
0.132509
0.134092
0.104376
0.118303
0.106867
0.127487
0.137772
0.12098
0.125486
0.0848594
0.117206
0.124458
0.107734
0.131055
0.126556
0.119521
0.111289
0.102236
0.11194
0.103134
0.103068
0.108664
0.121332
0.128455
0.0997306
0.118791
0.111759
0.117076
0.133651
0.122908
0.106318
0.126125
0.13316
0.135306
0.0810003
0.134714
0.120607
0.12917
0.106586
0.0869701
0.128294
0.116922
0.0987761
0.129926
0.112227
0.122515
0.125323
0.113895
0.111057
0.126894
0.117639
0.118193
0.13049
0.115777
0.113218
0.11679
0.105847
0.113283
0.113678
0.128665
0.12936
0.134125
0.117437
0.135185
0.0976457
0.112672
0.130391
0.117818
0.0788143
0.1253
0.118401
0.0990666
0.0927853
0.114121
0.130221
0.129577
0.127856
0.100159
0.133146
0.120062
0.134539
0.107564
0.119133
0.109039
0.118433
0.114872
0.118973
0.103329
0.136078
0.124487
0.107288
0.117623
0.100804
0.11838
0.124437
0.133802
0.109977
0.117246
0.1203
0.107998
0.129936
0.121118
0.0983821
0.135108
0.136641
0.118579
0.133339
0.1225
0.091929
0.132647
0.107317
0.135158
0.135516
0.122866
0.132464
0.127445
0.121561
0.130122
0.113467
0.105255
0.11503
0.133984
0.132913
0.114327