/*--------------------------------*- C++ -*----------------------------------*\
| =========                 |                                                 |
| \\      /  F ield         | OpenFOAM: The Open Source CFD Toolbox           |
|  \\    /   O peration     | Version:  2212                                  |
|   \\  /    A nd           | Website:  www.openfoam.com                      |
|    \\/     M anipulation  |                                                 |
\*---------------------------------------------------------------------------*/
FoamFile
{
    version     2.0;
    format      ascii;
    arch        "LSB;label=32;scalar=64";
    class       volScalarField;
    location    "0.006";
    object      nut;
}
// * * * * * * * * * * * * * * * * * * * * * * * * * * * * * * * * * * * * * //

dimensions      [0 2 -1 0 0 0 0];

internalField   nonuniform List<scalar> 
31639
(
9.18889e-05
9.50054e-05
9.83303e-05
0.000102553
8.67212e-05
9.20387e-05
8.53481e-05
9.36831e-05
9.12911e-05
0.000101682
0.000101001
9.97948e-05
9.76984e-05
0.000101853
9.34717e-05
8.15067e-05
9.1095e-05
8.42385e-05
7.95335e-05
9.5888e-05
7.3486e-05
9.40743e-05
0.000101915
8.06192e-05
8.1069e-05
9.04903e-05
9.72931e-05
7.70978e-05
8.59285e-05
0.000100719
0.00010133
8.40516e-05
0.000101155
8.07163e-05
7.49474e-05
0.000100904
6.85677e-05
0.000102469
0.000101822
6.76238e-05
7.60279e-05
7.38994e-05
0.000101382
9.67617e-05
0.000100039
0.000102102
9.18752e-05
8.36031e-05
9.12198e-05
0.000102059
0.000100387
6.65149e-05
0.000101627
7.14769e-05
8.24328e-05
9.11062e-05
7.14525e-05
9.59353e-05
9.56015e-05
7.0598e-05
8.84245e-05
9.3038e-05
7.87928e-05
9.41496e-05
9.09063e-05
0.000100916
8.84771e-05
9.66333e-05
7.78646e-05
0.000101593
0.00010302
8.68092e-05
9.94119e-05
9.59924e-05
0.000102119
7.40658e-05
0.000102185
8.53446e-05
9.40577e-05
9.66355e-05
8.01835e-05
6.81236e-05
0.000103687
9.76035e-05
9.76265e-05
0.000101651
0.000101731
0.000102841
7.18863e-05
0.000104208
9.80148e-05
8.5196e-05
7.20444e-05
9.46718e-05
7.66607e-05
9.16937e-05
8.6882e-05
9.63041e-05
9.70262e-05
7.36985e-05
0.000103496
0.000101427
9.42233e-05
7.00921e-05
7.21776e-05
0.000101768
7.09896e-05
6.78693e-05
7.83705e-05
7.22553e-05
9.73507e-05
7.39242e-05
9.38568e-05
8.20838e-05
9.65005e-05
7.0492e-05
8.57036e-05
8.53357e-05
0.000101749
9.47186e-05
9.35892e-05
9.95711e-05
9.78794e-05
9.02274e-05
8.88198e-05
0.000100921
9.4774e-05
7.94228e-05
7.8384e-05
0.000100671
0.000101203
9.81221e-05
9.94287e-05
8.3979e-05
9.34092e-05
9.7035e-05
7.10451e-05
7.15906e-05
9.96424e-05
9.62211e-05
9.47299e-05
9.97563e-05
0.000101575
6.91035e-05
6.89251e-05
0.000102059
9.88842e-05
7.28744e-05
7.35031e-05
0.000101786
7.60569e-05
9.53072e-05
7.95732e-05
9.35934e-05
7.26985e-05
0.000101806
8.53791e-05
7.76643e-05
7.28642e-05
8.04463e-05
0.000101908
7.38059e-05
7.6803e-05
7.15997e-05
7.40721e-05
9.08998e-05
7.47414e-05
0.000100966
9.9902e-05
6.92549e-05
8.47886e-05
9.19323e-05
7.41749e-05
9.77315e-05
0.000102846
9.89137e-05
9.76247e-05
0.000101125
9.7654e-05
9.67224e-05
9.46538e-05
8.30024e-05
9.14626e-05
6.85525e-05
9.09892e-05
0.000102391
8.97753e-05
0.000100922
7.30497e-05
7.07368e-05
9.98587e-05
9.43691e-05
9.09375e-05
9.50053e-05
9.50004e-05
8.15864e-05
8.27235e-05
9.98029e-05
6.98283e-05
8.38041e-05
9.90771e-05
0.000101695
9.51492e-05
9.54373e-05
8.80498e-05
9.55608e-05
9.23896e-05
9.52102e-05
9.99987e-05
6.80163e-05
9.46512e-05
8.39267e-05
9.70007e-05
9.55384e-05
9.09331e-05
0.000100153
7.51311e-05
8.3666e-05
0.000100771
9.88627e-05
9.90394e-05
8.67781e-05
6.96705e-05
9.66507e-05
7.10894e-05
8.88589e-05
0.000101365
8.09862e-05
7.31688e-05
9.25384e-05
9.30591e-05
0.000102321
7.33815e-05
7.2015e-05
8.98842e-05
9.00502e-05
7.05073e-05
9.76303e-05
7.82414e-05
6.95752e-05
9.50509e-05
8.94451e-05
9.27799e-05
8.13739e-05
7.95987e-05
9.11976e-05
9.3408e-05
9.07361e-05
7.15806e-05
9.44458e-05
9.00668e-05
7.44584e-05
8.16159e-05
0.000101277
9.94488e-05
8.29508e-05
7.50401e-05
9.96557e-05
9.70673e-05
8.46664e-05
0.000102366
0.000101592
9.49334e-05
0.00010148
9.27521e-05
8.79084e-05
7.14387e-05
8.02252e-05
9.75594e-05
9.21466e-05
9.2657e-05
8.12447e-05
8.70109e-05
9.74484e-05
0.000101183
9.59946e-05
7.23114e-05
8.31804e-05
7.71053e-05
9.99048e-05
8.56884e-05
0.00010181
0.000101148
8.23677e-05
7.36512e-05
7.91685e-05
7.25972e-05
7.11359e-05
0.00010001
7.50852e-05
9.98879e-05
9.22051e-05
8.17811e-05
7.74947e-05
0.000101406
8.3186e-05
7.9821e-05
9.48295e-05
8.73573e-05
8.00301e-05
9.36338e-05
7.33538e-05
9.52735e-05
9.4019e-05
7.36221e-05
8.49273e-05
9.37826e-05
6.58425e-05
6.99654e-05
9.99679e-05
0.00010322
0.000100756
7.20725e-05
7.64038e-05
9.92782e-05
7.71159e-05
7.87256e-05
0.0001013
0.00010142
9.2276e-05
0.000101316
0.000102322
7.37215e-05
0.000104812
6.87919e-05
7.17875e-05
0.000100597
9.80127e-05
9.9582e-05
0.000100402
9.13708e-05
7.59785e-05
9.20577e-05
9.36631e-05
0.000101264
0.000101233
0.000102455
9.36927e-05
8.92884e-05
9.76672e-05
9.94245e-05
8.98961e-05
8.85365e-05
8.55998e-05
9.41565e-05
8.31402e-05
9.66425e-05
9.03845e-05
7.41453e-05
9.45211e-05
0.000105129
8.22801e-05
9.91359e-05
9.78799e-05
9.41427e-05
7.28686e-05
9.44162e-05
9.36311e-05
7.20123e-05
0.000102034
7.3726e-05
8.68671e-05
0.00010201
6.91189e-05
9.58758e-05
9.44111e-05
7.27497e-05
8.76444e-05
7.44352e-05
8.32859e-05
0.000100843
9.15995e-05
6.95407e-05
9.18754e-05
7.54907e-05
9.16914e-05
0.000100426
0.000100846
0.000102468
7.49707e-05
9.67704e-05
7.26066e-05
9.27712e-05
6.94497e-05
9.99244e-05
0.000100376
0.000102471
0.000101281
7.96844e-05
9.54898e-05
9.55055e-05
9.80333e-05
9.43569e-05
7.48985e-05
8.71489e-05
8.93426e-05
9.51437e-05
9.26302e-05
8.94409e-05
9.23664e-05
8.40156e-05
7.35108e-05
8.88547e-05
9.74424e-05
9.89892e-05
6.87631e-05
0.000100954
9.91891e-05
9.36824e-05
9.65232e-05
9.8432e-05
8.51134e-05
9.97557e-05
7.55972e-05
9.11394e-05
9.96062e-05
7.06131e-05
8.92027e-05
9.84588e-05
7.51628e-05
6.92847e-05
7.27887e-05
8.5419e-05
7.33607e-05
9.69123e-05
9.62006e-05
8.39815e-05
0.000100666
7.4352e-05
0.000100199
0.00010171
9.48734e-05
9.09839e-05
8.52235e-05
0.000101481
9.52019e-05
8.95962e-05
0.00010115
9.65931e-05
7.16356e-05
9.53703e-05
0.000100983
0.000101547
9.21821e-05
0.000101493
9.06443e-05
9.05028e-05
9.59728e-05
9.98504e-05
9.94148e-05
7.34123e-05
9.52295e-05
6.69023e-05
8.53183e-05
9.28628e-05
7.2866e-05
7.13043e-05
8.40952e-05
9.07632e-05
9.5653e-05
7.10485e-05
9.18864e-05
8.11864e-05
9.40874e-05
9.2495e-05
7.18632e-05
9.35669e-05
7.01967e-05
9.23104e-05
0.000101019
0.000104161
9.81538e-05
8.46267e-05
7.20899e-05
9.15937e-05
9.50977e-05
0.00010098
7.12009e-05
7.23631e-05
9.34723e-05
7.33404e-05
7.53889e-05
9.00672e-05
7.10877e-05
8.3226e-05
7.45681e-05
9.076e-05
7.31507e-05
0.000101073
0.000100271
0.000101667
9.92571e-05
8.10972e-05
0.000102041
0.000101938
8.92902e-05
9.30591e-05
9.68558e-05
0.000101978
0.000100123
8.22904e-05
9.83428e-05
0.000103015
9.39713e-05
7.6331e-05
0.000102202
9.59669e-05
6.67028e-05
7.10677e-05
9.60844e-05
0.000102115
0.00010108
9.07384e-05
0.000100495
9.94466e-05
0.00010024
9.71909e-05
8.41138e-05
8.78391e-05
7.51883e-05
9.32477e-05
9.13857e-05
0.000101623
7.81403e-05
7.7429e-05
7.50266e-05
8.83514e-05
9.36367e-05
6.59173e-05
9.24857e-05
8.09674e-05
8.94593e-05
8.40789e-05
9.64262e-05
8.72625e-05
7.44615e-05
9.78555e-05
9.87356e-05
7.60213e-05
9.18082e-05
0.000102683
9.69437e-05
9.3468e-05
7.91433e-05
7.67668e-05
9.54739e-05
9.64449e-05
7.45125e-05
7.18872e-05
9.67301e-05
8.29179e-05
9.19191e-05
7.92414e-05
8.48809e-05
0.000101797
9.43034e-05
7.26227e-05
8.10248e-05
9.58644e-05
0.000100993
7.21078e-05
6.63571e-05
9.99053e-05
7.10088e-05
9.85611e-05
0.000100498
7.31079e-05
9.64337e-05
9.71688e-05
8.83048e-05
7.33766e-05
0.000102674
8.80253e-05
7.3808e-05
0.000102761
9.80124e-05
9.10767e-05
9.75857e-05
6.70337e-05
7.79974e-05
9.26932e-05
8.2505e-05
8.10113e-05
8.85966e-05
9.77458e-05
0.000102522
9.68395e-05
9.67533e-05
0.000100043
8.91943e-05
8.17623e-05
9.7872e-05
0.00010044
0.000106316
7.96009e-05
9.66485e-05
8.83288e-05
0.000104599
7.54874e-05
6.85821e-05
0.000100821
7.66822e-05
0.000101363
9.13332e-05
7.05466e-05
8.29279e-05
0.00010131
8.78559e-05
9.32697e-05
7.0317e-05
9.5142e-05
8.73152e-05
7.02435e-05
0.00010122
9.92428e-05
7.66279e-05
7.49755e-05
7.60004e-05
8.58013e-05
9.58511e-05
9.6502e-05
9.42973e-05
9.55172e-05
9.98246e-05
9.63871e-05
9.45788e-05
7.51677e-05
0.000100756
7.23904e-05
9.53037e-05
8.61286e-05
8.53074e-05
0.000105602
9.46138e-05
7.78885e-05
6.88e-05
7.41236e-05
8.51538e-05
0.000100991
7.54902e-05
0.00010079
8.61866e-05
0.000100135
7.27366e-05
9.16674e-05
9.77854e-05
0.000101857
0.000101215
9.86305e-05
9.79091e-05
8.7921e-05
0.000102613
0.000101777
0.00010239
8.0221e-05
9.66367e-05
7.24227e-05
0.000103236
9.62296e-05
9.43235e-05
7.57013e-05
9.13498e-05
6.75765e-05
9.87527e-05
8.84231e-05
0.000100783
9.41965e-05
9.00899e-05
7.37354e-05
0.000101138
6.97845e-05
6.82655e-05
7.67107e-05
7.89339e-05
7.17195e-05
9.5114e-05
7.10979e-05
9.57511e-05
8.9112e-05
6.70897e-05
0.000101939
7.41802e-05
7.77132e-05
9.17073e-05
8.01835e-05
9.39508e-05
9.93109e-05
0.000101858
0.00010034
8.03711e-05
9.42825e-05
8.2541e-05
8.48972e-05
6.72677e-05
6.06788e-05
0.000100946
9.43765e-05
9.1203e-05
0.000100682
7.18592e-05
0.000102117
0.000102096
9.89149e-05
9.94829e-05
9.9251e-05
9.85554e-05
0.000102225
0.000101512
9.52971e-05
0.00010085
9.39059e-05
7.37252e-05
0.000101215
8.31218e-05
9.9133e-05
9.07656e-05
9.52881e-05
7.87313e-05
0.000101923
9.29684e-05
9.41527e-05
8.71571e-05
7.61241e-05
0.000101173
8.83986e-05
8.13929e-05
7.28949e-05
9.95081e-05
6.74539e-05
9.87508e-05
9.37332e-05
9.08176e-05
9.77142e-05
0.000101745
9.7911e-05
7.22926e-05
9.37147e-05
8.7452e-05
9.61118e-05
7.40226e-05
9.74543e-05
9.24082e-05
8.99883e-05
9.54783e-05
8.6991e-05
8.9585e-05
8.41683e-05
8.47077e-05
6.80943e-05
0.000100037
9.01088e-05
0.000102013
7.88472e-05
9.49144e-05
9.73902e-05
9.4034e-05
8.01937e-05
9.53706e-05
0.000100199
9.40888e-05
6.80021e-05
7.01862e-05
9.34047e-05
6.82227e-05
7.30814e-05
9.76453e-05
9.79737e-05
9.93336e-05
6.68191e-05
9.34826e-05
0.000100542
7.21501e-05
6.76226e-05
9.35895e-05
7.4723e-05
9.13111e-05
7.79548e-05
0.000101477
8.17007e-05
8.05443e-05
0.0001005
6.96283e-05
9.30178e-05
9.30313e-05
9.96487e-05
0.000101523
0.000100305
7.55545e-05
9.91471e-05
0.000100104
8.43237e-05
0.000100961
9.89835e-05
9.2737e-05
0.000100637
9.57087e-05
0.000102853
0.000101461
0.00010123
9.76502e-05
8.52268e-05
9.56648e-05
9.48182e-05
7.39375e-05
9.16782e-05
9.77028e-05
0.000100815
0.000101446
9.24088e-05
0.000103319
9.9289e-05
9.01245e-05
9.36547e-05
0.00010158
9.42347e-05
9.25105e-05
7.3679e-05
8.29076e-05
0.000104401
6.8012e-05
8.81767e-05
9.3248e-05
8.34167e-05
9.30034e-05
0.000100095
9.09146e-05
0.000100073
8.98514e-05
9.31047e-05
8.69646e-05
9.9626e-05
9.59318e-05
8.4113e-05
7.43115e-05
0.000101249
7.51579e-05
9.14209e-05
8.40979e-05
9.18051e-05
8.75148e-05
0.000102879
7.37894e-05
0.000103785
7.59158e-05
9.68745e-05
8.47155e-05
9.49477e-05
9.44167e-05
9.95346e-05
7.34054e-05
9.96146e-05
0.000100635
9.76225e-05
9.72647e-05
9.22151e-05
6.88691e-05
0.00010269
0.000101451
9.6873e-05
9.97252e-05
0.00010209
9.50271e-05
8.87477e-05
9.7241e-05
7.22618e-05
8.51451e-05
0.000101247
7.2458e-05
7.94417e-05
0.0001036
0.000101878
7.92621e-05
8.21184e-05
9.6961e-05
8.011e-05
9.30392e-05
7.48633e-05
9.7914e-05
9.77444e-05
6.78708e-05
8.88418e-05
0.00010102
9.30859e-05
9.78551e-05
9.17529e-05
0.000100133
7.56641e-05
7.49338e-05
0.000103182
0.000101715
9.40056e-05
7.39098e-05
9.2156e-05
0.00010317
7.80272e-05
0.000101644
9.49738e-05
9.71965e-05
8.99697e-05
9.84381e-05
9.71501e-05
9.64452e-05
9.28409e-05
7.98646e-05
6.99081e-05
8.83633e-05
9.67951e-05
7.40226e-05
0.000100245
6.95271e-05
9.19279e-05
8.3874e-05
7.32644e-05
9.33781e-05
7.99337e-05
9.66149e-05
8.81865e-05
9.49004e-05
7.29791e-05
7.35904e-05
8.42565e-05
7.2945e-05
9.11259e-05
0.000100983
9.32166e-05
0.000102743
8.69729e-05
9.51553e-05
0.000102805
8.41758e-05
8.9081e-05
9.43349e-05
9.39544e-05
9.12848e-05
7.67634e-05
9.59042e-05
9.8538e-05
0.000101611
0.000104632
7.44703e-05
6.99414e-05
9.32141e-05
0.000101186
7.73047e-05
9.23985e-05
9.0145e-05
9.44375e-05
0.000103705
8.3547e-05
9.30752e-05
9.23833e-05
7.24397e-05
0.000101845
9.81571e-05
7.30417e-05
7.92796e-05
9.36729e-05
8.2479e-05
0.000102014
0.00010212
8.97995e-05
7.4498e-05
0.00010224
7.06408e-05
9.21227e-05
9.73443e-05
8.20657e-05
0.000101235
7.12114e-05
9.46237e-05
9.12801e-05
9.41996e-05
7.21545e-05
6.98197e-05
9.85899e-05
0.000102442
8.33207e-05
9.96258e-05
9.83351e-05
9.4534e-05
7.39428e-05
7.79874e-05
9.80078e-05
8.59394e-05
9.49951e-05
0.000102123
0.000101017
0.000102433
0.000100026
8.8883e-05
8.90551e-05
9.98479e-05
7.44176e-05
9.6149e-05
9.83659e-05
9.71073e-05
9.75393e-05
0.000102783
8.64769e-05
9.99482e-05
9.3824e-05
6.92852e-05
0.000103034
8.16944e-05
0.000102585
8.32368e-05
0.000101306
7.38385e-05
9.77451e-05
0.000103327
9.22019e-05
9.67207e-05
7.33443e-05
0.000100987
0.000103063
9.60139e-05
7.0539e-05
0.000107873
8.63391e-05
9.68773e-05
9.8726e-05
0.000100038
9.93445e-05
9.2825e-05
8.54931e-05
0.000103642
7.46207e-05
7.61873e-05
7.48097e-05
7.72497e-05
9.81581e-05
7.13993e-05
0.000102282
0.000101798
9.87495e-05
9.2985e-05
8.56895e-05
9.65395e-05
0.000103419
9.5402e-05
9.03109e-05
0.000102655
9.7253e-05
8.63452e-05
0.000100329
9.44829e-05
9.48253e-05
9.51049e-05
8.31615e-05
0.000100326
0.000104373
0.000101219
0.00010112
9.8984e-05
8.17584e-05
0.000105822
9.00627e-05
9.17536e-05
9.37932e-05
9.84513e-05
0.000105773
9.63123e-05
9.96987e-05
8.02554e-05
9.4248e-05
8.99752e-05
7.59346e-05
7.33917e-05
9.45216e-05
8.56226e-05
0.000100282
8.21592e-05
6.73828e-05
9.0297e-05
0.000100268
8.0726e-05
8.29014e-05
9.61989e-05
0.00010235
0.000101273
9.15603e-05
7.90705e-05
9.55522e-05
9.35358e-05
8.43037e-05
9.16507e-05
9.48777e-05
7.20545e-05
8.49665e-05
8.15815e-05
9.17352e-05
0.000101429
9.44174e-05
9.98371e-05
9.38029e-05
9.73934e-05
9.18198e-05
7.1979e-05
7.44488e-05
7.1737e-05
9.80387e-05
9.64007e-05
0.000101757
0.000106687
9.45338e-05
7.13722e-05
9.91143e-05
8.51042e-05
9.05039e-05
9.21706e-05
9.93182e-05
6.97824e-05
0.000103093
7.26776e-05
9.62563e-05
9.00764e-05
8.8482e-05
0.000102686
9.36125e-05
9.75324e-05
7.38568e-05
9.44017e-05
8.96653e-05
9.40858e-05
7.77016e-05
7.78416e-05
9.83224e-05
9.87898e-05
8.88e-05
9.73343e-05
0.000102706
7.31857e-05
8.50403e-05
8.46556e-05
7.80469e-05
9.69918e-05
0.000101105
0.000102439
9.93943e-05
0.000101923
7.58967e-05
7.53234e-05
7.39249e-05
0.000104991
7.47067e-05
9.82783e-05
8.8363e-05
7.45364e-05
8.40648e-05
0.000101241
0.000101457
7.99657e-05
8.37114e-05
9.22634e-05
9.64423e-05
0.000101677
8.93038e-05
7.32423e-05
9.61093e-05
0.000100272
9.9874e-05
9.99891e-05
0.00010069
0.000106105
0.000101634
9.34518e-05
7.60829e-05
7.31479e-05
9.44028e-05
7.83679e-05
0.000101685
7.45453e-05
9.71854e-05
8.48589e-05
0.000100108
7.71566e-05
9.20658e-05
0.000101019
9.75318e-05
8.45274e-05
7.49795e-05
0.000101695
8.53239e-05
9.92739e-05
8.80853e-05
0.000108143
0.000102015
9.67817e-05
7.36424e-05
7.33686e-05
9.35843e-05
8.85189e-05
8.30568e-05
0.000102654
7.44344e-05
0.000100575
9.47826e-05
8.3213e-05
9.83053e-05
0.000102156
9.96567e-05
0.000101261
0.000104812
9.80981e-05
8.87346e-05
7.20257e-05
7.96097e-05
9.97404e-05
7.60613e-05
9.12942e-05
9.33406e-05
7.77905e-05
9.48381e-05
9.69047e-05
9.39542e-05
9.83532e-05
0.000100929
7.59378e-05
9.36588e-05
9.63471e-05
7.44711e-05
8.20307e-05
9.29448e-05
8.46389e-05
9.36957e-05
7.46963e-05
7.3144e-05
9.47935e-05
8.24595e-05
0.000101484
0.000102647
9.99239e-05
9.297e-05
9.30549e-05
9.52257e-05
9.03815e-05
9.90878e-05
7.63655e-05
9.56013e-05
8.41783e-05
0.000100869
9.24427e-05
8.5214e-05
8.78833e-05
0.000100811
7.51983e-05
9.5525e-05
0.000100767
9.18669e-05
6.2916e-05
8.54234e-05
7.52861e-05
9.12237e-05
7.08703e-05
0.000104458
0.000102424
0.000100979
9.88048e-05
7.68949e-05
7.23123e-05
0.000100987
0.000103566
9.98813e-05
9.56417e-05
8.86945e-05
0.000100325
0.00010393
9.93478e-05
7.27359e-05
8.65899e-05
9.65947e-05
9.82839e-05
8.55932e-05
9.54059e-05
7.07515e-05
0.000100305
0.000100374
8.94113e-05
9.67015e-05
9.23352e-05
9.59532e-05
0.000101933
9.88373e-05
7.6779e-05
9.58073e-05
9.80827e-05
9.42289e-05
8.89456e-05
9.22199e-05
7.13077e-05
7.41472e-05
0.000100911
0.000101134
0.000100134
0.00010122
9.72152e-05
9.81845e-05
8.96881e-05
9.64894e-05
9.80338e-05
0.000101654
8.40632e-05
8.56326e-05
9.0539e-05
9.60952e-05
0.000101335
7.0466e-05
8.88782e-05
6.84727e-05
0.000100941
6.9937e-05
7.45112e-05
9.49358e-05
6.58432e-05
8.72998e-05
9.67593e-05
0.000101443
9.9841e-05
7.97503e-05
8.95141e-05
0.000102518
8.00713e-05
7.67915e-05
8.63866e-05
7.98261e-05
0.000101002
9.66503e-05
8.88504e-05
7.39078e-05
9.64088e-05
0.000105122
0.000100423
7.3326e-05
7.73684e-05
9.3796e-05
0.000100866
0.000100873
7.50608e-05
7.3832e-05
9.3379e-05
8.84794e-05
0.000102788
9.39419e-05
7.04932e-05
9.17816e-05
0.000100331
7.3993e-05
6.93015e-05
0.000101661
7.69825e-05
7.7206e-05
0.000103592
9.8942e-05
9.82936e-05
0.000104647
9.36061e-05
8.60876e-05
0.00010138
8.14844e-05
9.86724e-05
8.07058e-05
9.31535e-05
9.71636e-05
9.36651e-05
7.3064e-05
9.95988e-05
9.93445e-05
8.36618e-05
9.5145e-05
8.49802e-05
7.81231e-05
8.81156e-05
8.88805e-05
9.32973e-05
0.000101929
8.22565e-05
0.000100021
7.19648e-05
9.88281e-05
0.000102126
7.3446e-05
9.76918e-05
9.67778e-05
6.50796e-05
7.3515e-05
9.72545e-05
9.42526e-05
0.000100139
8.13286e-05
7.46715e-05
0.000100671
0.000101656
0.00010095
8.99242e-05
0.000100415
7.10098e-05
0.000102779
9.53681e-05
7.37848e-05
7.35251e-05
6.51719e-05
7.16991e-05
0.000102466
8.33022e-05
9.8483e-05
9.55234e-05
7.70388e-05
7.81148e-05
6.78683e-05
6.75379e-05
0.000104747
0.000103001
7.69801e-05
0.000100844
9.3097e-05
7.55821e-05
9.24896e-05
8.76307e-05
7.73073e-05
8.46264e-05
0.0001004
7.78063e-05
7.12501e-05
9.90182e-05
0.000104417
7.93472e-05
0.000100365
8.77109e-05
7.78821e-05
7.42929e-05
8.8733e-05
7.48484e-05
7.41797e-05
9.7426e-05
9.78122e-05
8.50045e-05
9.72183e-05
0.000100083
9.36887e-05
0.000101975
6.47962e-05
8.80718e-05
7.25712e-05
9.57318e-05
0.000100425
9.45915e-05
8.14424e-05
9.522e-05
7.44377e-05
9.91741e-05
9.38196e-05
8.09661e-05
7.56636e-05
6.83825e-05
6.83849e-05
8.19423e-05
7.18733e-05
8.6215e-05
7.27201e-05
8.5299e-05
9.79943e-05
9.22288e-05
8.51506e-05
9.75787e-05
9.28966e-05
9.55872e-05
9.85553e-05
7.12596e-05
8.7751e-05
0.000101381
0.000101366
9.32906e-05
0.000103378
7.69701e-05
9.83648e-05
9.45031e-05
7.21695e-05
9.2738e-05
0.00010201
9.19348e-05
9.96023e-05
0.000100992
9.10281e-05
6.63309e-05
6.68925e-05
9.32764e-05
0.000102622
9.08639e-05
9.99472e-05
8.25237e-05
8.51893e-05
7.61503e-05
7.09691e-05
6.96128e-05
7.13386e-05
9.54718e-05
9.82739e-05
0.000102468
8.9848e-05
8.42847e-05
0.00010126
7.1312e-05
9.59347e-05
0.000100002
0.000102155
9.0426e-05
9.08229e-05
0.000101153
0.000106061
0.000100437
8.0617e-05
8.6694e-05
9.89783e-05
9.17733e-05
9.65401e-05
0.000104845
9.80663e-05
0.000102945
9.61959e-05
7.90811e-05
9.57317e-05
9.86642e-05
9.52405e-05
9.69947e-05
7.2087e-05
0.000100052
0.000100666
0.000102361
0.000100191
7.15187e-05
6.86314e-05
9.34229e-05
9.44848e-05
8.69544e-05
9.66943e-05
9.98487e-05
9.92332e-05
9.90204e-05
8.24238e-05
9.27568e-05
9.48327e-05
9.83456e-05
7.3915e-05
7.3955e-05
8.946e-05
9.50702e-05
7.51293e-05
0.000102951
7.44862e-05
8.19701e-05
9.64172e-05
9.87738e-05
8.41614e-05
0.00010039
9.63274e-05
9.91358e-05
9.09446e-05
9.39988e-05
9.67568e-05
8.30815e-05
6.79544e-05
0.000101618
6.83027e-05
7.17613e-05
7.95757e-05
7.0728e-05
7.03884e-05
8.30046e-05
9.69642e-05
7.16596e-05
8.27288e-05
6.39585e-05
7.58896e-05
9.32711e-05
0.000102174
6.86932e-05
7.3703e-05
0.000100088
7.02152e-05
8.43196e-05
9.64415e-05
8.96048e-05
9.60343e-05
7.58537e-05
7.25888e-05
8.29592e-05
0.000100696
7.83654e-05
7.45443e-05
8.83199e-05
8.28104e-05
9.64293e-05
9.40811e-05
7.49119e-05
9.99623e-05
7.16505e-05
7.40522e-05
8.61072e-05
9.86486e-05
8.129e-05
8.59114e-05
8.74513e-05
9.57539e-05
6.89222e-05
7.8207e-05
9.32867e-05
0.000101746
9.75793e-05
7.11942e-05
6.7592e-05
8.58273e-05
0.000102141
9.43751e-05
9.45954e-05
8.38606e-05
9.02342e-05
9.49449e-05
7.21096e-05
0.00010203
8.02394e-05
7.30972e-05
6.90092e-05
0.000101245
9.387e-05
0.000102002
8.84967e-05
0.000100643
7.07853e-05
8.7971e-05
6.91378e-05
6.85674e-05
9.56257e-05
7.50856e-05
8.57202e-05
9.66155e-05
9.79678e-05
7.40166e-05
0.000102457
0.000100518
0.000102315
9.14866e-05
6.54194e-05
9.67963e-05
6.70327e-05
0.000101892
7.34503e-05
0.000100796
6.70473e-05
9.77782e-05
9.40759e-05
8.26452e-05
8.40967e-05
6.57213e-05
7.89757e-05
9.5568e-05
9.95882e-05
9.10492e-05
0.000102095
0.000101613
7.24322e-05
0.000101768
8.63743e-05
9.7971e-05
9.69468e-05
0.000101283
9.43407e-05
9.57082e-05
0.000100935
8.40967e-05
7.74711e-05
7.67527e-05
9.74342e-05
0.000103129
7.56681e-05
7.84253e-05
9.91691e-05
9.33186e-05
9.58104e-05
0.000106501
9.94938e-05
9.07137e-05
9.6515e-05
9.94655e-05
0.000100315
9.27441e-05
9.06075e-05
0.000100824
9.62117e-05
7.96576e-05
9.33858e-05
8.00653e-05
0.000104033
9.71285e-05
0.000100648
7.43399e-05
7.46764e-05
9.57366e-05
0.000100177
9.92453e-05
0.000100819
0.00010344
8.95238e-05
9.12505e-05
7.49598e-05
8.67236e-05
9.71825e-05
9.94558e-05
0.000102585
0.000102265
8.52386e-05
0.000101541
7.60967e-05
9.92635e-05
8.07738e-05
9.37944e-05
8.26509e-05
9.59923e-05
9.01083e-05
0.00010088
7.41948e-05
0.000102229
0.00010136
8.49358e-05
7.41197e-05
0.000106618
9.19282e-05
0.000100989
9.56072e-05
9.69096e-05
9.37978e-05
7.12387e-05
0.000101492
8.57686e-05
9.70638e-05
7.64611e-05
7.8023e-05
7.81941e-05
6.99635e-05
7.99437e-05
0.000102198
9.47794e-05
7.03163e-05
9.39232e-05
7.24145e-05
8.86511e-05
9.72573e-05
6.68248e-05
7.21709e-05
8.03457e-05
8.76523e-05
9.46145e-05
8.15728e-05
9.93246e-05
8.48338e-05
8.00503e-05
8.01015e-05
0.000100932
0.000101819
0.000101689
9.93568e-05
9.67996e-05
7.2364e-05
7.12085e-05
0.000100207
8.30199e-05
8.76641e-05
0.000101402
0.000105288
9.51079e-05
9.63192e-05
6.92705e-05
9.99856e-05
0.000102876
8.35743e-05
0.00010076
9.998e-05
9.62918e-05
9.18693e-05
9.39411e-05
8.28534e-05
7.12616e-05
9.63575e-05
7.37545e-05
7.13689e-05
8.71392e-05
9.54014e-05
9.60479e-05
9.7439e-05
9.62384e-05
9.66403e-05
6.80825e-05
8.27786e-05
0.000102097
0.000102692
7.25158e-05
8.70063e-05
7.50899e-05
9.0976e-05
0.000101669
8.45571e-05
9.13698e-05
0.000100748
8.9176e-05
7.11765e-05
0.000100843
7.16511e-05
9.95282e-05
9.85285e-05
9.85099e-05
0.000101826
9.83493e-05
0.000100747
7.1795e-05
0.000101124
0.00010192
7.64103e-05
9.9337e-05
9.47299e-05
8.57235e-05
0.000100816
8.66423e-05
9.93699e-05
0.000101905
0.000101181
9.6771e-05
0.000101141
9.55453e-05
9.29694e-05
7.71127e-05
8.94604e-05
7.3499e-05
6.98407e-05
8.76054e-05
9.89319e-05
9.48581e-05
0.000102737
9.32916e-05
0.000101187
6.9397e-05
0.000102027
0.000103219
9.98237e-05
9.9029e-05
7.60173e-05
7.03639e-05
9.52939e-05
7.001e-05
9.90898e-05
9.62449e-05
6.83092e-05
8.4445e-05
0.000100154
9.71557e-05
6.74744e-05
7.8534e-05
6.79861e-05
0.00010179
7.25066e-05
9.89536e-05
8.80243e-05
7.31792e-05
9.78705e-05
0.000100223
0.000103888
9.91775e-05
7.31862e-05
9.08687e-05
0.000103106
7.53594e-05
0.000100807
9.60815e-05
9.84451e-05
7.12662e-05
9.85627e-05
8.46923e-05
9.36885e-05
8.43657e-05
9.30765e-05
8.25211e-05
8.38258e-05
8.52853e-05
8.29581e-05
9.77551e-05
9.40944e-05
0.000101058
7.87787e-05
9.4216e-05
9.74619e-05
0.000100106
9.9347e-05
7.39172e-05
9.89118e-05
7.35544e-05
9.2145e-05
0.000103467
0.000102785
8.7754e-05
8.64744e-05
9.77884e-05
8.25117e-05
9.30609e-05
8.72683e-05
7.39813e-05
7.17036e-05
9.76825e-05
0.00010234
8.94529e-05
8.39031e-05
0.000102494
7.26972e-05
9.89566e-05
7.3723e-05
9.08104e-05
0.000102277
9.55079e-05
7.12996e-05
0.000101769
7.26975e-05
9.8736e-05
9.61676e-05
7.14526e-05
0.000100415
7.58432e-05
8.13676e-05
8.55652e-05
6.86183e-05
7.91073e-05
8.98695e-05
6.71222e-05
9.80336e-05
0.00010422
6.90788e-05
7.97513e-05
0.000100675
9.39713e-05
9.7626e-05
0.000103521
9.95743e-05
9.42898e-05
7.73127e-05
7.15522e-05
6.67042e-05
7.83419e-05
0.000102254
9.87078e-05
9.11826e-05
9.59501e-05
7.27705e-05
7.30148e-05
9.33184e-05
9.82104e-05
6.64287e-05
9.61746e-05
9.60023e-05
8.65714e-05
9.92184e-05
9.12401e-05
0.000101671
7.82774e-05
8.53387e-05
0.000104408
6.52353e-05
9.44816e-05
0.000101642
0.000101852
9.15123e-05
0.000100135
9.77843e-05
7.16257e-05
0.000103141
0.000102128
9.40995e-05
9.75267e-05
9.1455e-05
9.45771e-05
9.89583e-05
9.29568e-05
9.68196e-05
9.54593e-05
9.1932e-05
7.1776e-05
8.42935e-05
0.000103079
9.7432e-05
0.000103244
9.74465e-05
8.88457e-05
0.000102402
7.52704e-05
0.000100839
7.2412e-05
0.000101607
9.27159e-05
8.27254e-05
0.000100715
8.20957e-05
8.57093e-05
0.000102529
8.37081e-05
0.000102873
0.00010171
9.75639e-05
7.47432e-05
9.64649e-05
9.45648e-05
7.92867e-05
0.000101455
9.21339e-05
9.40632e-05
0.000104197
7.22702e-05
9.92994e-05
9.65181e-05
9.98649e-05
8.39257e-05
9.53279e-05
7.27807e-05
7.61609e-05
0.000108213
7.33312e-05
9.69832e-05
0.000101044
7.3874e-05
8.5806e-05
0.000102463
7.8617e-05
7.70241e-05
7.77493e-05
8.37249e-05
8.34619e-05
0.000105571
8.44189e-05
0.000102648
9.54827e-05
0.000101789
7.18029e-05
8.13727e-05
9.98976e-05
9.53906e-05
7.30751e-05
7.61584e-05
8.55023e-05
7.45987e-05
7.17227e-05
9.46147e-05
9.27055e-05
0.000101314
9.1958e-05
0.000101221
9.91546e-05
9.54738e-05
9.98861e-05
9.3428e-05
7.96166e-05
8.91423e-05
9.90726e-05
9.31477e-05
9.00779e-05
0.000101503
9.4261e-05
7.08718e-05
7.05481e-05
8.58063e-05
7.87632e-05
9.14507e-05
0.000100981
8.80603e-05
9.66093e-05
0.000100438
9.94825e-05
0.000102715
8.752e-05
7.48131e-05
8.96615e-05
8.42552e-05
0.000101786
8.83851e-05
9.79136e-05
0.000100513
8.32718e-05
8.40734e-05
9.82859e-05
0.000101088
9.89226e-05
0.000106704
9.53502e-05
8.58524e-05
8.79198e-05
7.85162e-05
8.5314e-05
0.000101489
7.79453e-05
0.00010059
9.12767e-05
0.000100906
7.60344e-05
9.89973e-05
9.69838e-05
0.000101432
9.56489e-05
8.99077e-05
9.56011e-05
0.000100552
7.17481e-05
7.56447e-05
9.47791e-05
8.19e-05
8.81224e-05
9.59669e-05
9.61947e-05
0.000102329
9.1938e-05
7.14671e-05
7.89972e-05
7.26859e-05
8.86582e-05
9.58444e-05
7.58567e-05
0.000103845
9.46286e-05
8.3788e-05
9.31029e-05
7.63603e-05
7.58496e-05
0.000103638
7.49758e-05
6.84991e-05
8.19693e-05
8.25809e-05
7.63447e-05
7.73335e-05
0.000102312
9.98204e-05
8.028e-05
9.88084e-05
0.000100643
9.52225e-05
9.71054e-05
6.98922e-05
0.000102002
5.67139e-05
0.000100315
7.39737e-05
7.02073e-05
9.98905e-05
7.01939e-05
8.60675e-05
9.10898e-05
0.000102005
8.28675e-05
9.45578e-05
8.25039e-05
9.43884e-05
9.20474e-05
9.0855e-05
8.68541e-05
9.76032e-05
9.30252e-05
7.43886e-05
9.89931e-05
9.23153e-05
8.68619e-05
8.6475e-05
7.57624e-05
8.61246e-05
7.17413e-05
7.13822e-05
9.62882e-05
8.34033e-05
7.40227e-05
8.24039e-05
9.8206e-05
0.000100382
9.65042e-05
6.01436e-05
7.2626e-05
0.000102943
7.30225e-05
9.72271e-05
7.07947e-05
0.000101221
9.94127e-05
0.000102879
7.29813e-05
8.78062e-05
0.00010245
0.000102049
9.09676e-05
0.000103292
9.35133e-05
9.12052e-05
9.37565e-05
7.22338e-05
9.14762e-05
8.16173e-05
9.61798e-05
9.49469e-05
8.1269e-05
9.15929e-05
0.00010064
7.89935e-05
7.62184e-05
7.27663e-05
9.73126e-05
9.77656e-05
7.09673e-05
9.55368e-05
9.51333e-05
9.25448e-05
7.4659e-05
9.69652e-05
8.41048e-05
9.86429e-05
7.48117e-05
8.50578e-05
9.43621e-05
6.81237e-05
0.000100439
7.4884e-05
7.63278e-05
9.11861e-05
0.000102234
6.75972e-05
9.79355e-05
9.93703e-05
9.09185e-05
6.93049e-05
0.00010144
0.000101127
6.78526e-05
9.46395e-05
6.65343e-05
7.63722e-05
0.000101102
8.53777e-05
9.27374e-05
0.000101084
0.000102035
9.00435e-05
8.08868e-05
9.4207e-05
8.67072e-05
8.66908e-05
8.22218e-05
9.85172e-05
7.22345e-05
9.24014e-05
8.59805e-05
8.55545e-05
0.000100109
9.19541e-05
9.79757e-05
9.38814e-05
9.46513e-05
0.000101762
9.26954e-05
8.54628e-05
8.05566e-05
9.73873e-05
9.03267e-05
8.98902e-05
9.66793e-05
0.000100753
9.22928e-05
0.0001031
9.07562e-05
9.85624e-05
8.03938e-05
7.3564e-05
9.48079e-05
9.78506e-05
7.53145e-05
9.20346e-05
9.4806e-05
6.60159e-05
7.09371e-05
0.000100679
7.20008e-05
9.32475e-05
0.000100765
9.18847e-05
7.31094e-05
9.29797e-05
0.000100398
7.30883e-05
7.52426e-05
7.48973e-05
9.94993e-05
9.53326e-05
9.611e-05
0.000105713
7.17804e-05
9.78314e-05
9.49833e-05
0.000101208
0.000103054
5.89254e-05
9.4434e-05
9.53931e-05
9.8997e-05
9.10024e-05
9.09111e-05
7.99872e-05
9.83357e-05
0.000101469
7.82445e-05
7.03254e-05
8.32739e-05
9.90461e-05
9.69097e-05
7.27755e-05
8.45679e-05
9.84954e-05
0.000101131
9.31923e-05
8.43197e-05
6.85513e-05
7.27975e-05
7.31401e-05
9.71369e-05
9.17629e-05
8.78599e-05
0.000100275
0.000100595
7.51805e-05
0.000100034
9.94603e-05
9.82642e-05
8.14911e-05
0.000100363
8.79582e-05
7.36756e-05
7.88789e-05
9.24166e-05
9.52236e-05
8.82045e-05
9.07202e-05
8.62701e-05
9.90097e-05
7.35017e-05
7.30408e-05
9.30125e-05
0.000100309
9.77156e-05
8.51711e-05
8.41828e-05
9.97844e-05
0.000103098
9.05302e-05
8.14817e-05
9.89951e-05
0.000100527
9.33884e-05
0.000100881
0.000100757
9.57591e-05
7.10355e-05
8.24337e-05
7.12698e-05
9.29073e-05
0.000101922
8.3152e-05
7.21228e-05
0.000102174
7.52061e-05
8.31709e-05
7.73252e-05
8.68067e-05
7.26912e-05
9.73602e-05
9.49517e-05
9.24184e-05
8.85082e-05
7.68135e-05
0.000102566
7.49457e-05
9.23245e-05
8.84483e-05
9.32609e-05
7.36604e-05
0.000100353
9.78655e-05
7.14085e-05
7.84127e-05
8.76597e-05
8.37626e-05
9.25594e-05
7.00458e-05
9.81124e-05
8.33286e-05
9.46877e-05
8.08489e-05
8.17381e-05
8.23306e-05
7.19596e-05
9.93029e-05
8.43728e-05
4.36209e-05
7.25769e-05
8.80039e-05
0.000100735
9.81267e-05
7.68145e-05
7.80226e-05
9.72932e-05
7.15149e-05
9.96116e-05
0.000101141
8.96757e-05
7.57205e-05
9.86081e-05
7.12324e-05
7.27367e-05
7.04352e-05
9.7632e-05
9.42599e-05
8.19866e-05
9.98058e-05
9.2016e-05
9.55703e-05
7.46259e-05
6.48197e-05
0.000100989
9.43342e-05
0.000101722
0.000100551
7.30118e-05
9.49214e-05
8.76035e-05
9.1206e-05
9.47069e-05
8.15745e-05
8.25258e-05
0.000107429
9.72278e-05
8.21336e-05
7.40933e-05
9.14836e-05
9.48541e-05
9.37319e-05
8.4146e-05
7.12597e-05
7.43495e-05
9.10002e-05
9.31407e-05
9.02031e-05
0.000101102
8.13717e-05