/*--------------------------------*- C++ -*----------------------------------*\
| =========                 |                                                 |
| \\      /  F ield         | OpenFOAM: The Open Source CFD Toolbox           |
|  \\    /   O peration     | Version:  2212                                  |
|   \\  /    A nd           | Website:  www.openfoam.com                      |
|    \\/     M anipulation  |                                                 |
\*---------------------------------------------------------------------------*/
FoamFile
{
    version     2.0;
    format      ascii;
    arch        "LSB;label=32;scalar=64";
    class       volScalarField;
    location    "0.006";
    object      p;
}
// * * * * * * * * * * * * * * * * * * * * * * * * * * * * * * * * * * * * * //

dimensions      [0 2 -2 0 0 0 0];

internalField   nonuniform List<scalar> 
31639
(
0.0198808
0.0138231
0.0227716
0.0101702
0.0138862
0.019657
0.0217456
0.0207974
0.0149148
0.0126283
0.0216698
0.014032
0.0144825
0.0190747
0.0165848
0.0233293
0.0269772
0.02757
0.00457647
0.0210971
0.0152774
0.0117187
0.0161457
0.0100979
0.0173859
0.0208413
0.0201199
0.0638433
0.0208275
0.0208161
0.0111767
0.0298563
0.014687
0.00820935
0.0363564
0.0207716
0.0119781
0.0214979
0.0215863
0.0179251
0.0142807
0.0202336
0.0158409
0.0222916
0.0229516
0.00956464
0.0141621
0.0112201
0.0240858
0.0102269
0.00939837
0.00769831
0.0366504
0.0225271
0.00736055
0.0277455
0.012273
0.0200636
0.0138873
0.0096574
0.0105887
0.0203824
0.0167511
0.020677
0.0367742
0.00584707
0.00377724
0.0114268
0.014217
0.00896203
0.0129294
0.0274279
0.0123833
0.00515528
0.0372683
0.0293483
0.0128909
0.0118014
0.0137621
0.0130193
0.0196932
0.0189264
0.0184968
0.0104425
0.0184974
0.0171996
0.0159674
0.011199
0.00324816
0.0146601
0.008438
0.0269807
0.0100421
0.0134236
0.00636835
0.0200395
0.0108851
0.00766145
0.0143889
0.0191811
0.0344434
0.0344685
0.0173082
0.0130706
0.00737008
0.00914766
0.019119
0.00999764
0.0111876
0.0176116
0.0217965
0.0191917
0.0202834
0.0118177
0.00527869
0.0214498
0.0362909
0.0223048
0.0345107
0.0106856
0.0299984
0.00933094
0.00476352
0.0103102
0.019366
0.018865
0.0136671
0.0103357
0.0127892
0.0152202
0.0361883
0.00153615
0.0230136
0.00542274
0.00631984
0.0115425
0.012101
0.0133192
0.00949508
0.0106075
0.0105561
0.0156424
0.0169313
0.00962965
0.0143993
0.018572
0.0351235
0.0119034
0.017866
0.0371469
0.0108074
0.0247378
0.00782687
0.00694793
0.00874272
0.00693477
0.00498173
0.0130246
0.0246162
0.0114731
0.00622924
0.0270285
0.0118549
0.0202811
0.0292998
0.0291809
0.0223597
0.0253438
0.0078737
0.0053996
0.0255894
0.0192487
0.025912
0.0146165
0.0181096
0.0126741
0.0165696
0.0299549
0.0116151
0.0174887
0.0146827
0.0240833
0.020355
0.0214997
0.0214268
0.0205316
0.0251206
0.0175541
0.0192939
0.0235187
0.0238561
0.0125962
0.0243346
0.00750775
0.00834362
0.00862139
0.00856552
0.0134937
0.00868749
0.0215386
0.0181411
0.0275099
0.0239727
0.0253207
0.0122981
0.0105404
0.00436657
0.00743365
0.0305991
0.00854373
0.00822416
0.0177698
0.0344238
0.0184768
0.022095
0.0186411
0.0189334
0.0184773
0.025952
0.0139866
0.0144186
0.0176004
0.0185703
0.0260301
0.0225479
0.0128653
0.0234899
0.0227057
0.0159122
0.0297674
0.00760833
0.0214199
0.0271975
0.0235685
0.0244994
0.0041452
0.00403916
0.0247868
0.0203298
0.0073301
0.0105554
0.0223103
0.0259278
0.0243276
0.0107578
0.0279733
0.00818275
0.0291564
0.0236324
0.00428291
0.00123978
0.00973075
0.0241946
0.0280024
0.0135823
0.0144969
0.0200333
0.00624003
0.0198854
0.0228716
0.00956734
0.00775714
0.0136126
0.0190799
0.0136602
0.0184577
0.00303052
0.0353549
0.0220639
0.0197098
0.0450085
0.00899759
0.0200039
0.0246924
0.0117837
0.0235004
0.00849076
0.0260533
0.0111289
0.00952084
0.0292437
0.0299882
0.0300643
0.0395919
0.0213192
0.0212949
0.0260675
0.0250546
0.00473515
0.0237337
0.0269265
0.00218002
0.00763743
0.00775989
0.0224186
0.00660306
0.0271317
0.00372536
0.0105853
0.0119541
0.0113646
0.0258065
0.00820169
0.00754052
0.0167122
0.00654831
0.0191659
0.00441746
0.0160294
0.0261966
0.011027
0.0439517
0.0353053
0.0153464
0.0143395
0.0201482
0.00378739
0.0304544
0.0234263
0.0230584
0.0223128
0.00926107
0.0339911
0.00727904
0.0181312
0.0249652
0.0221852
0.0249044
0.0079815
0.0092011
0.00938435
0.0101107
0.0261788
0.00760345
0.0274066
0.036591
0.0372464
0.0113849
0.0253818
0.0284824
0.00639945
0.00314965
0.0277496
0.00593007
0.00820218
0.0257591
0.00736338
0.0226715
0.0225129
0.0342215
0.0123862
0.0261209
0.0123242
0.0239532
0.00742231
0.00985461
0.00825557
0.0165837
0.0168422
0.0246857
0.0270972
0.0167133
0.0437882
0.00494445
0.0115032
0.0105597
0.00565409
0.0168132
0.0179605
0.0250631
0.0161103
0.0307604
0.0193246
0.00898075
0.00588807
0.010098
0.0353218
0.0293752
0.0245541
0.0304538
0.0231348
0.00772999
0.0112561
0.00768525
0.00699359
0.00664724
0.00807181
0.0140443
0.00120735
0.0278232
0.00428621
0.0311225
0.00825513
0.0261342
0.00723568
0.0263611
0.0278718
0.0212379
0.010356
0.0412174
0.0276115
0.021405
0.0207451
0.00718399
0.0245219
0.00394221
0.0107921
0.0108749
0.0112783
0.0213924
0.00935963
0.0108958
0.0242183
0.0451138
0.0223764
0.0246064
0.0177628
0.0191792
0.0171794
0.0142622
0.0138186
0.0341169
0.0163263
0.00167925
0.0245241
0.0447299
0.0156114
0.0332575
0.0192394
0.0227491
0.00999761
0.00822101
0.0259888
0.00946255
0.0206415
0.0207326
0.025164
0.0061758
0.00760734
0.0270481
0.0114086
0.00425648
0.00487928
0.018696
0.00641599
0.0115478
0.0121565
0.0283431
0.0276396
0.0300849
0.0282456
0.0246343
0.0120128
0.0252704
0.0112283
0.0271447
0.0305699
0.00932367
0.0247884
0.0102006
0.0203387
0.029147
0.0195399
0.00510806
0.0236938
0.0667271
0.00509337
0.0156899
0.0105152
0.0230574
0.00307166
0.00811651
0.0094522
0.0081049
0.0252327
0.00203135
0.0160926
0.0329701
0.0143769
0.0166538
0.00983238
0.0352435
0.00638391
0.0132595
0.0339391
0.0439768
0.015828
0.0227354
0.0184451
0.0122186
0.00957348
0.00754201
0.0293609
0.00346188
0.0196425
0.0187743
0.0176939
0.00529677
0.00802331
0.0285812
0.0324372
0.00436227
0.00476058
0.00526204
0.00284431
0.0382807
0.0109031
0.00435156
0.0306793
0.033973
0.0303452
0.00648782
0.0273385
0.0254238
0.0287065
0.00332608
0.033966
0.0341684
8.58926e-05
0.0294395
0.0284686
0.029601
0.0188006
0.0316589
0.00152888
0.00504764
0.0283623
0.00436064
0.00538576
0.00887135
0.0217097
0.0143313
0.0263629
0.00174408
0.00940591
0.0149055
0.0318626
0.00201855
0.0249483
0.00362039
0.0440882
0.0447494
0.0105107
0.0642342
0.0108122
0.0107243
0.0175582
0.0177717
0.0121879
0.0170389
0.0460217
0.0123927
0.0247693
0.0010632
0.0111374
0.0173627
0.00996088
0.0282799
0.00205063
0.00674764
0.0168378
0.00634798
0.0154346
0.0158935
0.00837654
0.0358213
0.00596818
0.00451063
0.00100666
0.0199444
0.0325275
0.00490843
0.000949161
0.00576077
0.0066202
0.00503606
0.0303017
0.000251788
0.00229192
0.0015498
0.0271866
0.00333919
0.028214
0.0293051
0.0305732
0.0091514
0.000629625
0.00076748
0.00446787
0.00109565
0.0186154
0.00160697
0.0186608
0.0299072
0.00247016
0.0107986
0.0145647
0.0354773
0.0327237
0.0260027
0.0123615
0.00600273
0.0342055
0.0294434
0.00257885
0.00282466
0.012726
0.0210682
0.00891708
0.00205025
0.000404684
0.00152106
0.0284712
0.0237024
0.0109113
0.0654808
0.023561
0.0178493
0.0125161
0.019319
0.0251057
0.0250117
0.0173067
0.0111158
0.014067
0.0145292
0.023844
0.00522677
0.0170377
0.00199962
0.0185852
0.043403
0.0297808
0.0280324
0.0203365
0.0164875
0.0398068
0.0182672
0.0221035
0.00921888
0.0351508
0.0330508
0.00481483
0.0178286
0.0203802
0.000553925
0.0401294
0.0108403
0.00196516
0.0052688
0.00273509
0.0356344
0.0324043
0.0331712
0.00479749
0.000435339
0.0281499
0.0187901
0.0299047
0.030562
0.0304727
0.00190242
0.000634765
0.0290521
0.0251453
0.0258949
0.0309399
0.00179114
0.0109178
0.0449468
0.00631573
0.00336985
0.0316272
0.0177067
0.0076928
0.0287561
0.0284547
0.0228556
0.0133609
0.00856787
0.0208206
0.0116884
0.000773951
0.00124681
0.00235681
0.00883211
0.00339186
0.0356114
0.0126556
0.000695887
0.000952529
0.0272568
0.0095687
0.0011021
0.0666532
0.00891927
0.0106855
0.0141153
0.0161384
0.0138075
0.0175235
0.0167691
0.0110372
0.0126242
0.018486
0.0115408
0.0107568
0.0124094
0.0164574
0.0314165
0.017629
0.0167694
0.027569
0.0356869
0.0301699
0.00847812
0.0164491
0.00463862
0.0185142
0.0369842
0.00134121
0.00332693
0.00274777
0.00949985
0.0108987
0.0273186
0.0258579
0.00784725
0.00286232
0.0212767
0.0355299
0.0011167
0.0292808
0.0113194
0.0267215
0.0249021
0.0258875
0.0337112
0.0312247
0.0400273
0.0284427
0.0237449
0.030016
0.0268245
0.0277332
0.00989454
0.0350894
0.00979217
0.00252759
0.00663966
0.0271643
0.000396831
0.0224851
0.00535747
0.00735727
0.0224623
0.0136475
0.0336026
0.00632183
0.0235936
0.00754061
0.0389377
0.0111561
0.00135138
0.00174166
0.0317528
0.021038
0.00131563
0.00334719
0.00218529
0.006895
0.000655583
0.000443916
0.0269
0.0258836
0.000475444
0.0257382
0.0231999
0.0277077
0.0151101
0.0150895
0.0121881
0.0195613
0.0202529
0.00946098
0.00146239
0.0177592
0.0247016
0.0180354
0.0338617
0.0300348
0.0178166
0.0289908
0.0111887
0.0450088
0.00520297
0.0296246
0.0174383
0.000475313
0.0199309
0.00515584
0.0103368
0.00444072
0.00476324
0.0225746
0.0317965
0.00791791
0.0284303
0.00109455
0.001583
0.00106868
0.0373357
0.0371626
0.0355744
0.0381799
0.0316677
0.0293785
0.00978335
0.00652215
0.0109875
0.0026006
0.0207361
0.00916328
0.0247937
0.0134247
0.0105566
0.00338175
0.000246742
0.00769595
0.00416228
0.0332382
0.014345
0.00778839
0.00735566
0.0138231
0.00157048
0.0232868
0.0075025
0.0292507
0.00526287
0.00382847
0.0192063
0.01927
0.0293862
0.0351775
0.030969
0.0237098
0.0133092
0.014518
0.0282558
0.000452273
0.00139946
0.0276282
0.0281413
0.000282256
0.000840809
0.00424486
0.0278402
0.00780549
0.0168384
0.035975
0.0347389
0.0175192
0.0418825
0.0131865
0.0115707
0.011861
0.00791883
0.00482088
0.0291561
0.00491674
0.0177623
0.0215741
0.0331628
0.0104376
0.0117782
0.0111152
0.0267082
0.027154
0.0272344
0.0383836
0.00347893
0.0309206
0.0307055
0.0312869
0.0169282
0.000549009
0.0364307
0.0378581
0.0349697
0.0205033
0.0214125
0.0236174
0.022148
0.0261125
0.0202257
0.000927227
0.0278207
0.0127355
0.00910982
0.0282673
0.00203675
0.0012725
0.00474911
0.00429604
0.0340296
0.0135268
0.00484888
0.00702785
0.0120445
0.025126
0.0117592
0.0107317
0.0227736
0.0158802
0.00101201
0.0292835
0.0185388
0.0304367
0.0156444
0.00307158
0.0238534
0.0236643
0.00119091
0.0135958
0.0125684
0.000994807
0.00124081
0.0289259
0.0333122
0.0133403
0.0171496
0.00200057
0.0310181
0.0385297
0.0321484
0.0221959
0.0101925
0.0296086
0.0224072
0.0121133
0.0164886
0.00930203
0.00901731
0.0151214
0.0284347
0.00513553
0.0181351
0.0117564
0.0106665
0.000497343
0.0316408
0.0125387
0.0328221
0.00886022
0.0269137
0.0311017
0.0151163
0.0153798
0.0325241
0.0263122
0.0294724
0.011379
0.0131086
0.0261405
0.0249583
0.0197063
0.0206505
0.0306104
0.0312216
0.0410386
0.0240837
0.0272915
0.00161674
0.00129137
0.0278528
0.0254456
0.0128456
0.0300827
0.0043266
0.021449
0.0235474
0.0297229
0.00360733
0.030558
0.0278047
0.0330004
0.0313597
0.0328746
0.0154158
0.0282383
0.0124209
0.0213187
0.0209219
0.019994
0.0341127
0.0316959
0.0306582
0.0258495
0.0140227
0.0184654
0.0202449
0.0311805
0.0199657
0.000331663
0.0325234
0.0356632
0.0167513
0.0143335
0.0056042
0.00442497
0.0117465
0.0317122
0.00974771
0.0106562
0.0389093
0.0159278
0.00568369
0.00824018
0.000817818
0.0151809
0.0170657
0.0155078
0.0289419
0.00105872
0.0335525
0.0027002
0.0327512
0.0316054
0.0386079
0.0147631
0.0148628
0.0129885
0.0244577
0.0215346
0.0255878
0.0392417
0.0286039
0.0303759
0.0198152
0.02431
0.0143861
0.0252521
0.0221573
0.00475908
0.00412715
0.0180905
0.00184657
0.0127987
0.033691
0.0355837
0.00648558
0.0327845
0.0215247
0.0344049
0.0184512
0.0193001
0.00279503
0.00141671
0.0250061
0.0224546
0.0108534
0.0144021
0.0134227
0.0208914
0.0146489
0.0282708
0.0306854
0.0390569
0.0299531
0.0323668
0.0196251
0.0138335
0.0162004
0.001328
0.00259036
0.00533733
0.0142481
0.012734
0.0226271
0.0131825
0.0236903
0.0268285
0.0297422
0.0135742
0.00886224
0.0401438
0.0212424
0.0356526
0.0353003
0.0156925
0.036198
0.00381698
0.0297527
0.00934968
0.0172378
0.00683991
0.0135081
0.0145326
0.034253
0.0344457
0.000968993
0.0311816
0.0370657
0.0427692
0.0138298
0.0261813
0.0301283
0.0307339
0.0121129
0.0131412
0.0282932
0.0427679
0.0282251
0.0050864
0.0250301
0.0419472
0.0242696
0.024075
0.0233168
0.0112123
0.0352409
0.0303088
0.0353204
0.00309347
0.024746
0.00222271
0.0210982
0.0298076
0.00623748
0.0296085
0.00880966
0.0285369
0.0388679
0.0167358
0.00061823
0.0185192
0.0202651
0.00129908
0.0124377
0.0129795
0.0201861
0.0143677
0.0409951
0.0326464
0.0127369
0.0126331
0.031659
0.0177144
0.0301024
0.0396944
0.0309359
0.00135486
0.00117406
0.0325696
0.0282124
0.0199542
0.0216378
0.0252169
0.0208025
0.0216184
0.0351665
0.0311171
0.0373642
0.0279551
0.0245962
0.0037071
0.0363342
0.00465443
0.0135263
0.0336652
0.0360917
0.0291251
0.0150307
0.0133334
0.000577991
0.0312813
0.019732
0.0333228
0.0181426
0.0350769
0.0374191
0.0234456
0.0250867
0.0149301
0.00725111
0.0408848
0.0194598
0.0250792
0.0190902
0.01783
0.0257992
0.0413012
0.0237099
0.0226531
0.0444781
0.00375711
0.034898
0.0214711
0.0429948
0.0223514
0.0178122
0.0346826
0.035326
0.0064726
0.0133153
0.007487
0.00884846
0.0304187
0.0159638
0.0175503
0.000602212
0.014169
0.0517313
0.0144166
0.0151456
0.0208264
0.0214519
0.0203836
0.0322585
0.0328334
0.0240835
0.012662
0.0324604
0.018151
0.0339504
0.0305725
0.0305863
0.0337713
0.0345261
0.0317797
0.0120903
0.00112046
0.0362379
0.0109403
0.0383738
0.0424368
0.039739
0.0144513
0.0363275
0.0244477
0.0038762
0.00323265
0.00505385
0.0325903
0.0339374
0.0335913
0.0310257
0.0371584
0.0147507
0.0127229
0.0338073
0.0380203
0.0180453
0.0337456
0.0359964
0.0238591
0.0138356
0.0409739
0.0362811
0.03147
0.0255465
0.0325671
0.0264488
0.0351883
0.00301986
0.0262972
0.0314547
0.036244
0.0258391
0.033897
0.0171535
0.0432141
0.0273367
0.00375148
0.032807
0.00778364
0.000457612
0.00730127
0.025749
0.0218256
0.0253228
0.0324928
0.0352504
0.0135945
0.0281034
0.0160255
0.0219929
0.0204391
0.0204642
0.0125168
0.0332122
0.0224638
0.0231148
0.0331524
0.0236451
0.0116277
0.0112951
0.0232604
0.0244816
0.0222404
0.0311993
0.0316652
0.0018457
0.021896
0.0330988
0.0318416
0.0228054
0.0231851
0.019155
0.0238174
0.0420121
0.00193613
0.0113443
0.0345266
0.00520761
0.0153073
0.0164344
0.0156935
0.039009
0.041024
0.00483928
0.0418639
0.0372877
0.026858
0.0265911
0.0379481
0.0275568
0.0351648
0.0328365
0.00656032
0.0147097
0.0398411
0.000579412
0.00101178
0.0381523
0.0354827
0.00590687
0.0375129
0.0274961
0.024265
0.0156238
0.0357744
0.035125
0.0125522
0.0331554
0.0307926
0.0272261
0.0242238
0.0015429
0.00250141
0.00170722
0.0276734
0.0318727
0.0201936
0.0364781
0.0402661
0.0196706
0.0177139
0.012428
0.00731732
0.0441552
0.00036397
0.0050216
0.0161835
0.00198276
0.000540645
0.000988872
0.0169517
0.0124444
0.00156796
0.0552284
0.0345912
0.0264908
0.0406287
0.0226319
0.0435921
0.00684516
0.0139487
0.0144525
0.0420592
0.0420255
0.0226436
0.0117884
0.0239557
0.0215253
0.0281935
0.0260804
0.0273548
0.0316317
0.00268093
0.0337238
0.0343843
0.0344597
0.0337436
0.0280506
0.0278387
0.021427
0.0194823
0.036348
0.0317157
0.0101429
0.00792214
0.0213103
0.0304863
0.040732
0.0101259
0.0112593
0.0121571
0.0303351
0.0383571
0.0402435
0.0395521
0.00321238
0.00165529
0.0377128
0.00125384
0.037197
0.0384408
0.00774812
0.0106808
0.0047033
0.0363152
0.0136557
0.0317692
0.0249874
0.0250458
0.0388785
0.0396277
0.0178184
0.0435161
0.0430876
0.0292075
0.0270038
0.000323811
0.000958896
0.0297921
0.0271829
0.0329677
0.0428363
0.065184
0.0435752
0.0339636
0.0436678
0.0346198
0.00432121
0.0319025
0.0367371
0.00478033
0.034295
0.00835319
0.0010082
0.033689
0.00148255
0.0157975
0.0170437
0.0167889
0.0155199
0.000572328
0.0033344
0.0109297
0.0412796
0.0385821
0.0279185
0.0163719
0.0209905
0.013287
0.0167983
0.012133
0.0159355
0.0157122
0.0142807
0.0293734
0.0250069
0.0342079
0.0251095
0.0338447
0.00242937
0.0330685
0.00155507
0.044036
0.0344908
0.0222079
0.0284317
0.0135965
0.0179289
0.00608868
0.00487165
0.0110043
0.00742971
0.0202017
0.0332522
0.0153792
0.0258772
0.0237158
0.0097484
0.0234414
0.0411158
0.00217207
0.00535757
0.00204173
0.0269035
0.0387451
0.0310938
0.0100517
0.00809503
0.0380163
0.00501751
0.0383556
0.0365602
0.0664441
0.0382505
0.0379888
0.0433397
0.0406217
0.0390242
0.0305101
0.00780389
0.0314732
0.00738113
0.0320992
0.033492
0.000264728
0.0409533
0.018879
0.00378303
0.0322173
0.0403365
0.0317167
0.0364852
0.0318323
0.0159752
0.0195339
0.0304863
0.0342967
0.037624
0.0403693
0.00132483
0.00537861
0.0255545
0.0340766
0.0319784
0.028274
0.029374
0.00200993
0.0283133
0.0151014
0.0159932
0.0153161
0.0135815
0.0179891
0.0217069
0.000910262
0.0346959
0.036209
0.0308971
0.00185295
0.0359775
0.0218156
0.0229305
0.0262317
0.0271192
0.0319473
0.0249622
0.0561102
0.00643331
0.022476
0.0350149
0.0270578
0.0271282
0.00532395
0.0249715
0.0385689
0.0437444
0.0318367
0.0145741
0.0376137
0.0133961
0.0247588
0.0399344
0.0423453
0.0249414
0.0426111
0.0419833
0.042121
0.0390507
0.0264386
0.0408225
0.0386345
0.0334329
0.0150773
0.0303136
0.0117864
0.00362909
0.0312968
0.00969542
0.0394939
0.0403439
0.0392489
0.0368144
0.0231005
0.0366746
0.0416231
0.0130168
0.00893424
0.0179869
0.0445562
0.030369
0.0295304
0.00768719
0.00686531
0.0347963
0.00216874
0.021293
0.0438411
0.0374439
0.0320675
0.0328857
0.0197325
0.0173739
0.00466502
0.0341512
0.000697374
0.0123945
0.0378721
0.00182154
0.00470425
0.00686878
0.00962792
0.00578439
0.027171
0.0298381
0.035189
0.0229396
0.014051
0.0512341
0.014192
0.0163305
0.0173293
0.0365978
0.0329475
0.0415876
0.0374354
0.0120753
0.0207233
0.0204358
0.0202653
0.0237699
0.0286626
0.0290097
0.0335848
0.0320332
0.0294854
0.0216493
0.0162437
0.0168237
0.00412584
0.0315159
0.037757
0.0132249
0.00550989
0.0564578
0.0212426
0.0384534
0.0257553
0.0391257
0.0469929
0.030008
0.0135509
0.0115798
0.0250736
0.0413044
0.0398849
0.0102933
0.0443718
0.000746252
0.000162889
0.0381893
0.0423527
0.0212012
0.0174959
0.0357863
0.00929338
0.0398925
0.0428331
0.0170708
0.0349408
0.0366996
0.054332
0.00962849
0.0412899
0.0241885
0.0250077
0.034339
0.0408725
0.00491217
0.0323782
0.0441832
0.0432536
0.0459862
0.00981522
0.0360989
0.034665
0.00483815
0.0283238
0.0412053
0.0293656
0.00437637
0.0126763
0.0270574
0.00866173
0.0293144
0.0128265
0.00114074
0.00144216
0.0181327
0.00511336
0.03914
0.0228688
0.010089
0.0173623
0.0407515
0.0406849
0.0361539
0.0376068
0.0399569
0.0231402
0.00422379
0.00862654
0.019775
0.0340367
0.0341371
0.0351333
0.035525
0.0244302
0.0237136
0.0214748
0.0296204
0.0262749
0.0264149
0.0284548
0.0433859
0.0312756
0.0339282
0.0290081
0.0323321
0.0322649
0.0162467
0.0314655
0.0244023
0.0149696
0.0220295
0.0501582
0.0248188
0.0556252
0.0327585
0.00958933
0.0149399
0.028695
0.0473254
0.026521
0.0249581
0.0110738
0.0328966
0.00130556
0.00292415
0.000799871
0.0409246
0.0406122
0.0412529
0.0211489
0.04479
0.00783752
0.0423721
0.0428449
0.041319
0.00434848
0.0472428
0.0414699
0.00332599
0.0443376
0.0250011
0.0259644
0.0248223
0.0341285
0.037289
0.0305154
0.0319986
0.0338946
0.0207552
0.0205113
0.00534278
0.0429248
0.0338954
0.0388311
0.0293841
0.0375021
0.0422459
0.0156128
0.0404453
0.00407372
0.0299761
0.0139399
0.00175138
0.000578169
0.0178714
0.0378076
0.0143046
0.0343624
0.0349281
0.0116022
0.0367867
0.0140478
0.0441094
0.0350483
0.043411
0.0327088
0.0178005
0.034723
0.0362934
0.040675
0.00920227
0.0357118
0.035473
0.0374597
0.0403035
0.0287931
0.0377671
0.0305871
0.00422061
0.0361725
0.0093471
0.027179
0.0286275
0.0196412
0.0314366
0.0477325
0.023987
0.0222875
0.02313
0.0161521
0.0304745
0.0113336
0.0200725
0.037546
0.0178339
0.0350173
0.0105203
0.0378158
0.03135
0.00976255
0.0266157
0.0395507
0.0103177
0.0310066
0.020365
0.00270599
0.000684984
0.00284028
0.0397337
0.0258828
0.0296707
0.0224482
0.022089
0.0394918
0.0431286
0.0416079
0.0316748
0.0409888
0.0333581
0.0436462
0.0225434
0.0443622
0.0439977
0.0437921
0.0425653
0.0414083
0.00479351
0.0344654
0.0413576
0.0317254
0.028547
0.0461846
0.0414115
0.0208158
0.0430249
0.00439541
0.0392374
0.0408699
0.0287639
0.0269727
0.0370274
0.0385061
0.0369671
0.00191414
0.0433803
0.0326499
0.0120403
0.0010255
0.0426962
0.0130733
0.00549959
0.00376193
0.000511678
0.0305157
0.00968566
0.0516544
0.0154535
0.0367212
0.0195218
0.0147181
0.0212292
0.0355574
0.015225
0.0424186
0.0351091
0.0206853
0.0400538
0.0354886
0.0304702
0.0477545
0.0321591
0.0410537
0.0263896
0.0444486
0.0260036
0.0257212
0.00539194
0.032814
0.0316862
0.0333912
0.0386901
0.0280747
0.0445693
0.0333551
0.0323183
0.00448269
0.00997839
0.044781
0.0235595
0.00878425
0.0239153
0.059173
0.0140947
0.046338
0.0104791
0.00198169
0.0173258
0.0183251
0.0163286
0.0307499
0.00950554
0.0284182
0.035435
0.0255044
0.00860981
0.00949005
0.0417673
0.00252665
0.0312431
0.0290982
0.019443
0.0390644
0.0465489
0.0200783
0.0390549
0.0363403
0.0323207
0.000591119
0.0312081
0.0350095
0.0415715
0.0425467
0.0481042
0.0445656
0.00545762
0.00361471
0.0450436
0.0054729
0.0402523
0.0432217
0.0401208
0.00847887
0.0491872
0.0189278
0.0358788
0.0431303
0.0387355
0.0398602
0.0383891
0.0363991
0.0333457
0.0196423
0.0366328
0.0275558
0.00328897
0.0177938
0.0400625
0.0363129
0.0471619
0.0499033
0.00290048
0.0261082
0.00430195
0.00795337
0.042075
0.00799963
0.00681486
0.0441775
0.0099261
0.0167824
0.0255627
0.0423138
0.000536287
0.041867
0.0357847
0.0200812
0.0411448
0.0433531
0.0222433
0.0410017
0.0332082
0.0444077
0.0408112
0.0402422
0.0294873
0.0455393
0.0318027
0.00904779
0.00973522
0.0443042
0.0331591
0.0405722
0.0491188
0.0363412
0.0389524
0.0485274
0.00948896
0.0442181
0.043383
0.0443853
0.0244179
0.0641978
0.00741822
0.0125717
0.0195689
0.0179085
0.0478831
0.0143131
0.0350745
0.0276284
0.029054
0.0268869
0.00994408
0.0180814
0.0115701
0.0414929
0.00204828
0.0440859
0.0449611
0.0459355
0.0213513
0.0377486
0.0567021
0.0352374
0.00316222
0.0403025
0.0136926
0.0169667
0.0466447
0.0216604
0.0462593
0.0466829
0.0311844
0.00507214
0.0414566
0.0398501
0.0413902
0.0310271
0.0408287
0.0408805
0.039381
0.0346692
0.0357405
0.0366803
0.0368499
0.0305011
0.0283059
0.00266972
0.0425831
0.0257246
0.02719
0.0300139
0.0153222
0.0127407
0.0512632
0.0398891
0.0363774
0.0465129
0.0480223
0.0179217
0.00741259
0.012345
0.0502636
0.0259288
0.0131802
0.0427823
0.0112223
0.0373159
0.0214468
0.00954038
0.00915302
0.0353202
0.0205631
0.0385247
0.00163014
0.0339965
0.00375733
0.0363515
0.0210277
0.0306401
0.0312596
0.0298552
0.0385194
0.0374197
0.0420315
0.0130802
0.0582316
0.0561194
0.0491154
0.0334376
0.033293
0.0260279
0.0351005
0.0394248
0.0415496
0.0474796
0.000346812
0.0184234
0.0202791
0.0632306
0.0424259
0.00504337
0.0432883
0.00560517
0.024857
0.0284398
0.0174501
0.0127071
0.0494165
0.0396286
0.0134097
0.0268472
0.0508802
0.0172092
0.0108219
0.00102196
0.024768
0.00359076
0.0459512
0.0106913
0.0485114
0.0581392
0.0144228
0.040461
0.000569646
0.00059844
0.0140171
0.0471119
0.0469334
0.0448641
0.0396391
0.00299303
0.0305006
0.0659063
0.0295595
0.039425
0.0376742
0.0391092
0.0398077
0.0313955
0.04373
0.0383222
0.0133222
0.00322671
0.003525
0.00360156
0.0367801
0.0412023
0.0231114
0.0411718
0.0097113
0.0100966
0.0115235
0.0355969
0.0479848
0.0473997
0.049843
0.0279161
0.0140199
0.0436512
0.0132233
0.0351709
0.0382455
0.0396774
0.0215453
0.0435806
0.0196852
0.0360288
0.037353
0.0358344
0.0188191
0.0267612
0.0668733
0.0166782
0.00427455
0.0343032
0.0291405
0.0361995
0.0237607
0.0278251
0.0295849
0.0314537
0.0259886
0.0380999
0.0556159
0.0286687
0.0430171
0.0197003
0.034984
0.0267595
0.0339494
0.0364872
0.0348698
0.0470822
0.00665844
0.0464245
0.0303828
0.00141362
0.0200151
0.0483758
0.0431135
0.0258087
0.00603731
0.0392216
0.0139851
0.0500238
0.0140399
0.0404034
0.0382185
0.045302
0.0341258
0.0415666
0.028305
0.00465852
0.0371593
0.00421
0.0454612
0.000601267
0.00149391
0.00959899
0.00347529
0.0310288
0.00159626
0.0503947
0.0507045
0.0424761
0.0436696
0.0477935
0.0477193
0.04615
0.0469886
0.0129991
0.050727
0.0461448
0.0101497
0.0434953
0.0535555
0.0301958
0.000436852
0.0417027
0.0455847
0.0392485
0.0362422
0.0409497
0.0489477
0.00473681
0.0431228
0.00204654
0.00123716
0.00038331
0.0373368
0.0264705
0.0114586
0.0218371
0.0426577
0.0633535
0.0298309
0.0390801
0.0402967
0.0486449
0.00372909
0.0665291
0.0448171
0.0129078
0.0319109
0.0155979
0.0333725
0.0412863
0.0157944
0.0444299
0.0344777
0.018713
0.0293225
0.0179959
0.0361597
0.0294917
0.0467829
0.0478705
0.0137747
0.0248971
0.0299507
0.029371
0.0400171
0.0567754
0.0203765
0.0399202
0.030273
0.0201592
0.0258509
0.0509324
0.028339
0.0263995
0.000195824
0.0540424
0.0531457
0.00187592
0.0436405
0.00333002
0.0329355
0.0503371
0.00751971
0.0464476
0.0467565
0.0493572
0.0475811
0.0381952
0.0390135
0.0427442
0.0116201
0.0410104
0.0139362
0.00370756
0.0217074
0.00587063
0.0388859
0.042395
0.0179998
0.01815
0.0219936
0.0494778
0.00559235
0.0421268
0.025218
0.0488494
0.0344805
0.0479498
0.0460019
0.0513814
0.0459727
0.00203794
0.0303689
0.0455655
0.0315542
0.0413195
0.0398968
0.00809368
0.047728
0.0363481
0.0503619
0.000326598
0.0459149
0.0111894
0.0246952
0.00328771
0.0389433
0.0382123
0.0591869
0.0360452
0.0119748
0.0448874
0.0429104
0.00143248
0.00101443
0.0585697
0.0400794
0.0139876
0.0653113
0.0157983
0.0250516
0.0436368
0.000688648
0.00485877
0.0661086
0.0126935
0.0188228
0.0188068
0.0310724
0.0428002
0.0246508
0.0179277
0.0434117
0.0490446
0.0457332
0.0424481
0.024888
0.0427407
0.0300343
0.0181147
0.0376079
0.0370278
0.0303255
0.0340264
0.0247056
0.0231611
0.0430817
0.0445251
0.0450086
0.0374531
0.0531713
0.0360494
0.0374717
0.0351774
0.0368059
0.0446984
0.0320816
0.00710714
0.0487292
0.0472733
0.0438666
0.00745031
0.0420614
0.0363941
0.0408642
0.0369234
0.0501616
0.0436854
0.00574568
0.0176854
0.0494938
0.0500884
0.0541287
0.00456556
0.0243078
0.0167171
0.0460408
0.044506
0.047873
0.0534949
0.0537963
0.0463432
0.0529494
0.0456252
0.0450323
0.0289937
0.0476295
0.0404011
0.052783
0.0644071
0.0398959
0.0373262
0.0663339
0.033021
0.0236501
0.0493864
0.0270247
0.0527546
0.00164374
0.0411831
0.0252523
0.0612644
0.0393919
0.0373507
0.0504857
0.0241511
0.00170941
0.0222899
0.0618917
0.00077339
0.000217969
0.0404552
0.015738
0.0167844
0.0166455
0.0120014
0.0102814
0.0113481
0.00960789
0.0180501
0.0471032
0.052892
0.00550286
0.0474616
0.0422173
0.00445889
0.0393195
0.0486978
0.0493397
0.0277075
0.0341447
0.0262198
0.0479809
0.0272819
0.0421654
0.0373701
0.0277026
0.0385506
0.047385
0.0267413
0.0265727
0.0381557
0.0375572
0.031586
0.0515156
0.00615559
0.0540147
0.0324841
0.0279956
0.0309685
0.0486995
0.0211978
0.0163917
0.0492797
0.0434781
0.0445308
0.0476395
0.0612846
0.0553146
0.0493584
0.0443915
0.0485347
0.051279
0.0495716
0.0305886
0.0517344
0.0497756
0.0143277
0.0446047
0.0330078
0.0519634
0.0429589
0.0511067
0.0256749
0.0459248
0.0323448
0.0376363
0.0478232
0.0518581
0.0141635
0.0421382
0.0333606
0.0325094
0.0341567
0.0532998
0.0431127
0.0454772
0.00103042
0.0386805
0.000359555
0.0457467
0.00403632
0.0625395
0.0155665
0.0321284
0.0125702
0.0122102
0.0109748
0.041716
0.0454614
0.0313711
0.0319995
0.0414678
0.0283954
0.0478836
0.0489324
0.0354993
0.0537908
0.0468566
0.0542167
0.0471377
0.0437551
0.0505908
0.0283933
0.0367965
0.0381819
0.0302608
0.00697971
0.0509361
0.0502412
0.0596705
0.0153844
0.0468036
0.0413967
0.0162758
0.0375228
0.0462612
0.0404267
0.0527875
0.050068
0.0478394
0.0522806
0.0385994
0.0499414
0.0516783
0.0502357
0.0493271
0.0409066
0.045759
0.0363095
0.0534504
0.0446055
0.0663865
0.0653779
0.0429926
0.0527687
0.0423954
0.0414453
0.0406099
0.0341993
0.0489
0.0430647
0.0467622
0.0491293
0.0536896
0.0469581
0.0401205
0.0448181
0.0447876
0.0525188
0.043095
0.0462846
0.0492755
0.0512391
0.00377928
0.046834
0.00491368
0.00567499
0.00605968
0.00284535
0.0463674
0.0100233
0.000938025
0.0338571
0.0461519
0.0632041
0.0643099
0.0531263
0.0423867
0.0518057
0.0282853
0.058777
0.0377849
0.0412574
0.0451687
0.0488793
0.031826
0.0483501
0.0501396
0.0361099
0.0388536
0.0503459
0.0394049
0.0581856
0.0505865
0.056058
0.0172411
0.00284014
0.0467327
0.0462103
0.0453131
0.05634
0.0479678
0.0576275
0.0477449
0.0514864
0.0304746
0.053671
0.038759
0.0518689
0.0408907
0.0523229
0.0537275
0.0323386
0.0473897
0.0352761
0.0493994
0.0348463
0.0497229
0.0431539
0.041444
0.0500303
0.0478397
0.043386
0.0475665
0.0330257
0.0576451
0.0448493
0.0478901
0.0492488
0.0511462
0.0138933
0.0345663
0.0517278
0.00489026
0.00694465
0.0530326
0.0464339
0.000630646
0.0630676
0.0418424
0.0584019
0.0459013
0.0400565
0.0400415
0.0548985
0.0458181
0.0392338
0.0414311
0.0446617
0.0460627
0.045582
0.0591365
0.0505598
0.0508807
0.0341819
0.0342207
0.0535872
0.0430573
0.0507312
0.0509046
0.0574933
0.0631708
0.0604271
0.0402506
0.0536157
0.04235
0.0497281
0.0485223
0.0416168
0.0190012
0.0529176
0.0642235
0.0516082
0.0396042
0.0456603
0.0396137
0.0655388
0.0365016
0.0469251
0.0397381
0.0416992
0.0498147
0.0527327
0.0421737
0.0505553
0.0494517
0.0447773
0.0512884
0.049784
0.0497299
0.0444461
0.0534454
0.0538599
0.0529104
0.0454783
0.051825
0.0523414
0.0519074
0.0159462
0.0529603
0.0376814
0.0386187
0.0478122
0.0573572
0.038063
0.0461733
0.0536752
0.0452623
0.0466063
0.039697
0.0604764
0.0445785
0.052627
0.0380475
0.0379781
0.0460416
0.0531798
0.0377568
0.0454121
0.0445535
0.0524664
0.0535036
0.0448833
0.0456193
0.057025
0.0571963
0.0468685
0.0562205
0.0555409
0.0495539
0.0564225
0.0231433
0.0564468
0.0530668
0.0520561
0.0526603
0.0505734
0.0528486
0.0585556
0.0476369
0.0528405
0.0417642
0.0483038
0.0430934
0.0496604
0.0497437
0.0605872
0.0506847
0.06012
0.0603612
0.0429813
0.0493191
0.0513552
0.0345934
0.0443401
0.0460454
0.046143
0.0584371
0.0509265
0.0396702
0.0452769
0.0372351
0.0543069
0.0377329
0.0394855
0.0451203
0.0464596
0.0469977
0.0526633
0.0518692
0.0527576
0.0437168
0.0386642
0.0410804
0.0516079
0.0537696
0.0354648
0.0529374
0.0602138
0.0558166
0.0443716
0.0514109
0.0502494
0.0522057
0.0485555
0.0478564
0.0590082
0.0443235
0.0477499
0.0561722
0.0438256
0.0507498
0.0520994
0.0422303
0.0520099
0.0340191
0.050114