/*--------------------------------*- C++ -*----------------------------------*\
| =========                 |                                                 |
| \\      /  F ield         | OpenFOAM: The Open Source CFD Toolbox           |
|  \\    /   O peration     | Version:  2212                                  |
|   \\  /    A nd           | Website:  www.openfoam.com                      |
|    \\/     M anipulation  |                                                 |
\*---------------------------------------------------------------------------*/
FoamFile
{
    version     2.0;
    format      ascii;
    arch        "LSB;label=32;scalar=64";
    class       surfaceScalarField;
    location    "0.006";
    object      phi;
}
// * * * * * * * * * * * * * * * * * * * * * * * * * * * * * * * * * * * * * //

dimensions      [0 3 -1 0 0 0 0];

oriented        oriented;

internalField   nonuniform List<scalar> 
68568
(
-1.3404e-07
1.38971e-07
-2.6183e-08
2.12527e-08
1.29605e-07
-6.58095e-08
-6.93873e-08
5.59213e-09
1.5583e-07
-1.19576e-07
-5.30215e-08
1.67672e-08
-4.26503e-09
2.25853e-09
-1.47583e-07
1.4959e-07
-1.40626e-09
1.25233e-07
1.15514e-09
-1.24982e-07
1.23956e-07
-4.09443e-10
-1.13401e-07
-1.01453e-08
7.4359e-08
-8.10093e-08
1.17924e-07
-1.11274e-07
-3.48822e-08
-2.36791e-08
1.3292e-07
1.16327e-07
-1.40105e-08
-9.82994e-08
-4.01668e-09
1.33236e-07
4.65884e-08
-5.02197e-08
8.8688e-08
1.21549e-07
-5.44069e-08
-5.72482e-08
-1.769e-07
1.68339e-07
-1.25082e-07
6.11622e-08
-5.46719e-09
1.61024e-07
-1.66212e-07
1.23919e-08
-7.20404e-09
-6.35359e-08
-4.61681e-08
1.08485e-07
1.21846e-09
1.14051e-07
8.03174e-08
-1.18744e-07
-7.56246e-08
-4.52652e-08
-7.02749e-08
1.02697e-07
1.28431e-08
1.03237e-07
-1.07682e-07
-4.082e-08
9.97225e-08
-4.41656e-09
-2.47054e-10
-9.50589e-08
7.65742e-08
-1.37373e-07
6.829e-08
-7.49121e-09
1.03857e-07
-3.18435e-10
-1.03605e-07
6.65199e-11
-1.53e-08
7.92045e-09
1.24063e-07
-1.16683e-07
-4.08679e-08
1.68046e-07
-2.42327e-08
-1.02945e-07
-4.59432e-10
-2.14243e-10
-1.22329e-07
1.23002e-07
-6.91342e-08
-4.38161e-08
1.0668e-07
6.2705e-09
-8.75501e-08
-3.57555e-08
-1.07348e-08
-5.81279e-08
1.26689e-07
8.01344e-09
6.87697e-08
4.19973e-08
-2.66377e-08
-8.41293e-08
-6.07592e-08
-9.21824e-08
1.18059e-07
4.28637e-08
-1.07159e-07
3.5359e-09
1.35351e-07
-7.28669e-08
-1.2743e-07
6.49459e-08
-1.20468e-08
2.46511e-09
1.07923e-07
-9.83416e-08
1.38946e-07
-2.93826e-08
-9.71796e-09
-9.98457e-08
1.09485e-07
-8.48061e-08
-5.26961e-08
2.80173e-08
-1.80204e-10
1.01207e-07
-1.01024e-07
-3.34287e-12
1.07873e-07
7.87943e-08
-7.90898e-08
7.50034e-10
-4.54491e-10
3.79555e-08
-1.40973e-07
8.22729e-08
2.07448e-08
-1.45133e-07
1.26651e-07
5.64378e-08
-6.89037e-08
2.25915e-11
-2.53056e-10
-8.26345e-10
1.05436e-07
-7.53332e-10
1.03546e-07
-1.03319e-07
-2.58661e-10
3.10422e-11
-2.37052e-08
-1.42245e-07
1.06897e-07
1.7186e-07
-1.31985e-07
-1.46773e-07
-5.43294e-08
-9.21706e-08
2.60551e-07
-1.29205e-07
1.4637e-07
-1.23258e-07
1.06093e-07
-1.12489e-07
6.02999e-08
-5.05919e-09
1.03062e-07
-1.00613e-07
-3.24543e-09
7.96464e-10
8.869e-08
2.28952e-08
1.02125e-08
-1.21798e-07
1.88123e-09
-1.36868e-07
1.32397e-07
3.08557e-08
-2.63854e-08
-7.4566e-09
-8.68986e-08
9.38704e-08
4.84899e-10
-1.84337e-07
1.23611e-07
1.63111e-07
-1.0124e-07
-3.53694e-10
-3.38253e-10
1.63459e-09
-1.33163e-09
9.74529e-08
-9.77559e-08
3.57856e-08
-1.04327e-07
-1.7337e-09
8.5063e-08
-9.08882e-08
3.24574e-09
2.57943e-09
-7.68362e-08
1.27556e-07
-5.6554e-08
5.83454e-09
1.31863e-07
-6.85567e-08
-6.65324e-08
3.22585e-09
8.43582e-08
-8.44519e-08
-3.65747e-10
-1.00658e-07
-1.82368e-09
1.04741e-07
6.77441e-08
6.41493e-08
-6.80832e-09
-1.25085e-07
-5.13834e-09
1.24061e-07
-1.19531e-07
6.08841e-10
7.99345e-08
-1.3506e-07
-3.00295e-09
9.79936e-08
-1.62641e-08
2.98962e-08
-1.11626e-07
1.32662e-07
-2.04993e-08
-1.50987e-07
3.88247e-08
3.7592e-08
7.31719e-08
-1.10412e-08
5.80207e-08
-1.14937e-07
6.33038e-08
-6.38767e-09
1.23338e-07
-1.24791e-07
4.72282e-11
-8.92687e-08
1.271e-07
-2.81493e-08
-9.68169e-09
-1.83585e-07
-1.36278e-07
2.58704e-07
6.11596e-08
-1.0326e-07
4.347e-09
1.04459e-07
-6.43608e-09
1.22272e-07
-1.29466e-07
-4.77443e-08
5.4938e-08
-1.12735e-07
5.83984e-08
6.04043e-08
-6.06713e-09
-8.81626e-08
-4.39077e-08
-4.38644e-08
-9.40324e-08
9.398e-08
4.59257e-11
6.40335e-12
3.53709e-08
1.55794e-07
-5.93017e-08
9.65967e-08
-5.64018e-08
4.48681e-08
-6.58492e-08
-7.2755e-08
1.34615e-07
3.98949e-09
-4.0413e-10
-1.95918e-07
-3.3759e-10
1.96659e-07
6.88709e-08
-4.23423e-08
7.70176e-08
-2.79117e-12
6.07245e-08
-6.06592e-08
-6.2563e-11
-1.71347e-08
1.25938e-07
5.91213e-08
-1.67925e-07
1.52404e-07
-7.68651e-08
-8.01559e-08
4.61679e-09
1.08603e-07
3.36897e-08
-3.2355e-08
-1.09938e-07
1.45062e-07
-6.90446e-08
6.84123e-08
-1.4443e-07
3.1357e-08
1.16536e-08
1.02051e-07
-7.97799e-08
7.61605e-08
-1.43964e-07
1.15242e-07
3.98245e-10
-1.11903e-07
-3.7376e-09
-3.51786e-08
-2.50376e-07
1.73066e-07
7.57279e-08
7.66411e-08
-5.99852e-09
-5.27988e-10
3.95813e-10
8.43708e-08
-8.42386e-08
-1.13487e-07
1.13641e-07
-3.68577e-10
-5.41918e-08
1.08634e-07
5.8581e-09
6.44592e-09
7.88681e-08
-4.16288e-09
-8.1151e-08
-1.15177e-07
5.12151e-08
8.05196e-08
-1.6558e-08
-4.00408e-08
-7.31348e-08
-9.15299e-09
-7.39705e-08
1.44655e-07
5.04337e-09
6.53988e-08
6.81688e-08
-1.28884e-07
-4.68325e-09
1.05441e-07
6.37677e-10
-1.05622e-07
-4.57337e-10
-4.5381e-09
-1.25675e-07
-1.22885e-08
1.3079e-07
-1.32048e-09
1.0462e-07
-1.07653e-07
5.20387e-08
-6.97177e-09
9.04239e-08
-5.89038e-10
-8.87331e-08
-1.10174e-09
1.11798e-07
-6.78226e-10
1.21946e-07
-4.09361e-08
7.13938e-08
-3.55825e-11
-9.5567e-08
-3.23938e-09
1.03254e-07
-4.44713e-09
8.44276e-08
-4.56741e-08
-8.32785e-08
1.08673e-11
8.35226e-08
-2.55035e-10
-3.14627e-08
-1.22653e-07
1.31537e-07
2.25791e-08
-1.2774e-09
1.1962e-07
-1.17947e-07
-3.95623e-10
-7.87162e-08
-3.31069e-08
1.1263e-07
-8.07221e-10
-4.15269e-09
2.26033e-09
-9.8766e-08
-1.47017e-07
7.94656e-08
7.31754e-08
-5.62368e-09
2.14302e-10
-9.36167e-08
9.36795e-08
-2.7707e-10
1.23735e-07
-3.03729e-10
-5.01953e-11
-9.96884e-08
1.52748e-10
9.95859e-08
-9.49405e-08
1.86377e-08
8.78919e-08
1.18218e-07
-6.48429e-08
4.64548e-09
1.2634e-07
-1.25741e-07
-1.26459e-08
-1.12271e-07
1.26376e-07
1.67908e-08
-3.08963e-08
6.44617e-08
-6.63684e-08
1.34569e-07
3.78671e-09
1.01157e-07
1.35752e-07
-1.23231e-09
-1.35797e-07
6.13405e-08
-1.27767e-07
-3.88358e-09
7.03096e-08
1.29254e-07
-7.12078e-08
7.35271e-09
9.2633e-08
-9.06699e-08
-1.0366e-07
5.21235e-08
-2.75536e-08
-1.35215e-07
1.29379e-07
-1.71831e-08
2.30185e-08
1.46424e-07
4.0058e-08
-3.963e-08
-1.46849e-07
-6.63973e-08
-2.66291e-08
7.22722e-08
2.07543e-08
-1.16998e-07
6.15293e-08
-4.8405e-08
1.03874e-07
-1.36261e-07
-2.76908e-09
1.41574e-07
-2.54424e-09
-9.70314e-08
1.79109e-08
-5.71408e-08
-1.46872e-07
-5.77486e-09
8.76815e-08
-1.4103e-09
-1.03616e-07
-4.48216e-10
-9.71226e-08
1.26072e-07
-6.63181e-08
5.61109e-09
1.40362e-07
-7.4331e-08
-7.20535e-08
6.02223e-09
-1.19243e-07
1.60983e-07
-4.12331e-08
-5.06724e-10
7.47658e-08
-7.44555e-08
-1.19554e-07
8.79194e-08
6.98945e-09
-2.27586e-09
5.96424e-10
9.65019e-08
-9.63244e-08
-7.73853e-10
1.69371e-07
-4.3066e-08
-9.26152e-08
-9.82641e-08
1.20433e-07
1.06101e-07
-1.01297e-07
-2.54354e-09
-1.45186e-09
9.44401e-08
-9.31258e-08
1.37559e-10
-8.14543e-09
-1.21525e-07
1.18246e-07
1.14241e-08
-1.27263e-07
1.43369e-07
-9.57791e-09
-6.52774e-09
1.09571e-07
-2.95914e-09
-1.07441e-07
9.85866e-09
-6.9502e-09
-8.77821e-08
8.72758e-08
2.96207e-08
-5.80583e-09
-1.20846e-07
-1.90253e-08
1.02029e-07
-7.69657e-08
-6.03815e-09
1.41424e-07
-5.83604e-09
-1.19933e-08
-1.23594e-07
1.3966e-07
8.5935e-11
-1.81263e-09
-1.37933e-07
1.24896e-07
-1.42247e-09
-1.36204e-10
1.18987e-07
-1.19324e-07
3.13854e-10
2.3695e-11
-1.12895e-07
-7.58687e-08
1.15629e-07
1.89867e-08
-1.52221e-07
-1.02453e-07
1.02465e-07
-6.84036e-11
5.65606e-11
-1.22837e-07
-6.50123e-09
2.07487e-09
-9.44954e-08
-4.12268e-11
9.47405e-08
-2.03985e-10
-1.12867e-07
-3.88903e-10
1.13413e-07
-1.56761e-10
-1.39718e-08
1.19542e-07
-9.60392e-08
-7.29602e-09
-9.48361e-08
9.47662e-08
1.97376e-11
3.0283e-08
2.52631e-08
6.90537e-08
-1.24513e-07
6.51782e-08
-6.52711e-08
1.27896e-07
-1.27803e-07
9.55179e-08
-7.56625e-08
-2.25433e-08
2.68799e-09
4.96931e-08
4.88942e-08
-9.88579e-08
2.6561e-09
4.99199e-09
-9.74749e-08
1.10931e-07
-1.84482e-08
-4.03902e-10
9.49023e-08
-9.4272e-08
-2.26442e-10
-1.26613e-07
-7.79305e-09
1.47454e-07
1.8294e-07
-7.87856e-08
1.6628e-07
1.38839e-07
-6.96949e-08
5.62123e-09
-4.25201e-08
2.25497e-08
-9.44092e-08
1.1594e-07
7.87103e-08
8.40178e-08
-6.93391e-09
8.41082e-08
6.56542e-08
-1.44364e-07
-5.39818e-09
7.39213e-08
7.14849e-08
-6.56671e-09
1.1148e-07
-6.75997e-08
7.51067e-08
6.7055e-08
-1.13328e-07
5.3218e-08
-6.9448e-09
1.54282e-10
-9.18422e-08
-4.94527e-10
-1.07408e-10
-2.75075e-07
1.63435e-07
1.24527e-07
-9.78387e-08
1.52273e-08
8.5053e-09
3.8486e-08
4.01712e-08
-8.71624e-08
-1.17333e-07
1.75201e-09
1.16729e-07
-1.14851e-09
-9.08743e-08
9.05725e-08
9.18986e-11
2.09915e-10
1.14485e-07
-1.47919e-07
1.74081e-07
-1.40647e-07
1.32407e-08
-1.38956e-09
1.13382e-07
-2.87e-08
6.73731e-09
-6.58968e-08
8.78595e-08
-6.52046e-08
1.25358e-07
5.02499e-09
-1.30719e-07
6.74126e-08
6.86164e-08
-5.30983e-09
-9.9136e-08
-2.31373e-08
1.03248e-07
2.67182e-10
6.87253e-08
-1.30726e-10
-6.88618e-08
1.29814e-07
-6.05383e-08
6.96704e-08
1.06843e-09
-4.75931e-11
-2.53241e-11
-8.73105e-08
1.57485e-07
-4.21164e-08
-2.61689e-08
-8.91996e-08
1.99491e-08
2.68207e-08
-1.242e-07
7.98416e-08
-3.09608e-08
1.99415e-08
1.28854e-07
6.65971e-08
1.48201e-07
-1.70423e-07
-5.68759e-08
-6.07669e-08
5.37187e-09
1.17742e-07
5.11856e-09
-6.47942e-08
-6.4653e-08
1.22779e-07
6.66867e-09
-1.11222e-08
8.82978e-08
-1.19324e-07
-1.8069e-10
6.30206e-08
-6.3452e-09
-6.38944e-10
-1.20692e-07
1.93859e-10
1.21137e-07
-1.18972e-07
1.44212e-07
-3.49126e-08
9.72561e-09
-8.15001e-09
4.49543e-08
9.89477e-08
-1.14608e-07
6.67135e-08
-2.38671e-08
7.1762e-08
-1.24788e-07
8.42832e-08
-1.17978e-07
1.16508e-07
2.38108e-10
8.35034e-08
1.99157e-08
-1.47403e-07
-1.91797e-08
1.46667e-07
-1.6215e-07
8.91635e-08
-1.22931e-07
-1.3001e-09
1.47303e-07
2.27142e-08
6.13676e-08
-8.83716e-08
4.28977e-09
1.22725e-07
-9.20046e-08
-3.34144e-10
-9.21023e-08
-9.363e-11
-2.11661e-07
2.11809e-07
-4.85905e-10
-8.56805e-08
-8.82251e-08
-8.5995e-08
9.20381e-08
-1.00879e-07
7.72909e-08
-9.78917e-08
1.53042e-08
5.29662e-09
1.12604e-07
-8.15774e-08
-8.4772e-09
-1.38588e-07
-1.11839e-08
1.91561e-08
1.30616e-07
-2.7492e-07
-2.63276e-10
-1.19822e-07
1.19376e-07
-8.21447e-11
-8.59032e-08
1.53523e-11
-1.07234e-10
-1.20547e-08
-8.48002e-08
1.35498e-07
-3.86435e-08
9.62137e-08
4.25038e-09
3.91958e-08
-1.23721e-07
1.22611e-07
-3.30668e-09
-5.88108e-08
1.32091e-07
-8.57577e-08
1.36947e-10
-1.1708e-07
-3.89337e-10
8.50114e-08
-8.65231e-08
1.80109e-10
-5.97873e-08
-6.02547e-08
1.1262e-07
7.42207e-09
1.01928e-07
1.59454e-08
-8.7689e-08
-3.01849e-08
-2.44074e-08
1.3735e-07
-1.19855e-07
4.06584e-09
-1.02521e-07
-1.70532e-08
1.16202e-07
-9.32617e-12
-1.16149e-07
-4.41941e-11
2.17752e-08
6.7144e-09
4.90683e-08
-7.7558e-08
-1.2824e-07
6.84575e-08
-5.01191e-09
-1.04729e-07
9.76888e-08
-6.89206e-09
-2.62392e-10
1.11666e-07
7.65847e-11
-7.22306e-08
-6.52955e-08
1.31522e-07
6.00378e-09
1.17554e-07
-6.20063e-08
-6.06384e-08
5.09055e-09
1.18154e-07
-2.01482e-09
6.32044e-11
-9.37544e-08
-8.23889e-08
9.02402e-08
-1.07231e-07
-4.15834e-08
-1.58785e-08
1.64472e-07
-9.51562e-08
2.59953e-08
-1.14424e-07
1.96277e-10
-9.4756e-08
4.29068e-10
-3.48048e-10
1.2111e-07
2.29776e-08
-2.44157e-08
-1.19671e-07
4.14992e-08
-1.15072e-07
-6.00377e-11
-6.35692e-11
3.4082e-08
-1.72141e-07
-7.06665e-08
1.17411e-07
8.03549e-08
1.82495e-08
-1.30404e-07
-1.61519e-08
1.28306e-07
-7.43298e-08
6.22012e-09
1.21508e-07
-1.22694e-07
8.52278e-08
3.81936e-08
-7.27245e-10
-4.32828e-10
1.62247e-10
-8.64834e-08
5.95344e-08
-4.51373e-09
-1.38349e-09
-2.37035e-09
-2.20809e-09
8.51738e-08
-8.05953e-08
7.38412e-08
9.71209e-08
-9.34117e-08
-7.75503e-08
1.33486e-07
-1.4827e-07
-2.20748e-10
5.72247e-10
1.39915e-07
-8.69681e-09
-1.23298e-07
-3.76176e-08
1.37208e-07
9.98026e-09
1.08702e-07
-1.02665e-07
-5.04456e-09
-9.92431e-10
-5.42374e-10
1.02835e-07
1.50769e-07
-5.24942e-08
-1.67767e-09
8.32577e-08
-7.36145e-08
-6.11413e-10
5.06911e-10
1.26444e-07
-1.33987e-07
1.23469e-09
1.21823e-07
9.93006e-09
-1.0764e-08
9.19355e-08
-1.16509e-07
2.49727e-08
1.06591e-09
8.17344e-08
-7.09869e-10
-8.20904e-08
-1.08559e-07
1.08738e-07
-2.04725e-10
1.17106e-09
-3.26931e-10
-1.03683e-07
1.032e-07
-5.92112e-11
-1.02243e-07
-1.19699e-10
-1.57984e-10
6.42802e-08
-9.10681e-08
-6.89992e-08
9.57873e-08
-7.53995e-11
-1.07009e-07
1.07216e-07
-1.32225e-10
-5.02347e-08
1.37698e-07
-6.05919e-08
-1.72661e-08
-1.26511e-07
6.66167e-08
-6.50268e-09
2.54605e-08
-1.45875e-08
9.7829e-08
-1.25508e-07
6.00495e-08
5.83465e-08
7.11202e-09
-1.41916e-07
-9.87455e-08
1.02428e-07
-1.15252e-07
-3.91792e-08
5.20029e-08
1.19382e-07
-1.19577e-07
1.89252e-10
6.0287e-12
-1.27765e-09
-1.63932e-07
3.52514e-10
1.64857e-07
-9.41577e-08
8.31682e-12
9.41401e-08
-1.16299e-07
9.14939e-11
5.90063e-11
6.53489e-08
-1.15902e-07
-6.32303e-09
-1.51206e-10
-1.19065e-07
-1.07791e-10
6.93462e-08
6.8504e-08
-5.45264e-09
-6.68293e-08
-6.70531e-08
1.27829e-07
6.05341e-09
-1.07848e-07
1.1931e-09
1.06854e-07
-1.99077e-10
1.13757e-07
2.76617e-08
1.00284e-07
-1.47728e-08
1.00133e-07
-4.86243e-09
-9.26383e-08
4.3534e-08
4.18188e-08
7.28548e-09
9.18032e-08
1.14741e-07
-1.03954e-07
-9.94347e-08
6.53492e-08
-6.3504e-08
-1.17607e-07
-9.3841e-08
1.02733e-07
1.08715e-07
1.00995e-07
-2.20507e-10
1.06257e-07
-1.07385e-07
1.30294e-09
-1.74727e-10
-1.17269e-07
-1.18716e-07
6.62201e-10
1.06453e-10
1.50313e-08
4.09683e-08
-1.48288e-07
1.31508e-08
-3.81078e-08
1.74572e-07
1.20437e-07
-5.33997e-08
-7.18842e-08
3.85676e-09
1.73781e-08
-1.87579e-08
1.18127e-07
-2.94547e-08
-6.99141e-08
9.86894e-08
-6.32346e-10
-9.78528e-08
-2.0425e-10
-3.64196e-08
-1.29424e-07
2.56753e-07
-9.09095e-08
9.68929e-08
-7.32501e-08
-9.28571e-10
3.90625e-10
9.48313e-08
-3.19667e-10
6.52179e-08
-6.5383e-08
1.06537e-07
-1.36036e-07
-1.15584e-07
7.04659e-08
1.12531e-07
-1.47044e-09
-2.7867e-08
-7.27394e-08
6.50398e-08
7.70419e-08
8.68694e-09
8.50059e-08
-1.16038e-07
2.25295e-09
1.34163e-07
-7.16817e-08
6.13455e-09
1.06233e-07
-1.37089e-07
1.22878e-07
-8.15451e-08
-2.76983e-08
-1.31012e-08
2.0401e-09
9.20604e-08
-1.02246e-07
6.14979e-08
-1.16321e-07
-4.96426e-09
1.35591e-07
1.49752e-08
-3.95486e-08
1.12302e-07
-7.19919e-08
-2.26634e-09
-2.31496e-08
1.25747e-07
-1.40709e-07
3.81121e-08
1.04956e-07
1.81206e-08
-4.99047e-08
6.97379e-10
-1.10618e-07
1.09173e-07
-1.06484e-09
-2.67266e-08
2.06861e-08
-8.79397e-08
9.39802e-08
6.87313e-08
-1.28221e-07
-5.1637e-09
-1.22716e-07
1.22766e-07
-2.01551e-10
-7.07498e-08
1.43444e-07
-1.09113e-07
-6.57454e-08
-7.33947e-08
1.64866e-08
-9.34177e-08
-4.62488e-11
1.98007e-07
-2.86388e-08
-7.4513e-08
-9.83287e-08
-6.67402e-08
1.19843e-07
2.05601e-07
-1.47255e-10
-8.09874e-08
-6.18092e-11
8.11964e-08
2.87695e-08
1.02206e-07
-1.08852e-09
1.34379e-07
5.43294e-09
8.80789e-08
5.25961e-08
2.69417e-09
6.64133e-08
-1.28118e-07
-5.1244e-09
-6.62219e-08
-7.48452e-08
1.32228e-07
8.83856e-09
-8.46603e-08
-4.0987e-09
-3.87936e-09
7.4598e-09
-1.17331e-07
1.01079e-07
-5.00914e-11
-1.10602e-07
-2.87203e-09
1.08336e-07
-7.90518e-08
-1.22361e-07
8.59951e-08
1.15418e-07
-1.03453e-07
3.61156e-08
7.06709e-08
-3.3334e-09
6.33689e-08
6.34845e-08
-1.20064e-07
-6.78947e-09
-6.50457e-08
-6.2446e-08
1.21336e-07
6.15548e-09
4.8123e-08
4.43767e-08
-1.02476e-07
9.9767e-09
-6.10199e-08
1.01447e-07
-3.29519e-08
-7.47492e-09
9.79303e-08
-9.82082e-08
-3.61026e-10
-8.47896e-08
3.03263e-10
7.4548e-08
9.42941e-08
-2.55852e-08
-1.43257e-07
-2.76872e-08
7.97923e-08
3.45746e-08
-8.66797e-08
-9.13637e-08
2.82123e-11
9.28016e-08
-1.4661e-09
-6.68067e-08
-3.82628e-08
8.63116e-08
1.1419e-07
-3.20244e-09
6.38184e-08
-1.1878e-07
5.97055e-08
-4.74406e-09
-4.65333e-08
3.00931e-08
-1.0341e-07
1.07895e-08
1.21377e-07
-9.32885e-08
-3.93593e-08
1.29607e-07
7.11255e-08
-6.64133e-08
6.75741e-10
-1.13506e-07
-3.63572e-11
7.45345e-08
-6.16889e-08
9.2443e-08
-1.09409e-07
5.23787e-08
4.97713e-08
7.25905e-09
6.63343e-08
-4.31682e-09
3.59238e-08
5.86045e-08
7.50094e-09
8.26818e-09
1.13078e-07
-8.81536e-09
-4.58562e-09
-7.40407e-08
7.23114e-08
1.19856e-07
-6.7135e-08
-1.39794e-07
1.40396e-07
1.47906e-07
5.45196e-08
-5.15598e-08
-1.50866e-07
1.2765e-08
-1.15917e-07
1.24927e-07
-7.07295e-08
-6.56819e-08
1.30382e-07
6.03007e-09
-4.09311e-08
-9.50898e-08
1.59043e-09
6.17381e-08
-6.33255e-09
1.19985e-07
-2.50576e-10
-3.52912e-10
1.98645e-08
-7.77264e-08
8.33225e-08
3.3585e-10
9.00612e-11
-1.23142e-07
2.2656e-12
8.42709e-08
-8.2803e-08
1.05577e-08
-7.57331e-08
1.29445e-07
-6.42693e-08
-2.50308e-08
-1.21681e-07
1.24104e-09
1.45471e-07
8.3563e-08
-1.61118e-07
6.34485e-08
1.41069e-08
-1.13599e-07
8.20913e-08
-8.83137e-08
9.34959e-08
-4.34228e-10
-9.25542e-08
-5.07485e-10
-4.14653e-08
-1.19389e-07
4.20914e-08
1.18762e-07
-6.74857e-08
-1.10058e-07
1.36227e-07
4.1316e-08
-2.86743e-09
-1.30092e-07
1.30581e-07
2.37819e-09
-1.15643e-07
1.15627e-07
-1.2619e-09
-1.28301e-07
1.13494e-07
-5.76588e-08
1.23243e-07
6.45857e-08
-5.50989e-09
6.88911e-08
-1.24729e-07
-5.74907e-08
-1.15261e-07
7.83844e-08
-9.13635e-08
-1.28428e-08
1.27328e-07
-7.84728e-08
-3.17881e-08
1.12065e-07
-1.10267e-07
-3.05233e-09
1.25424e-09
-8.87154e-08
-2.23054e-09
3.63538e-09
-7.07432e-12
-1.35405e-07
1.32544e-07
-8.48625e-08
-7.4671e-10
9.4894e-10
-8.43294e-08
7.09086e-08
1.37505e-08
-3.29625e-10
-5.0035e-08
-1.2001e-07
1.61287e-07
8.75822e-09
1.06948e-07
-4.95294e-10
5.31793e-08
4.42132e-08
-1.06814e-07
9.42172e-09
-1.01977e-07
-2.27561e-10
1.02247e-07
-4.20918e-11
-9.87874e-08
1.34654e-08
-2.20628e-08
5.833e-08
-1.13635e-07
4.7823e-08
7.48191e-09
-4.26123e-09
-8.57436e-08
4.3243e-09
1.36495e-09
-1.20873e-07
1.90169e-09
5.02054e-08
6.78766e-08
-1.42284e-07
1.9038e-08
1.12673e-07
1.84829e-08
1.18221e-07
-1.18746e-07
8.34448e-10
-3.09419e-10
-1.85561e-07
1.74799e-07
7.84498e-08
-6.76879e-08
5.06114e-08
-1.3148e-07
1.00656e-07
-1.97874e-08
6.73404e-08
-6.16862e-09
-6.4638e-10
2.27552e-10
5.37773e-08
-5.67656e-08
-1.05029e-07
1.47365e-07
-1.21053e-07
1.02666e-07
-1.42239e-08
4.61032e-10
-1.3615e-07
1.36079e-07
1.16049e-07
-1.41607e-07
-1.168e-09
-7.87672e-08
-7.52456e-08
1.48058e-07
5.95445e-09
8.83284e-08
1.00186e-10
-8.83486e-08
-8.00709e-11
-1.33582e-07
7.14749e-08
6.67108e-08
-4.6039e-09
-1.79307e-07
1.11206e-07
-1.24939e-07
1.9304e-07
-1.72072e-07
2.31316e-08
-4.16441e-08
-1.02179e-07
-1.47402e-07
8.9958e-08
3.42943e-08
-1.28136e-08
-1.15908e-07
1.26267e-07
2.45525e-09
-2.79683e-09
-1.01527e-07
-8.57095e-09
1.10864e-07
-9.17823e-08
1.0096e-07
-2.85669e-08
1.51944e-07
6.06859e-08
1.70879e-07
-1.14627e-07
-1.1013e-07
4.7549e-10
1.10741e-07
-1.11077e-07
-1.39451e-10
9.3067e-08
-1.01287e-07
3.95873e-09
-7.4338e-08
-7.80687e-10
6.3097e-08
9.71684e-08
-4.02802e-08
5.91427e-08
-1.12282e-07
-4.51956e-09
4.7171e-11
1.07942e-07
-1.07766e-07
-2.23461e-10
-1.11863e-07
-7.56528e-11
1.12399e-07
-4.59967e-10
-1.12601e-07
4.02814e-08
-3.03451e-08
-1.07302e-08
9.01685e-08
7.34349e-08
-1.52445e-09
-1.62079e-07
2.27694e-09
-1.44791e-10
-1.56398e-08
7.52227e-08
-1.34902e-07
7.5319e-08
-1.1715e-07
1.1893e-07
6.09018e-08
-6.16048e-09
2.45916e-08
-1.21094e-07
-3.42169e-08
1.30719e-07
4.06152e-08
1.07266e-08
3.34196e-08
-8.47614e-08
6.42856e-08
6.977e-08
-1.28045e-07
-6.01066e-09
-9.86789e-08
9.70557e-08
1.78753e-09
-1.64374e-10
-6.30531e-08
6.93496e-09
5.1724e-08
-4.96851e-08
1.15163e-07
-1.17202e-07
-9.59891e-08
2.01639e-07
-4.18399e-08
-6.38095e-08
7.89844e-08
-6.79713e-08
-6.84702e-08
5.74572e-08
6.3293e-08
-5.21798e-08
-1.29871e-07
4.98224e-08
9.29831e-09
5.38582e-08
7.42404e-08
6.99559e-08
7.13265e-08
-1.34998e-07
-6.28447e-09
1.25151e-07
7.43932e-09
-5.41613e-09
-1.27175e-07
9.80055e-08
9.92719e-10
-3.0885e-10
9.23302e-08
-9.3796e-08
2.05651e-09
-5.90658e-10
-6.15297e-08
-7.26094e-08
1.27131e-07
7.00853e-09
-1.14483e-07
1.38051e-09
5.01192e-10
-1.02168e-07
-2.50709e-11
2.15782e-10
1.05982e-08
1.14516e-07
1.06025e-07
1.93571e-09
-1.01216e-09
2.48463e-11
-9.64095e-08
9.61571e-08
9.29892e-08
1.65918e-08
2.48384e-09
-1.03786e-08
3.35515e-08
-1.12172e-07
8.8999e-08
1.19088e-07
-1.18842e-07
5.00939e-12
-2.51315e-10
-2.75118e-08
-1.0924e-07
1.59883e-07
-1.11501e-07
-1.8261e-08
1.34087e-07
-4.32566e-09
1.43257e-07
-1.221e-07
-2.11937e-08
-1.85662e-08
1.18744e-07
1.1977e-07
-1.20015e-07
1.35051e-10
1.09379e-10
1.40178e-07
-4.27634e-08
-1.38439e-07
4.10246e-08
1.15023e-07
-1.15213e-07
1.37097e-07
-1.36906e-07
8.10754e-09
-1.14885e-08
-9.23679e-08
9.57488e-08
2.51145e-08
-9.59256e-08
-4.07251e-08
1.11536e-07
7.99154e-08
7.36788e-08
-1.47407e-07
-6.18751e-09
1.89371e-07
-1.99406e-07
-3.65682e-08
-1.62494e-07
9.85297e-08
-1.21466e-08
1.16224e-08
-1.71721e-07
1.49363e-07
-7.94521e-08
1.2352e-07
-2.10159e-07
1.66091e-07
7.50846e-08
-1.4848e-07
-6.05646e-09
1.95702e-08
8.45165e-08
-1.46615e-08
-8.94253e-08
-1.04625e-09
1.24924e-07
-1.38341e-08
-1.08047e-07
-5.51273e-08
1.4336e-07
-9.98399e-08
1.16068e-08
-2.66083e-08
7.6849e-08
-4.27209e-08
-7.51983e-09
2.01474e-10
-9.61222e-08
9.6244e-08
-3.23242e-10
2.57442e-09
1.16351e-07
-1.17867e-07
-1.05837e-09
-1.01683e-07
-1.16847e-07
1.28288e-07
9.51742e-08
8.24032e-09
8.60966e-08
1.6017e-09
-4.43147e-08
-4.08587e-08
1.19825e-07
-2.21438e-07
6.08815e-08
-1.42649e-07
1.12382e-07
-6.57221e-08
1.1467e-07
-1.11745e-07
-3.50542e-10
-9.14741e-08
1.58343e-09
-2.33339e-09
9.22241e-08
5.79254e-08
-1.75978e-07
-1.40397e-07
-1.91109e-10
1.20508e-07
-1.20188e-07
-1.28958e-10
-1.00517e-07
-3.47978e-08
1.28308e-07
5.30104e-09
-8.35301e-09
1.03901e-07
-9.30826e-08
-1.04107e-08
1.33541e-07
-1.12459e-07
5.38919e-10
5.73593e-11
6.02499e-08
-1.46261e-07
7.97499e-08
6.26087e-09
-1.36722e-09
-1.02551e-07
-1.45286e-09
1.19756e-07
5.43139e-09
-1.00867e-07
5.1254e-08
4.77481e-08
1.86513e-09
-9.86556e-08
2.72428e-08
1.34706e-07
3.9688e-10
1.27754e-07
-6.70486e-10
-1.27481e-07
5.61524e-09
1.13035e-07
-2.415e-08
-9.45e-08
1.32858e-07
-1.50421e-07
7.85247e-08
-6.09612e-08
4.41091e-08
1.10994e-07
-5.45083e-08
-6.27999e-09
7.91839e-08
7.7478e-08
-1.44238e-07
-1.3615e-08
-5.95859e-09
1.00611e-07
-1.21281e-07
1.10798e-07
7.15903e-11
-1.11266e-07
3.96214e-10
6.81964e-09
9.37379e-08
-4.34376e-09
7.3121e-08
-1.81277e-07
2.91044e-08
-1.23276e-07
2.27998e-09
-6.98355e-08
-6.0037e-08
1.23416e-07
6.45697e-09
-9.98364e-08
-4.62802e-08
3.18063e-08
1.1431e-07
-1.13342e-07
-5.74689e-10
-5.66349e-10
-6.5001e-08
1.37467e-07
-7.79566e-08
5.49023e-09
7.08304e-08
-1.39687e-07
7.17925e-08
-2.93652e-09
-1.0741e-07
-2.43835e-10
9.78839e-08
-1.00394e-07
4.35512e-09
-1.84452e-09
1.41463e-07
-7.9025e-08
8.39193e-09
-1.10141e-07
1.80537e-08
-1.81792e-08
5.53749e-08
-9.13727e-08
-2.04041e-08
1.1921e-07
-1.18515e-07
-2.34445e-10
6.53314e-08
5.70062e-08
-5.82816e-08
-6.40559e-08
7.39308e-08
1.37225e-07
-1.47787e-07
7.36927e-08
6.37061e-08
-1.32894e-07
-4.50474e-09
-1.12076e-07
5.89973e-08
4.54708e-08
7.60759e-09
1.35254e-10
1.19632e-07
3.47286e-12
7.47726e-08
6.98263e-08
-1.38686e-07
-5.91226e-09
9.76745e-08
1.12315e-07
-9.37969e-09
-9.97083e-08
-3.22731e-09
9.13251e-08
1.32244e-10
1.3678e-07
-1.38561e-07
-7.46589e-08
7.64404e-08
4.76232e-08
5.70872e-08
7.605e-09
-6.02931e-09
-1.57744e-07
1.75678e-08
8.37059e-08
-3.56942e-09
5.61051e-09
1.41655e-07
1.21172e-07
-2.04496e-07
-1.1462e-07
1.02887e-09
-1.31549e-09
1.14906e-07
5.00673e-10
9.59903e-08
-9.6482e-08
-8.98003e-12
-7.40103e-08
1.67538e-07
-1.64257e-07
5.01559e-08
1.14467e-07
-6.19554e-08
-1.02667e-07
4.40707e-08
5.65513e-08
-1.07852e-07
7.22972e-09
1.38673e-07
-9.97816e-09
1.93642e-08
-1.2529e-07
-5.68693e-09
3.34523e-08
-1.207e-07
-1.82169e-08
-8.73505e-08
-1.04728e-07
1.00999e-07
1.92358e-08
-4.99246e-09
-1.88877e-08
9.30316e-08
2.68549e-08
8.99583e-08
-7.30085e-08
-1.46545e-09
1.19584e-07
2.86349e-09
1.58562e-10
8.98771e-11
-2.05358e-07
-1.53659e-08
-1.32509e-10
1.57551e-07
1.54189e-08
-1.65582e-07
-1.13197e-08
2.51851e-07
-1.11335e-07
-1.29196e-07
-1.54159e-07
1.26088e-07
1.06468e-07
-1.33569e-07
-6.27222e-08
6.87782e-08
-7.04602e-08
6.44043e-08
1.11481e-07
-1.14324e-07
-3.28994e-09
6.13327e-09
-3.54933e-09
-5.97005e-08
7.31506e-08
-1.6761e-07
-7.43002e-08
6.03402e-08
3.62416e-08
-1.1407e-07
2.39759e-07
-3.95107e-08
-9.43615e-08
-1.23883e-08
-7.15774e-08
1.43638e-07
1.86982e-09
-3.11045e-08
-6.62202e-08
8.38707e-08
1.3454e-08
3.6328e-08
-1.6269e-07
7.39558e-08
5.24058e-08
-1.02063e-07
1.02e-07
-2.42254e-11
8.77447e-11
8.84965e-08
-3.15304e-10
1.23453e-08
1.16079e-07
1.07632e-07
-6.72574e-09
-8.02203e-08
-1.45239e-07
1.79076e-08
1.03868e-09
1.26585e-07
-7.8615e-08
1.21833e-07
-3.98731e-08
-5.74841e-09
2.75046e-09
1.1961e-07
-2.77642e-09
9.68866e-08
3.6029e-08
-1.42441e-07
-2.71696e-08
-1.16413e-07
-1.00105e-07
-7.85084e-08
4.00252e-08
-1.09413e-08
1.04132e-07
-7.96311e-09
-8.74926e-08
-9.92095e-08
-3.5421e-09
8.84043e-08
-1.13251e-07
9.46102e-08
-5.16643e-10
-9.34537e-08
-6.39936e-10
-2.36633e-08
-1.37307e-07
-1.63427e-07
1.62967e-07
1.05607e-07
-4.4779e-08
1.21879e-08
-7.30162e-08
1.07284e-07
-5.51772e-10
-1.06631e-07
-1.0181e-10
1.07768e-09
9.74711e-08
-9.86637e-08
1.1492e-10
2.69013e-08
1.13215e-07
-3.40916e-08
-7.35194e-08
-7.66817e-08
1.05145e-08
7.12524e-09
1.01577e-07
-1.04751e-07
-3.95055e-09
-1.15067e-07
1.24769e-07
-2.5766e-09
-1.24834e-07
-2.9177e-09
-1.36141e-07
1.3778e-07
-5.19225e-08
-7.79762e-08
1.35505e-07
-5.60579e-09
9.89446e-08
-1.40874e-08
6.80143e-10
-2.142e-10
4.22427e-08
1.1084e-08
-2.16967e-10
-6.4013e-10
6.9806e-08
7.65648e-08
-6.19287e-09
-3.08331e-08
9.39766e-08
7.21336e-08
-2.57861e-07
-7.7029e-08
2.13307e-07
1.21174e-07
1.17705e-07
-4.97005e-08
-7.45597e-08
5.95352e-09
-4.27922e-10
-1.17997e-07
-3.21479e-10
5.16796e-08
6.04659e-08
-1.10836e-07
-1.30917e-09
-1.08053e-07
1.07818e-07
2.65482e-10
-2.9903e-11
9.93616e-08
2.94748e-08
-1.23286e-08
1.10794e-09
1.77761e-07
-4.06984e-09
-4.98173e-08
-7.73683e-08
-2.68508e-09
-9.27824e-08
-2.09156e-08
6.78687e-10
9.86415e-08
-9.83275e-08
7.15666e-08
-1.73517e-07
1.00919e-07
-9.66567e-10
-5.90432e-10
6.55672e-08
5.95357e-08
-1.21866e-07
-3.23677e-09
-1.48783e-07
7.45307e-08
-2.06836e-08
-2.39494e-08
-3.23705e-08
1.14384e-07
-5.8064e-08
-2.64566e-08
6.57438e-08
2.74237e-08
-1.2695e-07
-8.23877e-08
8.62901e-08
1.23048e-07
7.05209e-08
-5.85858e-09
6.11424e-08
1.1941e-07
-5.0106e-08
-1.30446e-07
-3.36671e-09
1.05216e-07
1.33859e-08
-1.15235e-07
1.00242e-07
-8.55501e-08
-1.84691e-08
3.77749e-09
1.29282e-07
-1.72232e-07
1.59302e-07
1.32889e-07
-6.47215e-08
-6.19489e-08
-6.21889e-09
3.83447e-08
-1.54106e-07
-1.09104e-07
-1.12875e-07
-2.49281e-10
-1.70438e-07
1.44332e-07
-1.48613e-07
1.74719e-07
8.09317e-08
-1.35637e-07
-2.50562e-08
1.11951e-07
-1.11215e-07
-5.12068e-10
-2.24123e-10
5.49648e-08
-1.08752e-07
-5.91335e-09
-6.12729e-09
8.07769e-08
-1.63435e-07
6.70914e-08
-1.23831e-07
-2.66346e-10
1.59499e-10
1.23938e-07
-1.69508e-07
1.21355e-07
-7.3061e-08
-7.70932e-08
-2.93556e-08
-6.46288e-09
5.47241e-08
6.39008e-08
-6.24232e-09
-4.98841e-08
-5.6844e-08
-5.34757e-09
-3.29646e-09
-9.29149e-08
-9.42661e-08
-9.86598e-10
-5.61451e-09
6.59112e-08
-6.52167e-08
3.35684e-10
-1.03013e-09
1.00527e-07
-9.88056e-08
-1.13816e-09
-5.83516e-10
-1.06079e-09
1.18653e-07
-1.17293e-07
-2.99793e-10
-1.23417e-07
1.28061e-08
1.04509e-07
6.10168e-09
1.15975e-07
-1.10294e-07
-3.84039e-09
-1.8402e-09
-1.00528e-07
-9.47779e-10
1.02054e-07
-5.78655e-10
-9.45297e-08
-5.76991e-08
8.8055e-08
3.0885e-08
-8.74242e-09
-1.10198e-07
7.13698e-08
-7.54262e-08
3.2733e-09
7.83169e-10
4.09453e-08
3.40762e-08
-1.16487e-07
1.0165e-07
-9.89129e-08
-6.99959e-09
4.2624e-09
-4.73069e-08
4.82186e-08
1.38594e-07
4.51284e-09
1.16321e-07
-8.71904e-08
1.1151e-08
-2.54414e-08
-1.01671e-08
-9.13418e-08
-3.10943e-08
1.7544e-07
5.25527e-09
-1.50681e-07
1.18456e-07
-3.03955e-08
-1.78945e-08
2.0285e-08
-7.27276e-08
5.36972e-09
-1.14396e-07
1.14543e-07
5.45789e-08
-6.52315e-08
-2.76102e-08
7.26652e-08
2.47186e-09
6.22531e-08
5.46993e-08
-7.63372e-08
-7.5205e-08
1.0358e-07
-1.15844e-08
-6.39584e-08
5.34271e-09
8.55166e-08
1.03777e-08
2.04323e-08
2.20794e-08
-9.50042e-09
4.79704e-08
5.6035e-08
6.98846e-09
-4.44451e-08
1.44985e-07
-1.50574e-07
-1.5683e-07
7.85918e-08
1.99375e-07
-1.3394e-07
9.63629e-08
-2.86967e-08
5.51956e-08
-1.22862e-07
-1.13358e-07
-3.89875e-08
-1.31405e-07
-5.17307e-09
-9.15801e-08
7.3164e-08
-8.02876e-08
9.87039e-08
7.27314e-09
-1.07385e-07
-1.27712e-07
-6.66712e-09
-4.18216e-09
-1.15921e-07
1.04881e-07
1.11282e-07
1.78205e-08
9.61231e-08
1.92351e-09
-1.20745e-07
1.11598e-07
-7.67444e-08
8.58923e-08
-9.56225e-08
1.21192e-08
-1.86647e-08
-3.18423e-08
-4.80992e-08
1.36531e-07
-4.66498e-08
-1.02682e-07
-3.86621e-08
1.19208e-08
-6.50946e-08
-7.75886e-08
7.46811e-09
-6.36929e-08
7.32001e-08
7.29239e-08
2.09995e-08
3.84627e-08
-1.32386e-07
9.12909e-08
-1.79754e-08
-6.06381e-08
-5.51919e-09
-7.32785e-08
-8.05727e-08
5.06815e-09
5.86516e-08
-6.70037e-08
-4.46026e-08
5.29547e-08
-4.69694e-08
-8.01375e-09
1.31663e-07
-1.66445e-07
3.51437e-08
-3.60884e-10
-7.20533e-09
2.43859e-08
7.22415e-08
-8.9422e-08
4.07282e-10
-8.58385e-08
-5.07191e-10
8.59384e-08
-9.39301e-08
9.37316e-08
1.30561e-10
6.79545e-11
1.17637e-07
-6.53632e-08
-1.19326e-07
-5.76716e-08
-3.56616e-08
9.49669e-08
-1.63368e-09
1.38983e-07
1.04462e-08
-1.05287e-07
4.96113e-09
-1.25242e-07
1.62802e-08
-1.95679e-10
-1.78496e-07
-1.06999e-07
1.07073e-07
-3.4033e-10
3.91566e-08
1.0642e-07
-1.3228e-07
-1.06889e-08
-1.48406e-08
2.13538e-07
-2.2956e-10
-1.27048e-07
-3.77044e-09
9.13578e-08
-9.02381e-08
-5.37274e-11
-6.99445e-09
1.58376e-08
2.38129e-08
1.10597e-07
-1.63258e-08
1.06665e-07
-8.62757e-09
-3.02992e-09
1.15889e-07
-1.11452e-07
-1.40656e-09
-9.83026e-08
1.09934e-07
-5.81778e-09
1.10637e-07
4.74156e-09
-2.86534e-08
-8.67251e-08
1.07776e-07
1.34405e-09
-1.07317e-07
-1.80323e-09
-6.46634e-08
-4.92442e-08
6.40903e-08
8.36353e-08
1.84616e-09
1.4244e-07
1.76672e-08
-3.22779e-08
-1.34338e-08
3.42904e-09
-7.09826e-08
1.11901e-07