/*--------------------------------*- C++ -*----------------------------------*\
| =========                 |                                                 |
| \\      /  F ield         | OpenFOAM: The Open Source CFD Toolbox           |
|  \\    /   O peration     | Version:  2212                                  |
|   \\  /    A nd           | Website:  www.openfoam.com                      |
|    \\/     M anipulation  |                                                 |
\*---------------------------------------------------------------------------*/
FoamFile
{
    version     2.0;
    format      ascii;
    arch        "LSB;label=32;scalar=64";
    class       volVectorField;
    location    "0.006";
    object      U;
}
// * * * * * * * * * * * * * * * * * * * * * * * * * * * * * * * * * * * * * //

dimensions      [0 1 -1 0 0 0 0];

internalField   nonuniform List<vector> 
31639
(
(0.109106 0.000490208 -0.000466217)
(0.108248 -0.000262456 0.000264815)
(0.10893 -0.000237985 0.000282523)
(0.109436 0.000208451 0.000213102)
(0.108553 -0.000551425 7.10571e-05)
(0.108669 0.000126229 -0.00015382)
(0.107893 -1.46815e-05 -0.000206018)
(0.108509 -0.000163766 -0.000139284)
(0.10876 0.000282369 1.80918e-05)
(0.109264 -0.00013745 -0.000240718)
(0.10955 0.000196755 -0.000140377)
(0.109052 -0.000339991 -0.000444877)
(0.108518 -4.62918e-05 -1.18838e-05)
(0.108997 9.01915e-06 -2.98343e-05)
(0.108071 -0.000313529 0.000119886)
(0.107927 -9.20023e-05 0.000345847)
(0.108278 5.00157e-05 -0.000327971)
(0.10759 -6.94819e-05 -2.33563e-05)
(0.107966 0.00038751 -0.000157739)
(0.108669 9.24751e-05 -0.00045246)
(0.106608 -0.000130253 0.000205402)
(0.109054 3.81678e-05 6.02012e-05)
(0.108961 0.000147687 0.000161085)
(0.108215 0.000295955 -0.000176336)
(0.107603 -0.000194054 -0.00024127)
(0.108698 9.40976e-05 -0.000277377)
(0.10866 -3.33902e-05 0.000164463)
(0.110743 0.000470001 0.000271593)
(0.107951 0.000199612 0.000644036)
(0.108775 0.000132525 0.000366152)
(0.10928 -8.13972e-05 -0.000107022)
(0.107645 -2.10205e-05 -0.000185672)
(0.109108 0.00024581 -0.000403521)
(0.10809 6.39077e-05 -0.000304811)
(0.106966 -0.000180532 -4.13297e-05)
(0.108973 0.00044766 -0.000198685)
(0.105933 3.76738e-06 -1.25724e-05)
(0.109367 -0.000225415 6.8752e-05)
(0.109263 -2.61737e-05 -4.33932e-05)
(0.105896 0.000143826 -0.000242521)
(0.107291 3.85899e-05 3.04144e-05)
(0.106678 7.34403e-05 5.07522e-05)
(0.109063 2.73049e-05 2.25499e-05)
(0.109506 -0.000652583 -0.000466437)
(0.108912 -0.000281229 0.000307495)
(0.109821 -0.00053944 -0.000248966)
(0.107718 0.000346656 -5.67446e-05)
(0.108263 0.000479983 -0.000235393)
(0.108271 0.00017699 0.000378829)
(0.109211 -0.00033321 -8.8233e-05)
(0.109566 3.29168e-05 -4.21525e-05)
(0.106362 0.000236325 -0.00025078)
(0.109467 5.9249e-05 0.000222651)
(0.105997 -4.0395e-05 7.0817e-05)
(0.108565 -8.52242e-05 -0.000205857)
(0.108043 0.000230422 -9.34772e-05)
(0.106671 0.00042972 -0.000267323)
(0.108557 8.19884e-05 0.000249307)
(0.108466 -1.29826e-05 0.000393588)
(0.106919 -7.22092e-05 -3.69731e-05)
(0.108732 8.74988e-05 -8.06958e-05)
(0.108897 0.000158128 -0.000433415)
(0.10765 -0.00011316 -0.000100933)
(0.108733 0.000117 -9.5712e-05)
(0.108563 0.000247628 0.000117085)
(0.109468 0.000165219 -0.000215095)
(0.108232 0.000188174 -0.000537978)
(0.108556 -7.8007e-06 -0.000118138)
(0.107364 -9.38888e-05 0.000256392)
(0.109212 0.000374997 -0.000125575)
(0.109462 -0.000195283 0.000324258)
(0.107712 -0.000357518 -0.000315535)
(0.109448 -0.000190274 -0.000340318)
(0.10872 3.00674e-05 -0.000170182)
(0.108781 2.61374e-05 -2.38846e-05)
(0.106366 -4.07766e-06 2.27329e-05)
(0.109532 -0.000388378 0.000265438)
(0.108231 0.000219522 -0.000133089)
(0.108444 -5.98053e-05 0.000237113)
(0.109004 0.000183095 7.51941e-05)
(0.107896 0.000186319 6.91395e-05)
(0.105381 4.12849e-05 9.1347e-05)
(0.109467 4.36479e-06 -0.000343378)
(0.108976 -0.00015558 -2.79545e-05)
(0.108712 3.74507e-05 -6.38363e-05)
(0.10938 -0.000462238 -0.000130137)
(0.1095 6.82991e-05 0.000136314)
(0.109606 0.000114064 -4.23751e-05)
(0.107006 0.000444394 -0.000703638)
(0.109367 0.000268075 -0.000451058)
(0.109002 4.12647e-05 -2.85596e-05)
(0.107958 -0.0003061 -0.000195237)
(0.106975 3.69296e-05 -0.000306761)
(0.108352 0.000259023 -0.000222762)
(0.107607 -0.000492102 -0.000150933)
(0.108001 0.000680552 1.97412e-05)
(0.108606 0.000427278 -0.000295156)
(0.10864 -0.000146956 0.000331822)
(0.108684 3.39233e-07 -0.000105731)
(0.106807 -0.000318762 -0.000490266)
(0.108486 0.000228523 -0.000135027)
(0.108608 0.000335513 0.000413537)
(0.10808 0.000114469 -0.000108401)
(0.106205 -0.000147466 6.8738e-05)
(0.106868 0.000138468 -0.000277581)
(0.109814 -0.000296127 -0.000391561)
(0.106194 0.000330131 -0.000105956)
(0.106547 0.000150669 -0.000630276)
(0.107514 0.000239731 0.000194362)
(0.106099 -6.16676e-05 0.000124018)
(0.109104 -0.000314614 9.4857e-05)
(0.10707 0.000288026 -0.000263441)
(0.108322 -0.000297441 -0.000241632)
(0.107923 -0.000398364 -0.000268385)
(0.108846 6.45082e-05 -0.000337699)
(0.106434 -0.00016166 -0.000178004)
(0.108054 0.000154819 -1.36045e-05)
(0.107884 -0.000374164 -1.90536e-05)
(0.108429 -0.000151641 9.03463e-05)
(0.108499 -7.08384e-05 0.000186403)
(0.108476 -0.000350731 9.21787e-05)
(0.109283 -0.000272964 0.000285927)
(0.109445 0.00021873 -0.000119866)
(0.108615 0.00025501 -0.000616554)
(0.1088 0.000208411 -0.000567433)
(0.10902 -0.000232745 -6.10241e-05)
(0.108538 0.000130365 0.000319184)
(0.107591 0.000361955 -2.58659e-05)
(0.107569 -9.42142e-05 -0.000152404)
(0.109263 -5.07338e-06 0.000141696)
(0.108995 0.000149334 -6.1656e-05)
(0.108989 0.000284411 -0.000252142)
(0.109072 -8.469e-05 -1.27707e-05)
(0.108497 1.67244e-05 0.000106126)
(0.108998 3.45153e-05 -2.24428e-05)
(0.108892 0.000142486 -4.12312e-05)
(0.106761 0.000124065 -0.000154255)
(0.106547 -0.000344037 -0.00037684)
(0.10954 0.000445409 0.00037688)
(0.108751 -0.00017932 -3.80559e-05)
(0.108718 -0.000152616 7.3581e-05)
(0.109411 4.55338e-05 0.00044252)
(0.109181 7.78081e-05 1.32795e-05)
(0.106314 -0.000200458 7.84165e-05)
(0.106498 -7.19112e-05 -0.000505633)
(0.108776 -7.14826e-05 5.08041e-05)
(0.109043 1.52471e-07 -0.000302074)
(0.106645 -0.000348568 -0.000119207)
(0.107042 5.66255e-05 8.46753e-05)
(0.108762 -0.000103273 -0.00037535)
(0.107623 -8.70705e-05 -0.000356325)
(0.108079 0.000146495 -0.000201517)
(0.108345 -1.38363e-05 -0.000512259)
(0.108923 -0.000123848 -0.000156916)
(0.106954 8.59836e-05 -0.000408085)
(0.109408 -4.3344e-05 9.0334e-05)
(0.10877 -0.000131307 5.32551e-05)
(0.107571 -0.000370178 0.000292331)
(0.10705 -0.00051547 0.000326694)
(0.108241 -4.66026e-05 -0.000173771)
(0.10958 -3.81017e-06 -0.000199846)
(0.106281 -0.000107092 0.000228475)
(0.107016 -0.00041674 -0.000300304)
(0.106581 -8.62058e-05 -0.000191026)
(0.10674 -0.000426312 8.92137e-05)
(0.107938 0.00010327 1.06069e-05)
(0.106617 0.000277369 0.000234784)
(0.109066 -0.000392562 0.000191839)
(0.109514 -0.000416389 8.53413e-05)
(0.106421 1.39437e-05 -3.1715e-05)
(0.107441 2.76336e-05 0.000114244)
(0.10833 0.00027584 -0.000478251)
(0.106847 -0.000139739 -3.04714e-06)
(0.108716 -4.19276e-05 2.40505e-05)
(0.10962 -0.000246225 -0.000203741)
(0.108897 -0.000190651 -0.000210307)
(0.108717 0.000402919 -0.000115983)
(0.108928 0.000306606 2.19427e-05)
(0.108958 -0.000207314 -6.86641e-05)
(0.10853 -8.10087e-05 -0.000258751)
(0.108759 9.23868e-05 -0.000118652)
(0.108338 -0.000297689 0.000353635)
(0.108269 0.000453392 5.37979e-05)
(0.106309 0.000605147 -8.16575e-05)
(0.108688 -0.000157773 0.000525422)
(0.109143 0.000622915 -0.00061386)
(0.108189 -0.000115607 0.000186114)
(0.108716 5.47603e-05 -0.000169483)
(0.107014 0.000155837 -0.000104922)
(0.106336 -1.72807e-05 0.00050245)
(0.109354 5.49174e-05 -0.000363751)
(0.109082 -0.0001405 0.000366587)
(0.108006 -0.00031621 0.000438998)
(0.108608 2.38859e-05 0.000346829)
(0.108938 0.000115224 -3.52588e-05)
(0.108462 -3.79056e-06 0.000173015)
(0.107951 0.00055018 0.000219459)
(0.109342 0.000171285 0.000151674)
(0.106748 -4.45266e-05 -0.000125344)
(0.108029 0.000319049 -0.000186686)
(0.109292 -7.73236e-05 -4.55201e-05)
(0.10907 8.22733e-05 -8.29334e-05)
(0.109028 -0.000170644 -4.50498e-05)
(0.10879 -0.000681619 -0.000122316)
(0.108467 -0.000234306 7.29705e-05)
(0.10842 -3.46497e-05 -3.02028e-05)
(0.108708 -0.000170116 0.000200307)
(0.108406 8.71961e-05 -7.04385e-05)
(0.10886 8.23708e-06 -0.000387797)
(0.106218 -6.11272e-05 -0.000298659)
(0.108735 2.71895e-05 -0.000326595)
(0.108128 0.000473217 -5.06525e-05)
(0.10858 0.000106092 -0.000179788)
(0.108837 0.000223805 -0.000180463)
(0.108696 -0.000191823 -0.000157632)
(0.109049 -2.93937e-05 -3.62019e-05)
(0.107251 -0.000401722 7.37613e-05)
(0.107652 -0.000106265 0.000102268)
(0.108863 -0.000166629 -0.000308506)
(0.109669 -0.000177734 0.000155634)
(0.109204 7.56808e-05 -7.76424e-06)
(0.108281 -0.000192844 -0.000324087)
(0.10586 -6.89365e-05 0.000520089)
(0.108541 -0.000551072 0.000354654)
(0.106662 -0.000150373 -0.000153167)
(0.107974 -3.4563e-05 6.83816e-05)
(0.109037 -0.000270551 6.48564e-05)
(0.107986 0.000329309 0.000389227)
(0.106587 1.94113e-05 -3.87054e-05)
(0.108316 0.000281911 -0.000161998)
(0.109014 -3.32321e-05 -0.000126659)
(0.109581 -0.00031072 -0.000288366)
(0.106684 8.77291e-05 -0.000129739)
(0.1063 -0.000165274 2.73544e-06)
(0.108507 0.000159684 -2.29697e-05)
(0.109093 -0.000150819 -0.000244935)
(0.106915 4.17843e-05 6.7798e-05)
(0.109141 -0.000533362 0.000120639)
(0.107561 4.92574e-05 -0.000262271)
(0.106864 -8.86766e-05 0.00023948)
(0.108689 -3.91495e-05 -1.20024e-05)
(0.108829 -0.000127847 -9.70307e-05)
(0.10805 -0.000315769 0.000166017)
(0.107414 0.000460397 0.000571895)
(0.10767 0.000126515 1.05261e-05)
(0.108002 -7.5356e-05 -0.000216656)
(0.108636 0.000503488 -9.8417e-05)
(0.107788 -3.81492e-05 -0.000253999)
(0.106712 -0.000175832 0.000217539)
(0.108598 -0.000131606 -5.8968e-05)
(0.10852 -8.26519e-05 0.000192352)
(0.107188 4.0944e-05 -0.000235537)
(0.107927 -0.000459586 -6.91129e-05)
(0.108951 5.05004e-05 -0.000104902)
(0.109248 0.000220799 1.68825e-05)
(0.108359 0.000556241 -0.000104992)
(0.107039 -0.000233021 0.000203594)
(0.109381 0.000249488 -0.00017301)
(0.108808 9.7981e-05 -0.000485423)
(0.108141 -0.000265335 -0.00028915)
(0.109468 0.000343521 0.000464179)
(0.109602 0.000314411 -0.00014539)
(0.108807 0.000223103 -0.000213891)
(0.109256 0.000120471 1.68934e-05)
(0.108396 6.1913e-05 0.000110814)
(0.10815 -0.000147803 -0.00050423)
(0.10635 0.000497658 -0.000445818)
(0.107734 -8.09094e-05 -0.000172341)
(0.109061 -0.000320853 5.56605e-05)
(0.107987 -0.000153001 0.000340156)
(0.108596 8.21402e-05 2.93326e-05)
(0.108468 0.000289847 -4.06123e-05)
(0.10845 -0.0002103 0.000207327)
(0.108523 0.000498179 0.000115407)
(0.10939 0.000349693 -0.000175244)
(0.108907 0.000289473 0.000502035)
(0.10655 -0.000132049 2.95731e-05)
(0.108027 -6.82096e-05 -0.000123577)
(0.107542 7.4861e-05 -0.000130498)
(0.109706 -0.000164627 -0.000390718)
(0.107917 -0.000329308 -0.000202727)
(0.1087 -2.73624e-05 -0.000474777)
(0.108384 -4.97467e-05 -0.000223138)
(0.107557 0.000203557 -0.000396816)
(0.10666 1.1862e-05 6.97398e-05)
(0.107056 -3.75599e-05 -0.00019018)
(0.106923 8.55748e-05 -7.32611e-05)
(0.106431 0.000283831 -6.7387e-05)
(0.109611 -0.000281919 1.5693e-05)
(0.106807 -8.87562e-06 -0.000225623)
(0.108412 -0.000163639 -6.66463e-07)
(0.109 0.000304185 6.74133e-05)
(0.108073 5.35842e-05 -2.29159e-05)
(0.107299 0.000215502 -3.99128e-05)
(0.109289 -0.000606879 0.000415492)
(0.108129 1.51673e-05 -0.000435445)
(0.107264 0.000107079 0.000166492)
(0.109148 0.000119743 -3.79514e-05)
(0.108424 -0.000225406 -8.66569e-05)
(0.106901 9.20068e-05 0.000222547)
(0.108318 0.000108085 -0.000218344)
(0.106842 -0.000155112 0.000124282)
(0.108745 0.000384346 -0.000111127)
(0.108568 0.000172406 7.85163e-05)
(0.10702 0.000101923 0.00019205)
(0.108203 -2.24594e-05 -7.01404e-05)
(0.10804 0.00031557 0.000224184)
(0.105649 0.000312823 -0.000463729)
(0.106128 0.000665229 0.000337383)
(0.108905 -0.000310361 7.67884e-05)
(0.109122 5.25349e-05 -5.33256e-05)
(0.109517 -0.000217847 -5.99558e-05)
(0.106537 0.00011249 -0.000294091)
(0.10709 -0.000133916 0.000476972)
(0.109328 1.70758e-06 7.58466e-06)
(0.107585 -0.000106187 2.43135e-05)
(0.107101 0.000631993 -8.86746e-05)
(0.108729 0.000187911 0.000202767)
(0.109041 -0.000323476 -2.31294e-05)
(0.107799 -0.000553932 -8.12525e-05)
(0.109062 -0.00104176 -0.000386613)
(0.109387 -4.03953e-05 -0.000257951)
(0.106696 -0.00013354 -0.000195093)
(0.10942 -0.000464951 -8.65637e-05)
(0.106209 0.00028964 -0.000118597)
(0.106412 0.000318281 -0.000202765)
(0.109465 -0.000362558 -7.49562e-05)
(0.109048 -0.000230265 3.27327e-05)
(0.109642 9.07699e-06 -0.000236958)
(0.10926 0.00037304 -0.000322188)
(0.108674 -0.000118141 -6.04633e-05)
(0.107408 0.000899655 -0.000193015)
(0.10776 -0.000284581 0.000134082)
(0.108607 -0.000298781 0.000184737)
(0.108883 -0.00048193 0.000226959)
(0.109176 0.000592084 0.000173562)
(0.108836 -0.000329026 0.000168158)
(0.108718 0.000339253 -1.4551e-05)
(0.107934 -0.000438635 0.00052012)
(0.108117 7.52516e-05 -0.000149644)
(0.109372 0.000110468 -0.000261409)
(0.108808 -0.00024459 -0.0005488)
(0.108052 -1.34148e-05 -0.000274844)
(0.108716 -0.000212903 -0.000126957)
(0.108684 0.000470995 -0.000146074)
(0.107969 -0.000312603 -9.87567e-05)
(0.108864 -0.000143391 -0.000327127)
(0.108178 -0.000327832 0.000418551)
(0.106884 1.0671e-06 2.29606e-05)
(0.108324 0.000256892 4.59235e-05)
(0.109412 -0.000192215 -8.99815e-05)
(0.107717 0.00026737 -0.000219117)
(0.108708 -0.000129002 3.24976e-05)
(0.10928 -0.000270195 -4.50478e-05)
(0.108911 -7.29211e-05 0.000127805)
(0.107045 0.000866375 -0.000156526)
(0.108707 6.12017e-05 -0.000368773)
(0.108404 0.000191899 8.29185e-05)
(0.106535 -2.00658e-05 -0.000309957)
(0.108575 -0.000599882 -8.04066e-05)
(0.106405 -5.72277e-05 0.000165051)
(0.10866 -2.18125e-05 -0.000168953)
(0.109155 -6.28838e-05 -3.78146e-05)
(0.106816 -0.000298264 -0.000393888)
(0.108661 0.000265044 5.91121e-05)
(0.108488 0.000184467 0.000415678)
(0.106772 -0.00011875 0.000116975)
(0.108599 -0.000138 -0.000106873)
(0.107054 -0.000174276 -0.000257338)
(0.107994 0.000204129 0.000346972)
(0.1093 0.000236706 -0.000186331)
(0.108438 7.08882e-05 -1.14617e-06)
(0.106415 0.000354482 0.000105811)
(0.108957 0.000109221 -0.000115296)
(0.106869 1.98061e-05 -3.39928e-05)
(0.109047 -0.000183411 -0.000107436)
(0.108695 8.31086e-05 0.000280543)
(0.108586 -0.000329727 -3.38805e-05)
(0.109111 -8.02405e-05 -0.000486704)
(0.10673 7.24615e-05 0.000156905)
(0.109061 -0.000476435 4.04126e-05)
(0.106718 0.000291718 -0.000363155)
(0.108618 0.000325633 -0.000100215)
(0.106908 0.000428338 -0.000154992)
(0.109372 -0.000121234 -3.51764e-06)
(0.109539 -0.000133304 -7.63202e-06)
(0.109646 -0.000104311 0.000158336)
(0.109365 -0.000431693 -0.000381394)
(0.108676 3.073e-05 -7.58434e-07)
(0.10853 -5.06475e-05 8.28328e-05)
(0.108755 -0.000168175 3.01796e-05)
(0.108419 3.44838e-05 -6.24325e-05)
(0.108794 0.000201926 -0.000313474)
(0.106998 0.000305684 -0.000358994)
(0.108914 -0.000217658 -3.56414e-05)
(0.108341 -0.000243141 0.000155404)
(0.108485 -0.000127764 -0.000228858)
(0.109087 1.50785e-05 -0.00020922)
(0.108876 -0.0002034 -0.000529769)
(0.108886 9.84088e-06 0.000266855)
(0.108227 -0.000118141 5.38569e-05)
(0.106605 -6.58733e-05 0.000119707)
(0.108132 -0.000122539 0.0003792)
(0.109021 2.70522e-05 -0.000187991)
(0.108875 2.02981e-05 8.21441e-05)
(0.106672 -0.000112398 -0.000355367)
(0.109419 0.000157396 -0.000115063)
(0.109414 6.4189e-05 -0.000383869)
(0.10821 2.23253e-05 -0.000470542)
(0.109359 -9.36224e-05 -0.000367274)
(0.109628 -0.000115264 -0.000404824)
(0.108696 8.44886e-05 -8.92866e-06)
(0.108565 3.38923e-05 -6.46118e-05)
(0.106581 0.000223247 -0.000212325)
(0.108683 -5.95809e-05 0.000115664)
(0.108686 -0.000158563 0.000147537)
(0.106 -0.000302865 -0.000226079)
(0.108413 -0.000154953 0.000129404)
(0.109025 -0.000339099 -0.000285687)
(0.107506 -2.04648e-05 0.000245003)
(0.106568 -0.000138215 -0.000219657)
(0.106655 -0.000238077 2.60856e-05)
(0.10786 -0.000590368 -1.60275e-05)
(0.106627 0.000266952 2.90088e-06)
(0.108166 -3.31404e-05 0.000105154)
(0.108588 -0.000169034 8.22085e-05)
(0.10766 0.000256058 5.888e-05)
(0.108713 0.000262299 -6.64116e-05)
(0.106921 -0.00013165 -0.000427208)
(0.108967 0.000124795 0.00028217)
(0.1096 -0.000170399 -1.36342e-05)
(0.108642 -2.05158e-05 -0.00016133)
(0.108623 6.65775e-05 0.000279648)
(0.108186 -1.41089e-05 -0.000116838)
(0.109197 0.000320169 -0.000413054)
(0.108819 0.000317975 -0.000109774)
(0.108335 0.000131415 -0.000443487)
(0.109686 -2.37166e-05 -0.000192014)
(0.108789 -0.000389506 -0.000191812)
(0.106683 -7.10265e-05 0.00013923)
(0.108818 -0.000203582 6.54842e-05)
(0.109854 -0.000188549 -0.000287876)
(0.109347 0.000106441 5.81674e-06)
(0.108815 -4.89924e-05 0.000273317)
(0.109125 0.000182035 -0.000323223)
(0.108629 -0.000306557 -3.87972e-05)
(0.108765 -4.6928e-05 3.21786e-05)
(0.108593 5.59375e-05 2.62756e-05)
(0.108593 7.16718e-05 -0.000147445)
(0.108969 -0.000536578 -1.74246e-05)
(0.106427 -4.48139e-05 -0.000203757)
(0.108095 -0.000149392 0.000155167)
(0.105842 -5.85344e-05 2.33081e-05)
(0.107814 0.000488033 0.000228515)
(0.108395 0.000288662 -0.000193913)
(0.106618 -9.3163e-05 -0.000122298)
(0.106448 -0.000100909 -0.000352754)
(0.108135 -0.000118738 -0.000223691)
(0.108554 -0.000453244 -0.000102491)
(0.109195 -6.36321e-05 -2.13457e-05)
(0.10681 8.39729e-05 -3.09608e-05)
(0.108426 -9.33846e-05 0.000128666)
(0.108286 3.61891e-05 7.83749e-05)
(0.108642 -2.29064e-05 -0.000421469)
(0.108605 -3.20652e-05 -0.000270402)
(0.108518 0.00102684 0.000981335)
(0.108767 6.31131e-05 -0.000492184)
(0.106675 -0.000171029 -7.94066e-05)
(0.108427 -0.000377708 0.000119256)
(0.108967 -8.66363e-06 -6.46071e-05)
(0.109325 0.000534667 0.000311059)
(0.109243 9.38091e-05 -0.000140904)
(0.108369 0.000617298 -0.00024445)
(0.106794 0.000284491 0.000152965)
(0.108661 -0.000106323 0.000110189)
(0.108827 -4.29602e-05 -0.000268513)
(0.109249 -0.000442365 -0.000191459)
(0.106306 0.000310486 -0.000167873)
(0.10709 -2.65074e-05 0.000109905)
(0.108395 0.0002664 0.000247334)
(0.107015 -1.47996e-05 -0.000231638)
(0.106608 -2.38769e-05 2.92564e-05)
(0.108902 0.000387494 -0.000310866)
(0.106976 2.53243e-05 -0.000327739)
(0.107787 0.000403668 -1.01409e-05)
(0.106578 -0.000311601 -9.76271e-05)
(0.108637 3.65459e-05 -0.000200848)
(0.107038 0.000409384 8.48308e-06)
(0.109231 -5.45802e-06 7.91279e-05)
(0.109215 -5.21971e-05 -3.92817e-05)
(0.109724 -0.000239245 0.000385363)
(0.109197 5.75441e-05 0.000249626)
(0.10666 0.000120429 0.000122995)
(0.109416 -8.03804e-05 0.000159931)
(0.109758 -6.26087e-05 -0.000260913)
(0.108488 -0.000233071 -0.000105182)
(0.108865 9.55431e-05 1.82008e-05)
(0.109151 0.000122434 -8.57245e-05)
(0.109732 8.29064e-05 0.000278339)
(0.1088 0.000434386 0.000126004)
(0.107511 -3.22529e-06 -0.000323698)
(0.109921 -9.38647e-05 0.000191467)
(0.109662 -8.68587e-05 0.000355774)
(0.109008 3.68085e-05 0.000157278)
(0.108303 -0.000406394 -0.000115371)
(0.108858 -0.000278792 -3.4259e-05)
(0.108796 0.000504786 -0.000268355)
(0.106025 0.000348049 9.65856e-05)
(0.106141 -9.92334e-06 -0.00037315)
(0.10826 9.36756e-05 4.84311e-05)
(0.109146 3.29785e-05 0.00016821)
(0.109473 0.000155825 -8.77907e-06)
(0.107579 -0.000125108 -0.000109826)
(0.108657 0.000231052 0.000138208)
(0.108401 -0.000355613 -7.72816e-05)
(0.109565 0.00044082 0.000653751)
(0.108371 1.804e-05 -6.05946e-08)
(0.107924 0.000494923 -0.000185474)
(0.108381 -0.000468551 0.000279264)
(0.106631 9.49287e-06 -0.000169694)
(0.108216 8.94176e-05 0.000245471)
(0.108379 0.000109944 -3.33489e-05)
(0.109088 9.63711e-05 -0.000166413)
(0.107193 -0.000152887 0.000232575)
(0.107411 0.00019139 -0.000328088)
(0.107439 5.96838e-05 -7.84167e-05)
(0.107879 -0.000152029 -9.01716e-05)
(0.108651 -7.9464e-05 2.34791e-06)
(0.106447 -0.000260997 -0.000717616)
(0.109095 0.000442069 -0.000366907)
(0.108217 3.15777e-05 1.60542e-05)
(0.108758 -0.000101543 0.000175821)
(0.108016 -0.00015062 -9.57001e-05)
(0.109585 -0.000331556 6.3212e-05)
(0.1082 5.28719e-05 -0.000206426)
(0.106616 -0.000394036 -9.12602e-05)
(0.108689 0.000357637 -0.000149162)
(0.109333 -0.000110298 -0.000764241)
(0.106771 4.57455e-05 0.000196147)
(0.108877 -0.000347893 -3.0624e-05)
(0.109283 -0.000348879 -0.000103083)
(0.108563 -0.000256123 7.58343e-05)
(0.108545 0.000182612 0.000195361)
(0.110785 0.000114143 5.39722e-05)
(0.107548 0.000181341 -6.30433e-05)
(0.108689 -0.000489244 -0.0002822)
(0.108639 0.000282239 -8.82024e-05)
(0.1069 0.000234232 0.000139759)
(0.106929 -0.000137885 -0.000455036)
(0.108166 0.000340668 0.000187509)
(0.107441 0.000574536 0.000198861)
(0.108985 -7.00038e-05 -2.97997e-05)
(0.107426 -0.000214891 0.0002142)
(0.108333 0.000152149 8.39634e-05)
(0.109551 -6.08566e-05 0.000290713)
(0.108479 -0.000174667 -0.000168408)
(0.106684 0.000459396 0.000156716)
(0.107439 0.000153526 -1.23976e-05)
(0.109042 0.000191822 -8.64887e-05)
(0.109297 -0.000102859 0.000106094)
(0.106472 -3.5685e-05 7.83759e-05)
(0.106251 0.000205253 3.53966e-05)
(0.109766 0.000126798 0.000272278)
(0.106746 0.000280792 0.000289331)
(0.109052 6.83214e-06 -0.000101307)
(0.108658 3.36544e-05 -0.000160587)
(0.10676 2.25059e-05 -0.000389331)
(0.108788 -9.79376e-05 0.000217389)
(0.109335 8.29665e-05 0.000151676)
(0.108263 -6.55434e-06 0.000567764)
(0.106004 0.000128555 0.000523866)
(0.109561 -2.57301e-06 -9.83996e-05)
(0.108596 -0.000133619 -0.000140207)
(0.106818 0.000389387 3.27223e-05)
(0.109586 -0.000184866 -9.82288e-05)
(0.108406 3.81508e-05 -5.05525e-05)
(0.108248 0.000466072 -0.000300858)
(0.108633 -0.000493004 7.21853e-05)
(0.106603 0.000483213 -0.00046928)
(0.108019 -6.29169e-05 -0.000526519)
(0.107721 -0.000285926 0.000155853)
(0.108148 0.000245472 -5.09298e-05)
(0.106672 -0.000203503 0.000205255)
(0.107666 3.59584e-06 3.44786e-05)
(0.108805 0.000302621 0.000151382)
(0.109621 -0.000285449 -0.000728068)
(0.109675 -0.000295244 2.08775e-05)
(0.109045 -4.94289e-05 0.000169453)
(0.109355 -0.00024514 -0.000120737)
(0.10894 -0.000466109 -0.000160863)
(0.107425 -0.000164637 0.000284105)
(0.109393 -0.000272745 -0.000518164)
(0.108733 9.87178e-05 -9.65856e-06)
(0.109021 0.000127141 0.000183604)
(0.107029 -0.000387567 -7.83894e-05)
(0.108778 -0.000329769 -0.000264716)
(0.108734 0.00022096 -2.58871e-05)
(0.109283 0.000488179 0.00015582)
(0.106658 0.00015091 0.000170165)
(0.106029 -0.000273479 -0.00015475)
(0.109264 9.46407e-05 0.000100056)
(0.107562 -0.000411995 -0.000190218)
(0.108904 3.97915e-05 -0.000118705)
(0.107938 -0.000174119 -0.000110811)
(0.107127 4.87761e-05 8.54051e-05)
(0.108655 -2.80832e-05 -5.21406e-05)
(0.109562 0.000415209 -4.49214e-06)
(0.108411 6.89088e-05 -9.7435e-07)
(0.109247 0.000426932 -3.99417e-06)
(0.106736 1.5337e-05 -0.000455798)
(0.109275 0.000615829 0.000521333)
(0.108823 2.22977e-05 -0.00023815)
(0.106212 0.000576845 0.000125285)
(0.108858 -1.76078e-05 -7.94989e-05)
(0.109435 -0.000310235 7.63054e-05)
(0.110453 0.000235619 0.000132731)
(0.10681 -0.000498309 -0.000314041)
(0.106663 0.000121276 -0.000113503)
(0.107954 0.000507596 -0.000302279)
(0.108616 -0.000142228 0.000133956)
(0.108437 -2.72182e-06 0.000126136)
(0.108367 6.02765e-05 9.15508e-06)
(0.108438 7.01752e-05 -2.4146e-05)
(0.109431 5.52293e-05 -4.38734e-05)
(0.108587 -0.000220969 -8.98918e-05)
(0.108852 0.000307969 -5.91461e-05)
(0.106889 9.31688e-05 0.000286584)
(0.109356 -7.45573e-05 -0.000667462)
(0.106457 -0.000248868 -0.000538186)
(0.108799 0.000364324 -4.14625e-05)
(0.108108 0.000275173 -0.000336721)
(0.107987 -0.000259679 -3.9892e-05)
(0.109171 0.00022167 -0.000191026)
(0.107982 -0.000247125 1.28371e-06)
(0.107071 -5.55051e-05 -0.000463755)
(0.106496 5.58884e-05 6.50886e-05)
(0.106811 0.000235706 -1.79325e-06)
(0.107973 -0.000153789 3.03017e-05)
(0.108894 0.00030906 0.000352693)
(0.107221 -0.000190143 -0.00016506)
(0.108699 -0.000391234 -7.56802e-05)
(0.107875 0.000169225 -0.000484042)
(0.109504 -0.000339364 -0.000177899)
(0.106491 -0.000237014 -0.000176026)
(0.108147 2.14389e-05 5.05622e-05)
(0.109509 -0.000596257 -1.92992e-05)
(0.108783 -0.000155985 6.8571e-05)
(0.10885 -0.000227351 -6.3568e-05)
(0.109493 8.498e-05 4.61148e-05)
(0.108925 8.2702e-05 0.000243734)
(0.108835 2.95363e-05 1.81993e-05)
(0.108879 6.01568e-06 0.000166514)
(0.108842 9.72021e-05 3.70192e-05)
(0.109404 -3.90671e-05 8.79852e-05)
(0.107501 -8.88853e-06 1.09206e-05)
(0.109575 -0.000493565 -8.64042e-05)
(0.106429 -4.03901e-05 0.000119983)
(0.109797 0.000201934 -9.78019e-05)
(0.108347 0.000246319 4.61585e-05)
(0.108313 0.000172392 -0.000344085)
(0.10668 -1.62236e-05 -3.43294e-06)
(0.108251 0.000521155 -0.000387214)
(0.106183 -0.000341382 -8.18732e-05)
(0.10863 2.75091e-05 -9.84318e-05)
(0.108264 7.94992e-05 -0.000365207)
(0.109449 7.81371e-05 -0.000324559)
(0.107795 0.000380339 -0.000103526)
(0.10835 0.00063946 -0.000246949)
(0.106926 -0.000411532 -6.92966e-05)
(0.109026 2.96114e-05 6.8547e-05)
(0.106741 -0.000280568 0.000117994)
(0.106052 -0.000189558 0.000116498)
(0.106867 -0.000207886 0.000142417)
(0.107186 0.000142494 3.4691e-05)
(0.107397 0.000361678 3.78518e-06)
(0.108424 -0.000365999 -6.01249e-05)
(0.106393 0.000285783 0.000165561)
(0.108955 -0.000523677 -0.000180934)
(0.108832 -6.90535e-05 -0.000183087)
(0.105651 8.01561e-05 0.000212476)
(0.108671 -9.49567e-05 -5.70498e-05)
(0.106595 0.000419164 -7.8554e-05)
(0.108078 0.000369414 0.000108318)
(0.10833 -8.85062e-05 0.000192148)
(0.108266 -0.000228881 -0.000477323)
(0.108881 -0.000278636 -5.5389e-05)
(0.109599 1.31334e-05 -0.000220468)
(0.10907 7.1466e-05 0.00015349)
(0.108534 0.000155689 -7.22994e-05)
(0.108937 -0.000609896 4.78794e-05)
(0.109178 0.000489571 -0.000131601)
(0.107877 0.000170506 -0.00012153)
(0.108146 6.859e-05 1.1466e-05)
(0.106249 7.76616e-05 -0.000260056)
(0.107922 0.00124545 0.00155031)
(0.10921 0.000144463 -9.27357e-05)
(0.108686 -0.000315779 -0.000102981)
(0.108812 -0.000242107 0.000192781)
(0.109081 0.000141934 5.84081e-05)
(0.106759 -6.22518e-05 8.1338e-06)
(0.109241 -0.000102149 -0.00022121)
(0.109374 0.000490271 -8.8529e-05)
(0.109481 -3.21033e-05 0.000294706)
(0.109235 -9.6964e-05 7.35163e-05)
(0.109037 0.000170844 3.41965e-05)
(0.108769 -7.34909e-05 -0.000165833)
(0.109333 -0.000141454 -3.51482e-06)
(0.109286 -0.000295456 0.000283119)
(0.109097 -9.59957e-06 0.000197455)
(0.109373 -7.10537e-05 8.28295e-05)
(0.108812 -0.000203881 -4.05851e-05)
(0.107288 -0.000115474 -0.000133746)
(0.109219 -3.19559e-05 1.88855e-05)
(0.107527 0.000122822 0.000179716)
(0.108159 -6.30009e-05 5.61949e-05)
(0.108629 -0.000258627 -0.000227228)
(0.108611 -0.000454478 8.85521e-05)
(0.107909 0.000345055 -9.43891e-06)
(0.108974 0.000136088 4.34758e-05)
(0.107639 0.000221276 0.000386934)
(0.108807 -0.000311216 7.33145e-05)
(0.108121 0.00030813 -0.000236771)
(0.106642 -0.000277842 -0.000136632)
(0.109846 0.000198368 -0.000194294)
(0.108726 0.000270815 -5.95011e-05)
(0.107577 -0.000152606 0.000457904)
(0.10643 -0.000307179 0.000229226)
(0.109423 -0.00056083 1.75204e-05)
(0.106518 -0.000381363 -0.000206206)
(0.109441 -6.04858e-08 -0.000119385)
(0.10859 2.3899e-05 0.000216569)
(0.10796 0.000286387 -0.000131881)
(0.10888 -6.15931e-05 0.000140282)
(0.109268 -0.000222421 -0.00043123)
(0.108868 -0.000102927 0.000173376)
(0.106544 -0.000126979 -0.000238619)
(0.108313 -0.00014989 -0.00034168)
(0.107503 0.000108923 2.94218e-05)
(0.108493 0.000104922 -3.27232e-05)
(0.106657 -0.000414086 -0.000353112)
(0.1085 -0.000144693 -0.000409505)
(0.108993 -0.000186896 0.000112865)
(0.107679 7.94754e-05 -0.000217311)
(0.108426 2.55042e-05 1.08083e-06)
(0.10778 -1.41882e-05 0.000229977)
(0.108896 -0.000163726 -6.81432e-05)
(0.107592 -0.000387016 0.000170455)
(0.108344 2.40597e-05 -6.74816e-05)
(0.106756 -0.000278558 0.000540817)
(0.109529 1.56332e-07 0.000229511)
(0.10833 -0.000186373 -0.000232039)
(0.10953 0.000596052 0.000353401)
(0.107539 0.00036365 -0.00017965)
(0.10903 9.8045e-06 5.18357e-05)
(0.108928 0.000223329 -5.82034e-05)
(0.108041 0.000176969 0.000461907)
(0.108512 -0.000148851 -0.00025623)
(0.108346 0.000298607 0.000138415)
(0.109557 -0.000279689 -2.23766e-06)
(0.108488 -0.000126775 -0.000139829)
(0.10649 7.0802e-05 8.4746e-05)
(0.106223 -0.000488094 -0.000190915)
(0.109167 -0.000113381 -0.000105238)
(0.106456 0.000300902 -0.000479169)
(0.107757 -0.000319861 -0.000361255)
(0.108284 0.000299424 -0.000161167)
(0.108455 0.000304118 -0.000191123)
(0.109289 0.000280281 -0.00035227)
(0.106491 -0.000226283 2.26909e-07)
(0.10876 1.16476e-05 -0.00023855)
(0.109455 -4.40091e-05 -1.66009e-05)
(0.107347 0.000497087 1.59013e-05)
(0.106965 0.000316144 0.000479426)
(0.108655 -0.000383106 -0.000106339)
(0.106992 -6.85517e-05 0.000155788)
(0.10871 -0.000273607 6.12727e-05)
(0.106893 -0.000478913 0.000121157)
(0.109211 -0.000384113 -6.39049e-05)
(0.107349 0.000135648 0.00049684)
(0.107703 0.000114483 0.000110908)
(0.109421 0.000133311 0.000156529)
(0.106242 9.61532e-05 0.000263169)
(0.108194 0.00016451 0.000166115)
(0.108197 -6.58799e-05 0.000100026)
(0.109624 4.59856e-05 -0.000395432)
(0.109292 0.000103843 0.000104565)
(0.108978 0.000266095 -5.3475e-05)
(0.106978 0.000192549 0.000274568)
(0.108817 -0.000105423 -0.000315205)
(0.10926 5.4041e-05 0.00041696)
(0.107453 -0.000528228 -3.46008e-05)
(0.109266 -8.94899e-05 -0.000157197)
(0.109008 -4.17943e-05 -2.84603e-05)
(0.108984 0.000255144 -2.86292e-05)
(0.109025 0.000182834 -0.000275828)
(0.108931 -2.37574e-05 -0.000212114)
(0.109577 0.00030262 4.83406e-05)
(0.109014 0.000344076 0.000473048)
(0.109649 -2.21654e-05 0.000256149)
(0.108754 0.000155306 0.000135025)
(0.108551 -5.86868e-06 -0.000135711)
(0.108916 -0.000237676 3.64617e-05)
(0.108667 0.000144709 0.000170371)
(0.106826 -0.000363178 -3.09977e-06)
(0.108479 -0.000440624 0.000147556)
(0.108809 2.35859e-05 0.000213701)
(0.108993 6.31708e-05 -2.38378e-05)
(0.109293 -0.000184932 -0.000318892)
(0.108828 -0.000106646 0.000233555)
(0.109601 0.000304678 0.000381607)
(0.109516 0.000286667 -0.000213724)
(0.108037 -0.000150473 0.000598691)
(0.108365 0.000333336 -0.000343159)
(0.109188 -7.07614e-05 -0.000475047)