/*--------------------------------*- C++ -*----------------------------------*\
| =========                 |                                                 |
| \\      /  F ield         | OpenFOAM: The Open Source CFD Toolbox           |
|  \\    /   O peration     | Version:  2212                                  |
|   \\  /    A nd           | Website:  www.openfoam.com                      |
|    \\/     M anipulation  |                                                 |
\*---------------------------------------------------------------------------*/
FoamFile
{
    version     2.0;
    format      ascii;
    arch        "LSB;label=32;scalar=64";
    class       surfaceVectorField;
    location    "0.006";
    object      Uf;
}
// * * * * * * * * * * * * * * * * * * * * * * * * * * * * * * * * * * * * * //

dimensions      [0 1 -1 0 0 0 0];

internalField   nonuniform List<vector> 
68568
(
(0.108803 0.000292192 -0.000338863)
(0.108658 0.000544155 -0.000255246)
(0.108441 0.000249516 -4.97053e-05)
(0.109262 0.000596588 -0.000132512)
(0.108711 -0.000194752 2.24942e-05)
(0.108658 -0.000290146 -0.00015729)
(0.108349 -0.000174968 5.0226e-05)
(0.107164 -5.82847e-05 6.54937e-05)
(0.109108 6.86404e-05 1.34811e-05)
(0.108909 -0.000348385 0.000225899)
(0.108565 -5.49975e-05 -0.000153943)
(0.108233 -0.000539048 0.000290478)
(0.109317 -9.60982e-05 2.86346e-05)
(0.109021 0.000162881 1.1517e-05)
(0.109533 0.000147773 9.81041e-05)
(0.109471 9.43237e-05 1.4176e-05)
(0.10796 -0.000247686 0.000209786)
(0.108794 -0.000347225 0.000218314)
(0.107627 -0.000321893 -7.60349e-05)
(0.108459 -0.000395894 -8.6071e-05)
(0.108991 -4.8659e-05 -2.31999e-05)
(0.108657 0.000162277 -1.40586e-05)
(0.108933 0.00016758 -6.83055e-05)
(0.107741 3.25171e-05 -0.000311481)
(0.108186 -8.3259e-05 -0.00018233)
(0.10672 -2.05709e-05 -2.67956e-05)
(0.107393 1.55047e-05 -0.000215857)
(0.108306 -4.12615e-05 -0.00013923)
(0.108209 3.30659e-05 0.000284386)
(0.108736 0.000145428 -0.000168893)
(0.108389 -0.000113854 1.23859e-05)
(0.108682 -5.64691e-05 3.8796e-05)
(0.108318 7.3203e-05 -0.000148666)
(0.108376 0.000145953 -0.000330726)
(0.109061 -6.49449e-05 6.19539e-05)
(0.108958 -4.28733e-05 -0.000219591)
(0.109134 8.4208e-05 -0.000266689)
(0.109347 -0.000159053 -0.000120277)
(0.109237 0.0003388 -0.000159333)
(0.109128 0.00016211 -0.000150321)
(0.10933 4.22313e-05 -5.003e-05)
(0.108295 7.16775e-05 -0.000219816)
(0.109381 -0.000154452 -0.000331746)
(0.10919 -0.000232095 -0.000271559)
(0.108735 -2.86974e-05 2.16013e-05)
(0.108532 -7.74671e-05 0.000111182)
(0.10738 5.83978e-05 -0.00010869)
(0.109254 -0.000126025 -0.000147235)
(0.109172 -5.3084e-05 -4.35474e-06)
(0.109027 -5.30161e-05 2.17043e-05)
(0.108234 -6.20225e-05 -3.66379e-05)
(0.108045 -0.000127336 -4.3016e-05)
(0.108549 -0.000196441 -0.000118673)
(0.10842 -0.000204901 4.63313e-05)
(0.107046 -0.000201728 1.55228e-06)
(0.108265 -0.000162964 0.00032905)
(0.106736 -9.03231e-05 0.000152744)
(0.107357 -7.1934e-07 0.000317644)
(0.10818 -1.77371e-05 0.000121862)
(0.107959 -1.3382e-06 -0.000183406)
(0.10812 0.00015229 -0.000148775)
(0.108177 -2.99639e-05 -0.000221154)
(0.108437 -0.000205941 -0.000257283)
(0.106899 -1.0502e-05 8.39268e-05)
(0.106935 -0.00023909 0.000202398)
(0.107978 -0.000177215 2.2198e-05)
(0.107993 0.000235492 -0.000259025)
(0.107501 1.73112e-05 -7.39177e-05)
(0.106821 0.000361632 -0.000256914)
(0.108279 0.000147155 -0.000177876)
(0.108638 -1.83702e-05 -0.0001316)
(0.109005 -0.000179321 -0.000112589)
(0.10894 -0.00018833 -0.000354937)
(0.107826 -9.06324e-05 -0.000173848)
(0.106925 -2.55071e-05 0.000118128)
(0.107515 0.000100236 0.000222794)
(0.106995 0.000268202 0.000162741)
(0.103394 4.07236e-05 -2.53179e-06)
(0.108772 -9.18965e-05 1.17587e-05)
(0.109217 0.000174474 -4.3449e-05)
(0.108793 0.00010308 -5.40937e-06)
(0.109002 0.000111016 -5.57275e-05)
(0.109 7.84776e-05 3.94498e-05)
(0.108991 0.000177751 0.000230312)
(0.108257 0.000243791 0.000262039)
(0.109238 0.000144 8.48536e-05)
(0.107453 0.000103986 -0.00010994)
(0.107575 0.000186455 -0.00020057)
(0.108463 0.000377297 -0.00023342)
(0.108518 0.000246804 -5.33396e-05)
(0.106587 -6.55023e-06 -0.000124086)
(0.107975 -9.00588e-05 -0.000212427)
(0.107268 3.99871e-05 -0.000261902)
(0.108063 -6.77942e-05 8.78092e-05)
(0.108247 0.000199139 -0.000154368)
(0.108362 1.7073e-05 -0.000160719)
(0.108969 5.96637e-05 0.000129562)
(0.108699 3.57281e-05 2.77414e-05)
(0.108911 -0.000145824 4.02133e-05)
(0.107712 -5.33943e-05 0.000220704)
(0.110409 0.000282031 0.000519331)
(0.11 0.00050535 0.000420789)
(0.110821 0.000201043 0.000214972)
(0.110344 -2.96965e-05 -0.000170508)
(0.108411 0.000212436 0.000361767)
(0.106786 0.000260041 0.000137601)
(0.107311 8.01386e-05 0.000322332)
(0.108814 0.000221778 6.7609e-05)
(0.108708 4.44647e-06 0.000396592)
(0.108883 0.000296021 1.67106e-08)
(0.109238 -0.000210027 -0.000103797)
(0.10905 9.76165e-05 -4.7109e-05)
(0.109316 -0.000115218 -0.000121388)
(0.108909 -0.000119687 3.6837e-06)
(0.108029 -0.000161327 -8.88135e-05)
(0.108023 2.11047e-05 -0.000132967)
(0.106955 -1.68497e-05 6.08619e-06)
(0.106865 -3.72498e-05 6.72112e-05)
(0.109092 5.8886e-05 -7.86783e-05)
(0.108966 3.3503e-05 -0.000159601)
(0.108867 -6.67298e-05 -0.00033754)
(0.109048 -4.57938e-05 -0.000357909)
(0.107441 9.11471e-05 -0.000298582)
(0.106958 -5.05756e-05 -0.000228169)
(0.108526 5.98047e-05 -0.000156608)
(0.108468 0.000210092 -0.000185347)
(0.107461 -2.32674e-05 2.82159e-05)
(0.106739 -3.97671e-05 -0.000170319)
(0.106607 -0.000292777 -1.4418e-05)
(0.103718 -0.000157086 -2.88061e-05)
(0.109084 0.00039035 -0.000354646)
(0.106686 0.000100578 5.57135e-05)
(0.106652 -3.52401e-05 -6.592e-05)
(0.105886 -1.76921e-05 6.48533e-06)
(0.103231 -1.80326e-05 -1.42271e-05)
(0.109313 -0.000112736 3.57054e-05)
(0.109167 -0.000351437 0.000262296)
(0.109272 -0.000127504 0.000125401)
(0.109136 -0.00021704 6.18354e-05)
(0.108907 -0.000139255 5.45342e-05)
(0.108847 -1.30875e-05 3.42243e-05)
(0.109261 -1.48079e-05 0.000154886)
(0.106145 0.000305915 -0.000211524)
(0.106611 -0.000130809 -9.80886e-05)
(0.103585 8.88346e-05 -7.35789e-05)
(0.107828 -5.23005e-05 -3.25931e-05)
(0.106987 7.89339e-05 -0.000160794)
(0.103744 0.000124903 -5.61557e-05)
(0.107266 0.000137802 9.89322e-05)
(0.107181 6.38169e-06 -6.53447e-05)
(0.107546 -0.000123662 -4.27312e-05)
(0.103327 1.01336e-05 0.000104416)
(0.109121 -0.000111966 7.08215e-05)
(0.108759 -0.000146202 9.47268e-05)
(0.108811 -0.000277695 -6.73058e-05)
(0.10914 -0.000781026 -0.000262154)
(0.108868 -0.000579275 -0.00044383)
(0.109134 -0.000338319 -0.000589173)
(0.108985 -0.000264062 0.000153703)
(0.109069 -0.000337062 0.000127729)
(0.108869 -0.000165087 0.000152545)
(0.109412 -0.000405919 -1.79605e-05)
(0.109257 -0.000355114 -8.08763e-05)
(0.109079 -0.000277969 -0.000202866)
(0.109367 -7.47993e-05 -0.000334952)
(0.108356 0.000195742 -0.000163375)
(0.108038 0.000287911 -0.000150136)
(0.106821 0.000144502 -4.76877e-05)
(0.108298 0.0002875 -0.000338887)
(0.108479 0.000149642 -0.000251748)
(0.107766 0.000198161 -0.000391152)
(0.107247 0.000422851 -0.000275934)
(0.108003 7.09366e-06 0.000265732)
(0.107886 1.56213e-05 0.000136217)
(0.108581 0.000194965 -6.59786e-05)
(0.108314 7.25807e-05 0.000190322)
(0.108878 -7.08447e-05 -0.000308373)
(0.109112 -4.00913e-05 -6.69705e-05)
(0.109202 0.000231087 -0.000100572)
(0.109392 0.000216446 -0.000210619)
(0.109638 9.31553e-05 -5.46273e-05)
(0.107397 9.39955e-05 -0.000388352)
(0.106616 0.000131152 -0.000179786)
(0.106745 1.264e-05 -0.000107945)
(0.102836 9.82555e-05 -8.34001e-05)
(0.108965 0.000144287 0.000123601)
(0.108688 0.000119881 7.47721e-05)
(0.109279 -3.66732e-05 9.36505e-05)
(0.109115 -5.57591e-05 0.00019596)
(0.106307 -8.95576e-05 -2.89475e-05)
(0.10331 1.93827e-05 3.47677e-05)
(0.107775 7.29502e-05 -0.000237456)
(0.10767 -8.93943e-05 2.22535e-05)
(0.108614 0.000109096 -0.000170145)
(0.108683 -4.17445e-05 -6.67851e-05)
(0.10767 0.000191858 0.000184014)
(0.107814 0.000221257 0.000138759)
(0.108337 -6.20747e-05 -7.99626e-05)
(0.107338 0.000322743 -0.00021763)
(0.106879 0.000317985 -8.72929e-05)
(0.107294 0.000321114 0.000113227)
(0.103555 0.000318653 2.53207e-05)
(0.108859 6.51654e-05 0.000255796)
(0.108886 -4.14725e-05 8.36992e-05)
(0.10853 5.00923e-05 0.000123396)
(0.107673 9.07811e-05 0.000249991)
(0.108939 -0.000198405 0.000214083)
(0.108576 -6.1831e-05 0.000192234)
(0.108891 -0.000164485 9.33638e-05)
(0.107495 3.2762e-07 0.000216332)
(0.106539 -5.45771e-05 -0.000148731)
(0.106669 0.000103203 7.68538e-05)
(0.103778 -4.65393e-05 -7.09385e-05)
(0.108176 -0.000195656 -0.000153966)
(0.108131 0.000139276 -5.55773e-05)
(0.108222 0.000252572 5.95683e-05)
(0.108613 0.000229759 -0.000159709)
(0.108608 4.47201e-05 -2.62788e-05)
(0.109041 1.50908e-05 -0.000290946)
(0.108604 0.000174744 -0.000386747)
(0.108185 -5.91417e-05 -0.000130715)
(0.107305 2.4441e-05 -0.000101876)
(0.107316 -0.000208612 -0.000151401)
(0.103708 -0.00011533 -8.30604e-05)
(0.109068 6.81371e-05 -4.25791e-05)
(0.109105 0.000171178 0.000191603)
(0.107548 8.09406e-05 -8.34699e-05)
(0.108208 3.25006e-05 -5.53057e-05)
(0.108145 0.000213282 1.82577e-05)
(0.108593 0.000187345 0.000118948)
(0.108157 0.000194131 0.000259559)
(0.109455 0.000190549 -0.00016748)
(0.109532 4.07246e-05 -0.000204828)
(0.109413 0.000122396 -0.000126936)
(0.109132 0.000177727 -3.86414e-05)
(0.10769 0.000386301 -0.00034655)
(0.108511 2.35689e-05 -0.000490637)
(0.10858 -0.000165949 -0.000275711)
(0.108534 -5.02242e-05 2.79171e-05)
(0.108871 -4.31883e-05 -7.74307e-05)
(0.108585 -6.44298e-05 3.76279e-05)
(0.107583 4.0569e-05 -0.00013417)
(0.107633 -0.000318703 0.000220097)
(0.107586 0.000144249 0.000213725)
(0.103506 -2.88722e-05 5.35959e-05)
(0.109305 0.00035088 -3.57713e-06)
(0.109414 0.000350081 -0.000150223)
(0.109072 0.000203412 4.95511e-06)
(0.109211 0.000181661 -0.00030851)
(0.109203 9.48465e-05 0.000200483)
(0.108873 -9.34872e-05 0.000143792)
(0.109188 -0.000211504 0.000105954)
(0.108852 0.000156018 -7.84194e-06)
(0.107837 -0.000274201 -0.000254918)
(0.107757 -0.0001218 2.0815e-05)
(0.108262 -0.000328537 -0.000229719)
(0.106013 -0.000531305 -0.0003245)
(0.109028 -2.5507e-07 -0.000226321)
(0.108986 -0.000262746 -0.000361152)
(0.109324 -0.000171848 -0.000100237)
(0.109376 1.5115e-05 -0.000126649)
(0.109117 -2.4868e-06 -0.000153593)
(0.108715 -6.94904e-05 1.17418e-05)
(0.108691 -3.08088e-05 -9.62232e-06)
(0.107718 8.35134e-05 -0.000225646)
(0.109005 4.0765e-05 0.000111561)
(0.108839 6.87679e-05 2.30156e-05)
(0.108254 -5.98931e-05 -6.93335e-05)
(0.1067 -0.000115598 -5.28124e-05)
(0.106638 -0.000109825 -4.94447e-06)
(0.10715 2.65068e-05 -9.78902e-05)
(0.103339 5.49046e-05 -3.02655e-07)
(0.109175 -0.00013883 -1.17619e-05)
(0.109285 -0.000316462 0.000134958)
(0.109504 -0.000317699 0.000166116)
(0.107783 0.000174569 -0.000194943)
(0.108679 4.814e-05 -6.92152e-05)
(0.108545 0.000268066 -7.73739e-06)
(0.1086 -8.79023e-05 0.000143735)
(0.108778 4.03572e-05 8.66058e-05)
(0.108981 0.000126945 0.000182873)
(0.107412 -3.68426e-05 0.000183608)
(0.107406 -6.96313e-05 -0.000126938)
(0.109224 -2.71424e-05 7.6929e-05)
(0.108511 0.000111997 5.95174e-05)
(0.109282 0.000234412 0.000129881)
(0.106846 0.000320875 -7.80316e-05)
(0.108172 6.6657e-05 -0.000104224)
(0.108179 4.12407e-05 3.20236e-05)
(0.105762 0.000110589 -5.68707e-05)
(0.106292 0.000154215 9.1243e-05)
(0.10605 1.38085e-05 0.000147263)
(0.103407 3.0077e-05 5.34336e-05)
(0.109383 9.40924e-05 -0.000203002)
(0.108934 6.05898e-05 -0.000315053)
(0.10939 -1.03535e-05 -0.000250185)
(0.109273 -0.000177747 4.80817e-06)
(0.109441 -0.000242546 -0.000264665)
(0.109043 -8.08825e-06 -1.86409e-05)
(0.109207 6.67066e-06 -7.28723e-05)
(0.107659 -8.90722e-05 9.74133e-05)
(0.108336 3.29544e-05 -6.77429e-05)
(0.108763 -0.000125254 -5.48921e-05)
(0.108888 1.57957e-05 -8.99925e-05)
(0.108339 -6.91063e-05 0.000150226)
(0.109299 -0.000143999 -4.94161e-05)
(0.108879 -9.30074e-05 -0.000303449)
(0.108953 -0.00010951 0.000153597)
(0.109267 -0.000190987 -9.76084e-05)
(0.109472 -1.12783e-05 7.17133e-05)
(0.109156 1.94143e-05 -1.48625e-05)
(0.109361 3.11777e-05 -0.000120138)
(0.10919 0.000114227 -0.000116514)
(0.109134 -4.06544e-05 -3.9503e-05)
(0.109298 0.000139951 -0.000221189)
(0.106874 0.000526513 -0.000576982)
(0.107908 0.000102752 -0.000432237)
(0.107531 0.000393303 -0.000504623)
(0.102567 0.000105083 -0.000328576)
(0.108924 0.00017466 -0.000109155)
(0.109179 4.00522e-05 -0.000101378)
(0.109478 0.000266757 -0.000298014)
(0.108794 -9.33787e-05 0.000113286)
(0.10924 5.631e-05 -7.64471e-05)
(0.107666 0.000135544 -8.51978e-05)
(0.107433 -2.81891e-05 -9.40347e-05)
(0.107265 -0.000195262 -3.88892e-05)
(0.108288 -0.000119983 4.38203e-05)
(0.108054 -0.000225461 -5.38174e-05)
(0.107095 -4.33223e-05 -0.000444217)
(0.10722 -5.88772e-06 -7.65413e-05)
(0.103072 -7.13068e-05 -6.28981e-05)
(0.108275 0.00030954 -0.000183985)
(0.108792 0.000168436 -0.000353189)
(0.107327 -1.4734e-05 -0.00010883)
(0.106984 -0.000170402 -6.55103e-05)
(0.108012 -0.000333532 -5.607e-05)
(0.106797 -0.000351019 6.31153e-05)
(0.107977 -0.000294166 -2.13337e-05)
(0.108404 0.000485917 -0.000220085)
(0.10839 0.000521523 -0.000161807)
(0.107999 0.000450655 0.000103528)
(0.107459 0.000536412 4.44432e-05)
(0.108043 0.000278553 -3.64749e-05)
(0.108352 0.000228665 -0.000173299)
(0.108946 0.000425458 1.40849e-06)
(0.109124 -0.000209001 0.000108829)
(0.109038 -0.000155407 0.000197056)
(0.107457 -4.52535e-05 0.000213737)
(0.108584 0.000111106 7.05765e-05)
(0.108556 5.49606e-05 4.85863e-06)
(0.10891 5.05671e-05 -7.29955e-05)
(0.107494 -1.61094e-05 -0.000194086)
(0.10716 -0.000229077 -0.000252082)
(0.107402 8.58156e-05 -0.000305608)
(0.106888 -0.000297003 -0.000301014)
(0.10341 -0.000165043 -0.000201392)
(0.108545 0.000283817 7.73522e-05)
(0.108701 0.000154779 -8.30772e-05)
(0.107931 -8.92169e-06 -0.000281948)
(0.1087 0.00013477 -0.000130645)
(0.108507 3.13302e-05 0.000213203)
(0.108308 0.00012385 0.000129442)
(0.108263 0.000240346 0.00018155)
(0.108062 -9.80773e-05 -0.000129441)
(0.107085 7.00649e-05 -6.60362e-05)
(0.106403 -1.98543e-05 -9.51576e-05)
(0.107049 -0.000342392 -8.05495e-05)
(0.106674 -5.97363e-05 -0.00018062)
(0.103222 -5.79462e-05 7.7951e-07)
(0.107421 7.33105e-05 -0.00018282)
(0.103138 9.27471e-05 -0.000199234)
(0.109179 -0.000180796 -0.000202498)
(0.109612 9.27481e-05 7.24888e-05)
(0.10965 -2.50021e-05 -0.000276631)
(0.103792 0.000168866 0.000145836)
(0.106797 8.69764e-05 -0.00037375)
(0.107242 0.000255366 -0.000172962)
(0.107033 0.000103789 -0.000371135)
(0.102863 0.000159731 -0.000517709)
(0.106837 0.000301654 0.000108932)
(0.108103 0.000299069 7.42419e-05)
(0.106674 -6.28083e-05 0.000148908)
(0.106358 7.23115e-05 6.3681e-05)
(0.107005 0.000179091 0.000175853)
(0.103356 -4.79052e-05 -3.16083e-05)
(0.109087 -0.000324032 3.26037e-05)
(0.108641 -0.000299946 0.000231111)
(0.108807 -0.000138578 0.000144211)
(0.109139 -0.000274997 6.02712e-05)
(0.107886 0.000182708 -0.000448403)
(0.107388 2.72713e-05 -0.000264587)
(0.107263 5.66524e-05 -0.000140559)
(0.103328 0.000162012 -0.000194602)
(0.108713 -4.26668e-05 -0.000306472)
(0.108547 8.01896e-06 -0.000225301)
(0.108645 -0.000304635 -0.000123194)
(0.107556 -9.49993e-05 -0.00032884)
(0.107307 -0.000135473 -0.000208222)
(0.107298 -0.000375017 -0.000213264)
(0.108056 -0.000208564 -0.000193164)
(0.109169 -4.99996e-05 -0.000160854)
(0.109079 6.12637e-05 -0.000138846)
(0.10879 9.81171e-06 -1.02828e-05)
(0.107556 0.00017606 -0.00026567)
(0.107264 0.000117135 -0.000170849)
(0.106699 -0.000101402 -8.5752e-05)
(0.107013 -0.00011374 7.16881e-07)
(0.103431 -9.69068e-05 -0.000103604)
(0.108721 0.000107911 7.47369e-05)
(0.107321 5.38925e-05 -8.53783e-05)
(0.107239 -6.29957e-05 9.53339e-05)
(0.108483 -0.000466388 0.000134442)
(0.107373 -0.000238888 6.83218e-05)
(0.108483 -0.000298226 0.000156457)
(0.108831 -0.000144797 2.23647e-05)
(0.107988 -0.000236221 -0.000119516)
(0.108725 -0.000209477 -5.40272e-05)
(0.108906 0.00022826 0.000186649)
(0.108874 -7.49616e-06 0.000116024)
(0.107567 -6.49865e-05 0.00012457)
(0.10805 -0.000220838 -5.42917e-05)
(0.108346 -6.77013e-05 -0.000142318)
(0.108653 4.07212e-05 -8.33075e-05)
(0.108802 -0.000163511 8.14953e-05)
(0.108948 -0.000154691 0.000116288)
(0.109239 -2.30841e-05 4.79357e-05)
(0.109381 -9.90397e-05 0.000200395)
(0.109052 2.36667e-05 4.51792e-05)
(0.109011 8.23293e-05 -0.000292078)
(0.109414 1.04853e-05 -7.81499e-05)
(0.108076 0.000326546 -0.000250218)
(0.108535 4.04022e-05 -0.000266958)
(0.108756 0.000172667 -0.00037126)
(0.107976 -0.000146904 -0.000113205)
(0.109194 0.00042452 -0.000436403)
(0.108439 -0.000122825 -1.93888e-07)
(0.109035 2.23742e-05 7.76273e-05)
(0.10904 7.60031e-05 -8.72891e-06)
(0.109044 -0.000100294 5.69035e-05)
(0.108794 0.000135784 9.63223e-05)
(0.10901 0.000156301 0.00017608)
(0.107403 5.87377e-05 0.000122526)
(0.106704 5.17395e-05 -9.08202e-05)
(0.106719 0.000233591 -0.000231179)
(0.107018 -0.000245222 -0.000230123)
(0.108114 -0.000125287 -0.000155698)
(0.10819 -0.000194611 -0.000161332)
(0.108933 -0.000269756 0.000114798)
(0.108776 -4.02858e-05 4.20834e-05)
(0.109216 -0.000114214 -0.000218477)
(0.109325 -7.10708e-07 2.7985e-05)
(0.108999 8.43456e-05 -0.000182632)
(0.108532 -0.000185576 -0.000180352)
(0.108634 0.000146691 -0.000188168)
(0.108826 0.000168811 -2.67794e-06)
(0.108976 0.000268516 -0.000156842)
(0.109145 0.000111663 -0.000473141)
(0.109009 0.000249086 -0.000212921)
(0.109125 -0.00011901 -0.000174734)
(0.108818 -2.70315e-05 -3.76203e-05)
(0.1089 5.60896e-05 0.000111764)
(0.108664 -0.00013501 1.8749e-05)
(0.109115 -0.000187382 -5.06565e-06)
(0.108715 2.4464e-05 4.75028e-05)
(0.107612 -8.11097e-05 -7.09636e-05)
(0.109152 -3.59918e-05 0.000162481)
(0.10751 0.000144595 -0.000307024)
(0.108935 -2.32668e-05 -9.34703e-05)
(0.109241 4.51361e-05 -0.000174862)
(0.10885 0.000104948 -0.000270717)
(0.109217 0.000161001 0.000291365)
(0.107536 0.000111349 -7.95811e-05)
(0.106577 0.000224487 -0.000322498)
(0.10357 0.000102326 -0.0001732)
(0.106837 -0.000230618 -0.00040209)
(0.103173 -0.00021721 -0.000138514)
(0.109445 0.000306584 0.000445397)
(0.109121 0.000309495 0.000103933)
(0.10873 -2.74694e-05 -0.00011706)
(0.10752 -9.19216e-05 -4.48119e-05)
(0.109137 -6.05552e-05 -0.000253381)
(0.109059 -5.62962e-05 -0.000105725)
(0.108708 -4.6002e-05 -0.00011882)
(0.107483 -9.13443e-05 3.57605e-05)
(0.109296 5.52584e-05 0.000239753)
(0.109436 9.9378e-06 0.000221954)
(0.109412 2.78373e-05 0.000212349)
(0.108958 6.09181e-05 0.000133956)
(0.108927 0.000273947 -3.03609e-05)
(0.108866 0.000113949 -8.7192e-05)
(0.109218 0.000119994 -6.17555e-05)
(0.106396 -4.23781e-05 -2.55327e-05)
(0.107102 0.000138192 0.000152312)
(0.10286 -8.23176e-06 -0.000140803)
(0.107441 0.00024364 -0.000303786)
(0.107061 -1.77204e-05 -0.000297232)
(0.106778 6.99095e-05 -0.000233716)
(0.103331 -4.92146e-05 -0.000368383)
(0.109099 -0.000111298 -9.87752e-06)
(0.10844 -0.000112759 -0.000243881)
(0.109092 -0.000160671 -8.74689e-05)
(0.108192 -7.57517e-05 -0.000193544)
(0.108804 2.95079e-05 -0.00026871)
(0.106888 -0.00016581 -0.000199259)
(0.107026 -0.000186495 -0.00029386)
(0.103185 -0.000171726 -0.000177907)
(0.107532 -0.000135387 -9.17648e-05)
(0.106918 0.000232681 -1.05714e-06)
(0.10662 -6.44374e-05 0.000132499)
(0.103897 1.50053e-05 5.14108e-05)
(0.108803 -0.000229074 -9.07048e-05)
(0.108573 -6.72443e-05 -0.000104841)
(0.108559 -9.11352e-05 -0.000235539)
(0.108894 1.7068e-05 -0.000248769)
(0.107258 -0.000215319 -0.000298534)
(0.107148 0.000321589 -0.000277731)
(0.108188 -5.39113e-07 -0.000152707)
(0.103486 -0.000107224 -0.000333222)
(0.108367 0.000104218 0.000118853)
(0.108314 -0.0002271 -0.000141119)
(0.108225 -0.000114979 -0.000104047)
(0.107095 4.61351e-05 0.000191452)
(0.10758 -3.82656e-05 -0.000156485)
(0.10855 0.000108935 -0.000336724)
(0.108336 0.000110054 -0.000408646)
(0.108577 -2.75799e-05 -5.08555e-05)
(0.109109 -0.000113323 -2.78593e-05)
(0.108779 0.000142426 -8.68734e-05)
(0.107709 3.21423e-05 -0.000174219)
(0.106877 0.000237868 -0.000283868)
(0.107422 0.000384791 -0.000285927)
(0.102809 -0.000145237 -0.000329453)
(0.109431 -5.16107e-05 6.81468e-05)
(0.109461 -0.000135513 0.000107655)
(0.108899 -4.06232e-05 0.000101096)
(0.109464 7.96484e-06 9.47003e-06)
(0.108853 -0.000142518 -6.79176e-05)
(0.108047 -2.45652e-05 -1.90317e-05)
(0.107936 -3.81357e-05 -0.000121695)
(0.108739 3.84712e-05 8.28292e-05)
(0.107895 -0.000361258 0.000150751)
(0.108092 -0.000203106 9.95964e-05)
(0.10365 -3.89914e-05 7.02501e-05)
(0.107569 -0.00040511 0.000428927)
(0.107118 -0.000337334 0.000331197)
(0.107604 -0.000222595 0.000255457)
(0.103223 -5.74551e-05 2.94313e-05)
(0.108433 -2.58605e-05 -0.000103383)
(0.106906 -5.68009e-05 -6.12684e-05)
(0.107664 -0.000110329 -0.00040801)
(0.109557 -3.27427e-05 -4.80018e-05)
(0.109272 -1.16878e-05 -0.000132766)
(0.106806 -8.20455e-06 0.000254313)
(0.106537 4.80115e-06 0.000151815)
(0.107066 -0.000282253 4.21748e-06)
(0.103114 -8.61936e-05 0.000136417)
(0.107702 -0.000289026 -0.000150533)
(0.107572 2.96978e-05 9.08387e-05)
(0.103509 -0.000328292 -0.000290462)
(0.106657 -5.96484e-05 8.59108e-05)
(0.107452 0.000151843 -1.57504e-05)
(0.106831 -0.000104236 -7.53281e-05)
(0.103526 -6.98597e-05 -6.019e-05)
(0.106838 -0.000231385 0.000110947)
(0.107609 -0.000242393 0.000206582)
(0.107274 -0.000387873 -0.000143404)
(0.103222 -0.000152056 -8.89255e-05)
(0.107863 6.36971e-05 -0.000106559)
(0.108205 0.000120128 -4.38769e-06)
(0.108354 -2.43372e-05 -8.70683e-06)
(0.106953 0.000116989 -3.42351e-05)
(0.107135 0.000342508 0.000228144)
(0.106864 0.000120166 0.000295186)
(0.103518 0.000165475 0.000131395)
(0.109068 -0.000279572 5.89219e-05)
(0.108857 -0.000205863 0.000141008)
(0.10895 -0.000183398 -1.49028e-05)
(0.108777 -0.0004152 1.06354e-05)
(0.109049 -0.000164459 0.000237097)
(0.109099 -0.000137132 -0.000166974)
(0.10942 -0.000253886 0.000111932)
(0.109539 -0.000139659 2.97388e-05)
(0.106034 0.000166639 -0.00025611)
(0.106128 -0.000102659 0.000174269)
(0.106827 -6.76236e-05 6.31512e-05)
(0.103544 -0.00026991 2.35121e-05)
(0.107723 -0.000109817 0.000106518)
(0.108059 -0.000333876 -1.98631e-06)
(0.108026 -5.91219e-05 5.9054e-05)
(0.105671 -7.04943e-05 0.000160051)
(0.10818 0.000319079 -0.000185793)
(0.108721 0.00024325 -0.000409985)
(0.108829 0.000282208 -0.000407461)
(0.107583 0.000259189 -0.000596307)
(0.107417 -0.000107231 -5.01135e-05)
(0.106568 5.29231e-05 -0.00012894)
(0.106414 -0.00028287 2.39728e-05)
(0.103661 5.66212e-07 -1.36704e-05)
(0.109026 -6.53868e-05 8.65927e-05)
(0.107658 1.07594e-05 -6.0663e-05)
(0.108844 -0.000243025 -0.000264854)
(0.109284 -0.000130305 -0.000112885)
(0.109175 -2.51803e-05 -7.70011e-05)
(0.109023 9.10698e-05 -0.000169242)
(0.108886 0.000257499 -0.000115415)
(0.108241 0.00022924 -0.000143613)
(0.107584 0.00031013 0.000103699)
(0.108899 0.000140242 -0.000174363)
(0.108596 0.000288897 -8.94631e-05)
(0.108805 0.000201233 9.64739e-05)
(0.108903 0.000126431 3.22157e-05)
(0.109047 -4.65975e-05 -6.27008e-05)
(0.109122 -7.74232e-05 -2.93907e-05)
(0.107625 -9.75404e-05 -0.000114584)
(0.108786 -1.49582e-05 -0.000129095)
(0.108428 -9.86949e-05 1.7497e-05)
(0.108829 -9.71405e-05 -2.48152e-05)
(0.107235 2.74939e-05 -0.000223878)
(0.10891 1.68985e-05 -0.000128905)
(0.109011 9.71553e-05 -9.06151e-05)
(0.107606 0.00010691 -9.06987e-05)
(0.107452 -0.000173506 0.000281372)
(0.108487 -0.000375495 0.000190587)
(0.10849 -0.000307201 0.000247266)
(0.108052 7.95135e-05 8.44561e-05)
(0.10868 1.5026e-05 -0.000116109)
(0.108696 0.000157419 -0.000145505)
(0.107416 0.000283974 0.000143914)
(0.10742 0.000219945 0.000232905)
(0.106438 0.000204811 -9.22616e-05)
(0.103333 0.0003188 -7.97793e-05)
(0.108939 -0.00016629 0.000165342)
(0.109169 0.000153745 -0.000446025)
(0.109275 0.000655974 -0.000285233)
(0.108617 -0.000139834 5.54336e-05)
(0.108499 -0.000191558 0.000141151)
(0.106904 -0.000277647 0.000229396)
(0.108551 0.000186905 -1.6326e-05)
(0.108876 -0.000105833 4.76132e-05)
(0.108834 5.27865e-05 -0.00027091)
(0.108914 0.00014179 -0.000227328)
(0.10737 0.000127369 -0.000136673)
(0.107652 0.000105864 5.79793e-06)
(0.107308 1.87462e-05 -0.000195599)
(0.103125 0.000155655 -2.22793e-05)
(0.10663 0.000209651 0.000373721)
(0.106678 -5.2044e-06 0.000374492)
(0.107156 1.52713e-05 0.000540563)
(0.103407 -1.52227e-05 0.000272563)
(0.108563 -9.9827e-05 -0.000343293)
(0.108698 0.000111416 -5.06536e-05)
(0.109074 -0.000148152 -7.04521e-05)
(0.108927 0.000186603 -0.000205915)
(0.108779 -0.000152729 0.000243994)
(0.109171 4.31663e-05 0.000223173)
(0.108519 7.70316e-05 0.000271839)
(0.107694 -5.40935e-05 0.000489444)
(0.108261 -0.00010249 0.000123547)
(0.108213 -0.000266111 0.000235311)
(0.107934 -0.000127462 0.000488928)
(0.108592 -6.61231e-05 0.000102435)
(0.109056 -0.000155847 0.000114653)
(0.107573 1.31846e-05 0.000207553)
(0.109253 -9.25214e-05 -0.000207136)
(0.109276 0.000101075 -0.000120679)
(0.108744 -0.000100993 6.74341e-06)
(0.107676 0.000161122 -6.56235e-05)
(0.108435 7.68519e-06 3.48169e-06)
(0.107595 5.14493e-05 7.12492e-05)
(0.108557 8.82324e-05 0.000111228)
(0.107181 0.000290917 9.21184e-07)
(0.108254 0.000416584 0.0001223)
(0.107478 0.000187975 0.000335658)
(0.1084 0.000355158 0.000197334)
(0.10934 0.000110674 0.000128664)
(0.108761 0.00027438 -3.69475e-05)
(0.108879 -0.0002183 -0.00019821)
(0.107319 3.20354e-05 0.000110876)
(0.10323 2.02325e-05 -9.5754e-05)
(0.107422 0.000157111 -4.63713e-05)
(0.108324 9.78281e-05 -4.20097e-05)
(0.10934 7.63997e-05 -4.02792e-05)
(0.109266 -0.000150516 1.72555e-05)
(0.109065 -3.95165e-05 5.11251e-06)
(0.109383 -0.000140611 3.57905e-05)
(0.108976 -0.000127682 5.70857e-05)
(0.108909 -0.000130335 -0.000168898)
(0.108913 -0.000178997 -1.54494e-05)
(0.108877 -0.000123617 -0.000203067)
(0.10916 -0.00022479 -3.74573e-05)
(0.109026 -0.000242716 -8.90123e-05)
(0.108566 -0.000128938 1.98975e-05)
(0.10835 -0.000543909 0.000248071)
(0.108774 -0.000516268 -4.94832e-05)
(0.108697 -0.000438557 -9.79233e-05)
(0.108396 -2.15894e-05 -0.000139923)
(0.108324 3.62042e-06 -0.000251285)
(0.10751 -1.6129e-05 9.90745e-05)
(0.109165 6.60438e-05 0.000131)
(0.10775 -0.000105323 9.5334e-05)
(0.108515 0.000287957 -9.12204e-05)
(0.108538 0.000273393 -9.81181e-05)
(0.108828 -0.000176513 -3.36672e-05)
(0.107459 -0.000101146 -3.02792e-05)
(0.108881 9.30943e-05 -0.000304301)
(0.108386 0.000159503 -0.000379802)
(0.108767 -7.30804e-05 -0.000388705)
(0.103318 1.25241e-05 -0.000198619)
(0.108737 3.57163e-05 -0.000156226)
(0.107672 3.06682e-06 -0.000163669)
(0.107538 0.000127277 -0.0001626)
(0.108409 0.000239881 8.25355e-05)
(0.107482 0.000366626 -3.83662e-05)
(0.108574 0.000479429 -6.58268e-05)
(0.108534 -1.23841e-05 2.26402e-05)
(0.108465 -6.60503e-06 -8.22677e-05)
(0.108397 0.000100894 3.86215e-05)
(0.107747 2.10194e-06 -6.3687e-05)
(0.10895 0.000102012 -0.00010682)
(0.108461 3.91911e-05 -0.000340527)
(0.108814 -3.74797e-05 -0.000104203)
(0.108376 -0.000237883 -0.000213038)
(0.108354 -0.000232407 -0.000210583)
(0.108896 -0.000165485 -3.97404e-05)
(0.108635 -0.000193234 0.000120748)
(0.108869 7.74359e-05 -0.000267223)
(0.108967 0.000123829 -8.32612e-05)
(0.107225 -0.000350457 0.00010371)
(0.107425 -0.000356029 -2.73689e-05)
(0.103369 3.05359e-07 -7.27767e-05)
(0.108152 -0.000245231 -6.6304e-05)
(0.108702 -0.000291069 -6.18864e-05)
(0.108964 -0.000147479 -0.000217735)
(0.108524 7.20593e-05 -0.000244577)
(0.109064 -0.00023085 -0.000197961)
(0.109388 -3.72217e-05 -2.84977e-05)
(0.109233 8.57687e-05 -6.27665e-05)
(0.108889 3.19341e-05 -5.42267e-05)
(0.107639 -0.000251596 -0.00025784)
(0.108955 -0.000217739 -0.000258742)
(0.10607 0.00021879 0.000142042)
(0.106622 -0.000136125 0.000417937)
(0.106584 -0.000117069 0.000393864)
(0.102489 -0.000139592 0.000470773)
(0.108777 -0.000292914 -5.50031e-05)
(0.108445 -0.000435373 0.000112743)
(0.107795 -0.000287022 0.000455524)
(0.106552 -0.000402014 -0.000263509)
(0.103632 -8.00414e-05 -0.000133559)
(0.10834 7.36194e-05 -7.13644e-05)
(0.108325 -4.89071e-05 4.53121e-05)
(0.10235 -8.13161e-05 -0.000132377)
(0.108595 -0.000171457 5.76273e-05)
(0.109102 -0.000210941 6.62795e-05)
(0.106998 2.99163e-05 0.000144709)
(0.10774 0.000298805 0.000153163)
(0.10804 4.93944e-06 8.71526e-05)
(0.107329 -3.11995e-05 -8.5065e-05)
(0.107312 6.22751e-05 -0.000144701)
(0.107429 9.55341e-05 -0.000310544)
(0.103119 3.25235e-05 4.27543e-05)
(0.10832 7.9089e-05 -1.26585e-05)
(0.108069 1.85527e-05 -0.000245447)
(0.107998 6.79059e-05 -0.000180226)
(0.109008 0.000203708 -7.73037e-05)
(0.109283 8.55787e-05 -0.00011807)
(0.108201 -6.55143e-05 -0.000181639)
(0.108722 -0.000191285 -0.000175254)
(0.109075 -0.000673818 -0.000342515)
(0.109022 5.67868e-05 0.000209058)
(0.10741 -2.8976e-05 -0.000123416)
(0.107376 -3.11767e-05 -0.000128208)
(0.103003 1.14639e-05 -4.87582e-05)
(0.106995 -0.00029893 -4.91178e-05)
(0.106491 -0.000126131 0.000172637)
(0.103476 -9.5492e-05 -3.18167e-05)
(0.108838 -0.000212901 5.73097e-05)
(0.108125 9.14571e-05 0.000184282)
(0.10863 -4.67128e-05 0.00012082)
(0.108217 5.71338e-05 2.54597e-05)
(0.10886 -0.00012402 -0.000113144)
(0.109301 -0.000144954 -0.000116906)
(0.108688 6.71327e-05 -0.000221504)
(0.107222 0.000147021 1.09054e-05)
(0.107513 0.000152561 -2.97298e-05)
(0.10261 0.000255866 -0.000302299)
(0.109078 -0.000347318 0.000111301)
(0.109133 -0.000386871 6.54762e-05)
(0.108955 -0.000390466 4.16521e-05)
(0.10798 -7.32397e-05 -4.06835e-05)
(0.107255 2.16763e-05 -0.000197127)
(0.103527 2.19747e-05 -0.000184639)
(0.106513 3.32094e-05 0.000131366)
(0.106531 -0.000113649 0.000319514)
(0.103602 -3.35977e-05 4.22396e-05)
(0.108704 0.000146981 -1.48172e-05)
(0.108646 0.000125307 -7.07305e-05)
(0.109069 4.5113e-05 0.000158781)
(0.107658 -0.000126673 -3.14962e-05)
(0.108332 -0.000152809 -0.000263495)
(0.10897 -0.000228706 1.02861e-05)
(0.108273 -0.000105098 0.000264879)
(0.108757 -1.67525e-05 -4.02532e-05)
(0.107882 -0.000259792 0.000163197)
(0.108342 -0.000277368 8.4194e-05)
(0.108411 -0.000259879 0.000126652)
(0.106837 -0.000208806 0.000120936)
(0.106712 0.000214963 0.000279979)
(0.10782 0.000271868 8.07829e-05)
(0.107466 6.3815e-05 -0.000122428)
(0.108088 -7.61367e-05 -3.94995e-05)
(0.10733 0.000132502 0.000131082)