/*--------------------------------*- C++ -*----------------------------------*\
| =========                 |                                                 |
| \\      /  F ield         | OpenFOAM: The Open Source CFD Toolbox           |
|  \\    /   O peration     | Version:  2212                                  |
|   \\  /    A nd           | Website:  www.openfoam.com                      |
|    \\/     M anipulation  |                                                 |
\*---------------------------------------------------------------------------*/
FoamFile
{
    version     2.0;
    format      ascii;
    arch        "LSB;label=32;scalar=64";
    class       volScalarField;
    location    "0.018";
    object      epsilon;
}
// * * * * * * * * * * * * * * * * * * * * * * * * * * * * * * * * * * * * * //

dimensions      [0 2 -3 0 0 0 0];

internalField   nonuniform List<scalar> 
31639
(
2.60408
2.6144
2.64558
2.65092
2.59791
2.5941
2.61155
2.62964
2.60115
2.64939
2.65842
2.6439
2.62374
2.63114
2.59369
2.5872
2.60904
2.57715
2.54106
2.60978
2.57055
2.63481
2.64929
2.56073
2.56795
2.59971
2.61138
2.27061
2.59372
2.64599
2.64508
2.57494
2.64523
2.55917
2.57265
2.65324
2.53393
2.66343
2.65107
2.54797
2.56029
2.54681
2.64048
2.63451
2.65072
2.64456
2.60017
2.57396
2.60041
2.64741
2.63858
2.51129
2.66723
2.57562
2.55807
2.61057
2.55345
2.62171
2.61385
2.55024
2.58837
2.62397
2.58553
2.60072
2.60154
2.64203
2.57169
2.62342
2.58721
2.64439
2.65329
2.54219
2.63151
2.61487
2.66514
2.58327
2.64759
2.58174
2.60198
2.63441
2.55358
2.55447
2.65233
2.63521
2.6115
2.64728
2.65166
2.65228
2.53029
2.66632
2.62432
2.57676
2.54004
2.60548
2.52866
2.59095
2.58078
2.61433
2.62556
2.56117
2.65355
2.65358
2.59413
2.5435
2.53793
2.65021
2.54676
2.53642
2.56035
2.57692
2.59445
2.55978
2.61174
2.57489
2.61292
2.55334
2.61462
2.60561
2.65746
2.61219
2.61289
2.64393
2.62374
2.59327
2.60651
2.6464
2.61582
2.55004
2.55065
2.63337
2.63456
2.61033
2.61325
2.57865
2.60913
2.62123
2.54057
2.54598
2.63758
2.61869
2.61194
2.64076
2.65045
2.52769
2.5577
2.64082
2.62736
2.56518
2.54824
2.65292
2.57285
2.63096
2.54164
2.60646
2.5525
2.64356
2.57958
2.58509
2.52005
2.5557
2.64612
2.56979
2.5847
2.55006
2.5698
2.58387
2.57752
2.64887
2.63775
2.51003
2.53048
2.58565
2.56444
2.62366
2.65168
2.63739
2.62818
2.64925
2.62701
2.60681
2.60306
2.54192
2.56433
2.55146
2.61302
2.65275
2.54663
2.6499
2.57418
2.53776
2.65833
2.62499
2.58524
2.60588
2.60666
2.56253
2.58307
2.63326
2.52062
2.57303
2.6335
2.66861
2.57573
2.58215
2.60735
2.61843
2.59314
2.59173
2.64445
2.54576
2.61082
2.58946
2.6353
2.62786
2.61432
2.63633
2.56371
2.58805
2.6618
2.63538
2.62771
2.60468
2.54473
2.64936
2.54427
2.62282
2.65546
2.57321
2.5622
2.6107
2.60767
2.65178
2.54122
2.56161
2.5795
2.59267
2.51887
2.61617
2.59319
2.52553
2.59958
2.57278
2.57818
2.56395
2.61696
2.60579
2.58618
2.57321
2.51745
2.61759
2.5579
2.59125
2.57663
2.64551
2.64294
2.58776
2.57141
2.6287
2.61678
2.60425
2.65343
2.64064
2.62569
2.65027
2.59906
2.59721
2.5274
2.55714
2.59698
2.57358
2.59026
2.55519
2.60532
2.64836
2.6547
2.62276
2.54015
2.58147
2.56302
2.63689
2.58205
2.65597
2.65018
2.58258
2.54844
2.61364
2.54748
2.55156
2.62588
2.55598
2.66417
2.58079
2.55474
2.56464
2.65977
2.57153
2.61859
2.62118
2.62968
2.63182
2.61711
2.53262
2.61054
2.59163
2.56779
2.5681
2.58735
2.5053
2.55823
2.63726
2.65989
2.62728
2.5554
2.59541
2.63497
2.55232
2.53215
2.64931
2.65066
2.58752
2.63649
2.6514
2.55345
2.65344
2.55584
2.57521
2.64201
2.62613
2.63361
2.64228
2.6052
2.55568
2.56811
2.59136
2.65751
2.67153
2.66651
2.6047
2.54855
2.63756
2.63864
2.57941
2.56817
2.56099
2.59375
2.55876
2.62341
2.55413
2.56264
2.63494
2.67092
2.5714
2.65785
2.60809
2.60135
2.55746
2.5952
2.6071
2.55421
2.65469
2.55464
2.60526
2.65814
2.53794
2.61952
2.60613
2.556
2.58721
2.569
2.55546
2.65488
2.61963
2.55196
2.60381
2.55667
2.60257
2.63902
2.64632
2.67474
2.57305
2.60411
2.54436
2.59293
2.54079
2.63373
2.62825
2.65179
2.64501
2.54893
2.64345
2.62522
2.64169
2.60347
2.59814
2.57125
2.57737
2.59587
2.589
2.58723
2.61862
2.56043
2.58207
2.60605
2.62897
2.62453
2.5413
2.65764
2.63803
2.6123
2.59116
2.61508
2.60014
2.61942
2.55465
2.59887
2.63746
2.55503
2.60062
2.63416
2.57142
2.51935
2.55544
2.60733
2.58407
2.62327
2.602
2.59455
2.66604
2.56542
2.62676
2.64464
2.60961
2.58985
2.57726
2.65852
2.62439
2.63218
2.63603
2.61295
2.54369
2.60856
2.65708
2.65087
2.61456
2.65718
2.57309
2.59779
2.62679
2.63946
2.66199
2.55158
2.61694
2.53265
2.60804
2.59669
2.56574
2.59293
2.57128
2.5783
2.61961
2.55624
2.60663
2.58754
2.59948
2.61595
2.21
2.59322
2.56238
2.58387
2.63739
2.66941
2.61982
2.58032
2.52889
2.60685
2.59927
2.63342
2.5599
2.5646
2.60218
2.56103
2.5663
2.58639
2.56174
2.57096
2.55622
2.61192
2.53979
2.64863
2.6364
2.64322
2.62476
2.6288
2.65635
2.65621
2.60056
2.62886
2.62415
2.63656
2.66989
2.57882
2.62894
2.64544
2.59768
2.53084
2.64251
2.61592
2.52484
2.57611
2.62605
2.67543
2.63872
2.58234
2.65664
2.67752
2.6368
2.63392
2.59754
2.57488
2.55945
2.60014
2.61362
2.65466
2.60762
2.57836
2.54953
2.56522
2.59433
2.51401
2.60161
2.57039
2.58199
2.55967
2.60777
2.58768
2.57095
2.63016
2.61922
2.55427
2.60156
2.67587
2.61416
2.59678
2.30488
2.5699
2.60461
2.61923
2.57025
2.54146
2.62447
2.54245
2.60896
2.5907
2.59006
2.6494
2.60592
2.53163
2.62277
2.62543
2.6383
2.55509
2.51315
2.64318
2.5463
2.62818
2.64752
2.55419
2.61049
2.6663
2.61177
2.59422
2.66106
2.62348
2.55798
2.64751
2.63518
2.58897
2.62743
2.51894
2.53154
2.61443
2.56339
2.64693
2.64398
2.67507
2.62555
2.612
2.64713
2.63108
2.57552
2.57395
2.62335
2.64868
2.69479
2.58326
2.62068
2.59205
2.69831
2.58018
2.53511
2.6458
2.52601
2.64975
2.58465
2.52989
2.55994
2.63865
2.63066
2.60348
2.51486
2.59848
2.56567
2.55882
2.63891
2.64196
2.25865
2.56278
2.60718
2.59384
2.6182
2.61901
2.61254
2.61246
2.63305
2.61573
2.60884
2.57842
2.63666
2.58076
2.62014
2.59206
2.59857
2.6685
2.61195
2.56446
2.52771
2.6053
2.58719
2.63177
2.52349
2.64183
2.62407
2.62992
2.56618
2.58371
2.64185
2.64866
2.63988
2.61282
2.62922
2.62312
2.66916
2.66027
2.65753
2.61118
2.60518
2.53928
2.65366
2.65443
2.60157
2.55853
2.59207
2.52892
2.6284
2.61793
2.66327
2.61375
2.58361
2.52745
2.62665
2.51972
2.55958
2.60456
2.61781
2.53172
2.6204
2.56921
2.5796
2.59674
2.5272
2.64644
2.57344
2.5259
2.57768
2.54268
2.60918
2.63059
2.63599
2.64604
2.54568
2.59284
2.57659
2.57609
2.51881
2.15654
2.64653
2.60678
2.6055
2.6503
2.54922
2.6486
2.65474
2.63364
2.62225
2.63036
2.62701
2.64953
2.64814
2.62221
2.65112
2.625
2.5666
2.64444
2.56962
2.63908
2.56712
2.60145
2.5477
2.66412
2.60535
2.62274
2.62057
2.60196
2.63496
2.5866
2.56806
2.56829
2.62105
2.50642
2.60736
2.63919
2.58285
2.65983
2.64856
2.6609
2.56056
2.60803
2.63107
2.65
2.55885
2.61465
2.58905
2.57399
2.61529
2.55071
2.59855
2.59559
2.55075
2.53017
2.62528
2.60269
2.617
2.59564
2.60227
2.61474
2.59778
2.57933
2.62179
2.62992
2.60878
2.51596
2.54369
2.58288
2.51342
2.50983
2.64373
2.63656
2.61884
2.51531
2.58289
2.63232
2.53018
2.50744
2.57933
2.55836
2.65477
2.5909
2.65237
2.58079
2.55822
2.64003
2.52416
2.58931
2.59418
2.63634
2.65606
2.63831
2.57829
2.62263
2.65585
2.57997
2.64867
2.63345
2.61184
2.66213
2.6079
2.68152
2.6564
2.67142
2.6167
2.58998
2.61683
2.60114
2.56075
2.55862
2.64474
2.62979
2.66792
2.61364
2.6654
2.64674
2.5613
2.6347
2.64731
2.62755
2.62494
2.54551
2.53963
2.66219
2.53781
2.60258
2.60037
2.57691
2.58597
2.62705
2.57885
2.63056
2.5697
2.60366
2.56901
2.64946
2.61863
2.5803
2.56135
2.63823
2.59029
2.59028
2.57477
2.58659
2.58015
2.66918
2.57987
2.66055
2.57311
2.62307
2.60947
2.60113
2.59937
2.63635
2.55937
2.63715
2.65072
2.65698
2.6395
2.61128
2.55066
2.65466
2.64973
2.61454
2.62895
2.6413
2.60691
2.64142
2.62506
2.52249
2.58337
2.65029
2.54056
2.5948
2.69598
2.65173
2.5583
2.55017
2.6621
2.54922
2.58787
2.53076
2.6376
2.65737
2.53537
2.59234
2.62798
2.62461
2.66533
2.58224
2.63891
2.57232
2.57241
2.66622
2.65732
2.5804
2.52849
2.58087
2.6574
2.58781
2.65791
2.6003
2.61922
2.59878
2.60949
2.63596
2.60539
2.57838
2.54252
2.52173
2.58208
2.62161
2.52551
2.63119
2.54318
2.58578
2.54795
2.55428
2.60564
2.55155
2.59648
2.59586
2.6286
2.58021
2.57906
2.57144
2.53865
2.57577
2.63689
2.59606
2.65516
2.61058
2.61322
2.67168
2.58364
2.60971
2.59843
2.60871
2.59928
2.59728
2.62802
2.6439
2.63219
2.66429
2.59373
2.51602
2.60681
2.63683
2.54283
2.58664
2.64413
2.61376
2.68182
2.55204
2.58439
2.6264
2.54861
2.64254
2.66556
2.55933
2.55942
2.60492
2.57712
2.65796
2.66309
2.61929
2.57866
2.65053
2.52671
2.62025
2.65967
2.60482
2.67435
2.54962
2.61092
2.61672
2.60851
2.58032
2.52054
2.61198
2.65565
2.55989
2.62726
2.64721
2.59308
2.57123
2.59774
2.6522
2.57301
2.61587
2.65538
2.64019
2.68195
2.63498
2.58827
2.60528
2.62224
2.60036
2.63927
2.62509
2.6224
2.64763
2.67702
2.59925
2.6287
2.61047
2.54783
2.65312
2.59308
2.65539
2.56677
2.63167
2.58317
2.61346
2.6873
2.62318
2.62125
2.57653
2.62885
2.65556
2.61172
2.5317
2.70751
2.56732
2.59859
2.64072
2.65152
2.63275
2.60656
2.60539
2.67458
2.58911
2.60495
2.57831
2.57156
2.63321
2.55763
2.65299
2.64207
2.67004
2.60385
2.55301
2.61947
2.65109
2.62884
2.62909
2.6551
2.66953
2.62267
2.63285
2.60568
2.60326
2.59271
2.57536
2.65989
2.66894
2.63386
2.64867
2.63332
2.56366
2.68127
2.61253
2.60768
2.59692
2.62848
2.65841
2.61894
2.62643
2.54344
2.61196
2.59839
2.5826
2.60137
2.60716
2.6203
2.67987
2.58056
2.52028
2.59311
2.64815
2.61422
2.57478
2.61149
2.65397
2.64521
2.57859
2.61324
2.61457
2.64887
2.57464
2.58901
2.6204
2.57489
2.60916
2.60186
2.61779
2.65476
2.62854
2.65736
2.62018
2.61355
2.62617
2.50736
2.52439
2.59653
2.66794
2.62961
2.67725
2.71796
2.62845
2.54317
2.64301
2.59054
2.61838
2.60773
2.62006
2.54472
2.65611
2.55666
2.60573
2.58139
2.61009
2.67804
2.63392
2.65131
2.51955
2.61855
2.62151
2.65956
2.52471
2.62936
2.61018
2.62523
2.59689
2.61183
2.66372
2.54899
2.60769
2.56623
2.59356
2.60891
2.66754
2.66108
2.63459
2.64926
2.56959
2.58592
2.55795
2.68295
2.60485
2.61256
2.56973
2.55563
2.57468
2.64515
2.66551
2.57372
2.59586
2.59653
2.61899
2.66111
2.60319
2.53423
2.61591
2.66775
2.65383
2.6838
2.64564
2.70391
2.65032
2.62964
2.61735
2.57081
2.63771
2.53432
2.66689
2.61565
2.63385
2.56292
2.62712
2.59669
2.63208
2.64184
2.65598
2.60074
2.58836
2.66771
2.61207
2.66917
2.59876
2.68455
2.65601
2.62313
2.58845
2.57498
2.59797
2.62183
2.58397
2.68809
2.60452
2.62917
2.60078
2.59947
2.6161
2.65238
2.65952
2.64859
2.6756
2.63776
2.57817
2.55514
2.54242
2.63774
2.60364
2.60234
2.60958
2.56235
2.6051
2.55432
2.59985
2.62579
2.65163
2.60464
2.60346
2.62516
2.57677
2.55203
2.58772
2.61083
2.61538
2.57061
2.55588
2.61121
2.57274
2.64796
2.66281
2.62208
2.58316
2.59059
2.60017
2.57905
2.66947
2.57467
2.60773
2.57474
2.64907
2.64805
2.62152
2.64701
2.656
2.59034
2.62717
2.65761
2.60774
2.51351
2.55401
2.6204
2.59027
2.57395
2.67175
2.6763
2.65788
2.63348
2.57851
2.54564
2.64786
2.68043
2.67081
2.62748
2.63142
2.62434
2.67957
2.62882
2.54943
2.63755
2.61609
2.62502
2.58764
2.63838
2.51596
2.65046
2.64219
2.57381
2.62507
2.60566
2.61616
2.64717
2.6459
2.58254
2.60264
2.65445
2.59964
2.58515
2.62174
2.57665
2.51257
2.65265
2.66547
2.6465
2.65249
2.60869
2.61174
2.5723
2.62346
2.61473
2.64687
2.57671
2.60134
2.56934
2.62152
2.65742
2.54876
2.5862
2.51901
2.64774
2.52456
2.56387
2.59796
2.5014
2.63899
2.64773
2.63899
2.63914
2.55403
2.57631
2.68395
2.64292
2.62705
2.63286
2.55353
2.64413
2.65157
2.5952
2.59488
2.65702
2.67346
2.63395
2.56807
2.58592
2.61757
2.65916
2.67998
2.53035
2.57437
2.65338
2.63733
2.65935
2.60116
2.53427
2.61072
2.65043
2.55648
2.54684
2.64501
2.54079
2.54573
2.64432
2.65548
2.6194
2.68568
2.58965
2.61411
2.66464
2.57251
2.62401
2.56374
2.6152
2.6179
2.58518
2.54559
2.61924
2.61961
2.55253
2.60081
2.56227
2.56742
2.4065
2.58898
2.6463
2.6597
2.56165
2.6282
2.55819
2.62857
2.65498
2.58505
2.66088
2.62406
2.50177
2.53896
2.62545
2.60961
2.64014
2.57074
2.57471
2.62472
2.66498
2.64804
2.59767
2.63584
2.5508
2.65718
2.61658
2.56421
2.54746
2.52131
2.50479
2.62855
2.59192
2.63506
2.62415
2.5111
2.51846
2.53207
2.53319
2.69038
2.67967
2.60022
2.67042
2.64135
2.59882
2.59789
2.604
2.60206
2.56506
2.62342
2.63077
2.58035
2.63571
2.68593
2.57742
2.65551
2.64038
2.58983
2.55819
2.59978
2.56222
2.58046
2.62796
2.61099
2.56657
2.65962
2.63902
2.61202
2.66572
2.15049
2.60577
2.54296
2.61116
2.66163
2.5931
2.56674
2.60208
2.53419
2.6296
2.60468
2.54242
2.58954
2.50987
2.5272
2.56621
2.53623
2.58503
2.53298
2.58351
2.61688
2.61857
2.60055
2.632
2.61546
2.61385
2.62751
2.54794
2.55944
2.64484
2.643
2.59402
2.6745
2.55117
2.64994
2.60168
2.55155
2.64545
2.655
2.59026
2.62885
2.65696
2.61508
2.52822
2.50365
2.5972
2.66023
2.60125
2.61877
2.58857
2.58346
2.54767
2.55288
2.53951
2.56929
2.59155
2.62554
2.65572
2.57366
2.58404
2.66941
2.59591
2.62256
2.65176
2.65672
2.56245
2.59399
2.64749
2.67884
2.64626
2.30825
2.61934
2.65725
2.61601
2.62615
2.68901
2.63547
2.66032
2.62898
2.56555
2.61052
2.67229
2.61027
2.61907
2.56279
2.63245
2.65216
2.67531
2.63673
2.52631
2.53547
2.59965
2.61791
2.63621
2.61406
2.62641
2.62484
2.61576
2.55682
2.60456
2.627
2.6553
2.60974
2.61918
2.57979
2.67702
2.56183
2.64944
2.55545
2.56685
2.61823
2.66629
2.57605
2.63228
2.67244
2.64069
2.6003
2.64165
2.62417
2.58078
2.52737
2.65069
2.5621
2.60092
2.33821
2.51175
2.55901
2.56511
2.62729
2.5352
2.56953
2.51325
2.58693
2.59622
2.65328
2.52917
2.58907
2.62881
2.53471
2.54943
2.64443
2.62389
2.60953
2.58909
2.56553
2.54472
2.65359
2.61995
2.56876
2.60529
2.57593
2.63702
2.60152
2.61189
2.66096
2.55278
2.60488
2.62284
2.66892
2.58682
2.59806
2.62019
2.61922
2.53648
2.59242
2.59994
2.64839
2.63041
2.59412
2.55239
2.58775
2.64101
2.59583
2.61325
2.57238
2.56974
2.59978
2.5319
2.64975
2.5659
2.5393
2.55803
2.63004
2.59969
2.64743
2.56827
2.64533
2.54416
2.60287
2.53142
2.57679
2.66616
2.58707
2.60684
2.62029
2.56029
2.54822
2.64559
2.63222
2.64729
2.60978
2.56225
2.62929
2.49375
2.66775
2.57437
2.65735
2.5217
2.63297
2.64797
2.59199
2.58715
2.52596
2.57118
2.60162
2.62375
2.61294
2.65006
2.66046
2.5617
2.65548
2.37313
2.63046
2.6419
2.64668
2.64308
2.59616
2.6534
2.5809
2.5411
2.53565
2.63198
2.666
2.51442
2.58797
2.63872
2.60756
2.61222
2.68797
2.63737
2.61429
2.63736
2.6058
2.65972
2.56902
2.5755
2.65686
2.6376
2.41775
2.58599
2.57124
2.65802
2.62591
2.63055
2.57443
2.53835
2.62202
2.63172
2.639
2.64874
2.65793
2.57558
2.59498
2.55946
2.64252
2.62398
2.6437
2.65578
2.65307
2.61451
2.6389
2.61145
2.63301
2.55313
2.59346
2.55549
2.62538
2.57512
2.63918
2.55775
2.65203
2.65135
2.59616
2.54033
2.69715
2.58974
2.63223
2.61455
2.61982
2.62375
2.54011
2.64425
2.61011
2.6376
2.53077
2.54186
2.59111
2.53967
2.54964
2.64887
2.62281
2.50726
2.64199
2.55463
2.59395
2.62573
2.52149
2.52508
2.56512
2.57329
2.6284
2.55667
2.59787
2.58265
2.3767
2.57181
2.63512
2.63768
2.66232
2.61904
2.63774
2.57844
2.52134
2.65107
2.59527
2.62956
2.64319
2.68365
2.62859
2.60021
2.53892
2.62171
2.66008
2.56634
2.63492
2.62182
2.63942
2.56327
2.62366
2.58763
2.52829
2.614
2.59034
2.56666
2.60607
2.62912
2.66618
2.65697
2.63554
2.65299
2.55246
2.56195
2.68057
2.66988
2.56972
2.62925
2.52911
2.55798
2.63377
2.58103
2.59258
2.6675
2.59652
2.53549
2.63244
2.54929
2.62273
2.60684
2.61583
2.63635
2.63044
2.62922
2.54727
2.63686
2.64286
2.56957
2.63657
2.59994
2.5858
2.65548
2.59052
2.63374
2.66793
2.63669
2.62849
2.65685
2.6173
2.5881
2.60948
2.56001
2.56851
2.49772
2.58498
2.63866
2.6114
2.65534
2.57781
2.64168
2.52549
2.66367
2.65884
2.64166
2.62733
2.59121
2.549
2.6099
2.57716
2.62137
2.62676
2.53981
2.5545
2.66205
2.64962
2.50199
2.55444
2.53433
2.67858
2.55638
2.65372
2.5447
2.59198
2.64513
2.64106
2.65684
2.62468
2.5181
2.58553
2.67055
2.55659
2.65635
2.62065
2.66121
2.53227
2.61165
2.57363
2.6147
2.60249
2.59035
2.5582
2.58647
2.61674
2.56672
2.61695
2.59671
2.65552
2.59577
2.60733
2.63042
2.64627
2.65624
2.62993
2.61518
2.53349
2.57228
2.64285
2.66356
2.62606
2.57789
2.62443
2.53923
2.58039
2.5908
2.56028
2.53435
2.63149
2.65463
2.52414
2.58005
2.65967
2.54041
2.63186
2.57526
2.59468
2.65446
2.63285
2.54772
2.65545
2.55569
2.64784
2.64195
2.53232
2.66869
2.56271
2.56214
2.58173
2.5215
2.55688
2.56961
2.53374
2.64057
2.66472
2.56032
2.56098
2.62538
2.62726
2.62945
2.68628
2.64418
2.58999
2.53236
2.55699
2.51882
2.27783
2.64599
2.62172
2.5785
2.61663
2.52946
2.53631
2.58769
2.63795
2.49638
2.61425
2.59876
2.61178
2.60625
2.56255
2.64161
2.59637
2.56912
2.67191
2.5269
2.58056
2.63318
2.65128
2.5768
2.64918
2.6348
2.54534
2.67332
2.70072
2.59826
2.61863
2.54846
2.59609
2.6409
2.65369
2.62167
2.61493
2.57319
2.53481
2.5766
2.66024
2.61995
2.66221
2.641
2.62534
2.67158
2.58334
2.65444
2.53951
2.66893
2.60449
2.56098
2.68126
2.55166
2.5814
2.67276
2.56788
2.66902
2.61647
2.61363
2.57673
2.62164
2.60053
2.59033
2.63964
2.57388
2.59112
2.66894
2.56843
2.63578
2.62461
2.64236
2.5592
2.63043
2.56613
2.60124
2.68464
2.56454
2.61884
2.6547
2.55817
2.59733
2.65224
2.55182
2.56909
2.54562
2.59288
2.53703
2.64754
2.57491
2.64878
2.61369
2.66453
2.55703
2.54363
2.65218
2.59764
2.56448
2.55763
2.56552
2.23958
2.50495
2.59864
2.60215
2.64325
2.56599
2.64688
2.65373
2.6711
2.63278
2.65016
2.53316
2.57565
2.61992
2.59129
2.5654
2.63861
2.60308
2.52705
2.54173
2.56277
2.31937
2.61767
2.64356
2.56238
2.60047
2.64647
2.63485
2.67475
2.55795
2.58655
2.58483
2.59282
2.64829
2.55529
2.60187
2.66029
2.56361
2.5707
2.63199
2.67639
2.66064
2.71051
2.66707
2.62647
2.64202
2.59209
2.59356
2.65941
2.5933
2.64438
2.57006
2.63264
2.49636
2.6482
2.6016
2.64775
2.58005
2.59401
2.60812
2.62525
2.51299
2.60877
2.58961
2.58521
2.55744
2.63737
2.6165
2.6541
2.61017
2.57054
2.56551
2.55671
2.57754
2.62772
2.57186
2.70149
2.6147
2.58647
2.62227
2.53416
2.57055
2.64404
2.56034
2.49317
2.34142
2.37702
2.48783
2.55751
2.65455
2.63833
2.59938
2.63501
2.64266
2.59466
2.60464
2.52804
2.64965
2.13423
2.64236
2.52561
2.52787
2.61597
2.53968
2.60349
2.62229
2.64596
2.54727
2.59391
2.57331
2.60212
2.52462
2.59655
2.57094
2.61929
2.61478
2.5544
2.61873
2.58517
2.59238
2.35357
2.56456
2.5417
2.5488
2.52823
2.60717
2.57768
2.54982
2.58611
2.65323
2.63303
2.65916
2.17232
2.57615
2.6564
2.57314
2.63862
2.51509
2.65659
2.62639
2.66592
2.52921
2.61236
2.66231
2.65765
2.61446
2.65196
2.60859
2.59736
2.59423
2.52562
2.59339
2.57746
2.60128
2.61098
2.53694
2.60237
2.62479
2.54163
2.51388
2.55214
2.60728
2.61124
2.56408
2.61623
2.60993
2.62621
2.57643
2.63337
2.58231
2.6926
2.24766
2.6025
2.60735
2.581
2.64619
2.63021
2.57696
2.59767
2.65567
2.5239
2.6328
2.62956
2.42236
2.54866
2.6506
2.64283
2.57881
2.61312
2.55439
2.64119
2.65758
2.58426
2.64278
2.63905
2.65622
2.5684
2.56049
2.57948
2.62348
2.57371
2.54327
2.60658
2.53515
2.54254
2.59461
2.60348
2.62138
2.58272
2.64025
2.63001
2.61361
2.63157
2.59796
2.57341
2.54424
2.60961
2.57582
2.55056
2.60837
2.6459
2.60787
2.5957
2.51937
2.62006
2.54238
2.55043
2.58547
2.61196
2.55731
2.60388
2.55163
2.51161
2.4953
2.63265
2.41061
2.59739
2.63528
2.59556
2.56338
2.61394
2.70655
2.53029
2.53994
2.59639
2.63152
2.61196
2.60767
2.65755
2.53953
2.65329
2.60205
2.65508
2.66683
2.11608
2.60568
2.63654
2.63919
2.58133
2.58092
2.27042
2.64267
2.63461
2.54242
2.55358
2.58802
2.62112
2.59806
2.5287
2.62345
2.62809
2.64447
2.59085
2.63511
2.54819
2.5318
2.54309
2.61728
2.59589
2.5857
2.64974
2.63983
2.33186
2.64277
2.64303
2.63864
2.56453
2.63892
2.54663
2.53834
2.54199
2.58203
2.50902
2.45754
2.58971
2.58468
2.62244
2.57516
2.48455
2.56805
2.63914
2.61636
2.54662
2.5708
2.64119
2.65183
2.58834
2.54172
2.61334
2.63655
2.61124
2.65475
2.62334
2.59312
2.52224
2.57558
2.55116
2.62812
2.62135
2.55578
2.55292
2.66528
2.55411
2.60297
2.54378
2.57135
2.48724
2.6044
2.61001
2.61098
2.56268
2.58226
2.64855
2.54637
2.61613
2.55827
2.60994
2.49749
2.61479
2.60781
2.49886
2.56678
2.60417
2.60806
2.61121
2.24247
2.63409
2.5578
2.59698
2.53325
2.57728
2.571
2.2619
2.63984
2.54159
2.10481
2.52606
2.63784
2.63369
2.61006
2.57014
2.26031
2.60288
2.54756
2.63029
2.65488
2.58079
2.5896
2.62637
2.52173
2.54376
2.5221
2.61339
2.60141
2.55805
2.64276
2.60592
2.63076
2.59718
2.51667
2.66055
2.61642
2.66743
2.63053
2.55385
2.59841
2.63373
2.48605
2.61261
2.56358
2.61104
2.72308
2.61848
2.59508
2.53341
2.58607
2.5832
2.61255
2.57961
2.50906
2.5706
2.5794
2.62446
2.52546
2.63197
2.53922
2.61217
2.55155
2.54466
2.38479
2.63786
2.63381
2.5737
2.65376
2.59577
2.55642
2.45331
2.3768
2.61607
2.46984
2.59495
2.5801
2.64636
2.59317
2.6469
2.50216
2.12257
2.56223
2.64933
2.14871
2.61119
2.6626
2.59645
2.64506
2.49032
2.57234
2.59162
2.65627
2.25374
2.66443
2.5872
2.46993
2.63851
2.56606
2.646
2.12236
2.55072
2.60964
2.64357
2.65286
2.57685
2.62175
2.59539
2.59178
2.60777
2.589
2.5884
2.57991
2.41053
2.61934
2.57682
2.5712
2.65406
2.66572
2.6139
2.49402
2.64916
2.63291
2.54652
2.54997
2.53261
2.61985
2.65618
2.63433
2.65467
2.61159
2.61648
2.51895
2.63218
2.60271
2.61111
2.55223
2.54105
2.40257
2.58315
2.68657
2.61627
2.58545
2.5544
2.56397
2.51455
2.54774
2.63532
2.59493
2.1312
2.33867
2.51482
2.52959
2.62176
2.56843
2.58574
2.5859
2.47269
2.59179
2.64542
2.51195
2.67479
2.46352
2.64443
2.53864
2.64259
2.62933
2.61554
2.65047
2.57949
2.50818
2.50816
2.58698
2.62539
2.59204
2.58449
2.49264
2.62206
2.53502
2.59289
2.57583
2.63923
2.57352
2.60082
2.16694
2.64872
2.65895
2.5488
2.60483
2.56044
2.59129
2.64653
2.60415
2.62248
2.65387
2.61064
2.5371
2.53489
2.69213
2.45773
2.54191
2.42254
2.61596
2.65735
2.59732
2.64968
2.69508
2.65872
2.62846
2.57559
2.50367
2.58681
2.28514
2.56105
2.62076
2.58008
2.52875
2.59033
2.60851
2.67553
2.43505
2.56562
2.59795
2.42645
2.64895
2.46039
2.48518
2.51469
2.64716
2.58171
2.52523
2.58157
2.45053
2.61287
2.25543
2.27528
2.5895
2.48579
2.52141
2.6034
2.5785
2.57347
2.58777
2.58294
2.51755
2.601
2.47925
2.53809
2.56385
2.59273
2.54949
2.43006
2.64323
2.60032
2.6002
2.52675
2.56535
2.51132
2.59982
2.58653
2.64266
2.60058
2.62143
2.51427
2.6087
2.64364
2.62993
2.21595
2.27114
2.44115
2.64179
2.48524
2.6006
2.19804
2.61051
2.62203
2.57611
2.58431
2.58634
2.58001
2.57646
2.65806
2.60337
2.56136
2.69008
2.34911
2.56398
2.42397
2.61376
2.58178
2.53978
2.60643
2.52778
2.31798
2.49579
2.35726
2.52947
2.45154
2.64196
2.47554
2.5542
2.53058
2.63708
2.54243
2.40548
2.66551
2.59985
2.58408
2.53801
2.60372
2.49234
2.59187
2.60937
2.56159
2.51689
2.52647
2.5882
2.56947
2.2778
2.51984
2.53988
2.5785
2.5023
2.62992
2.59705
2.55569
2.58047
2.62995
2.47016
2.56858
2.57471
2.11534
2.66796
2.3099
2.57455
2.63562
2.64295
2.35708
2.64283
2.65935
2.54616
2.57551
2.57082
2.56567
2.2549
2.5736
2.527
2.62655
2.66855
2.49508
2.65479
2.51854
2.51478
2.34275
2.21642
2.28028
2.6591
2.43867
2.63317
2.53498
2.48351
2.53006
2.63769
2.42441
2.11383
2.51285
2.62764
2.62522
2.61461
2.14091
2.60485
2.63159
2.62175
2.66599
2.56719
2.43053
2.63828
2.47715
2.59308
2.5362
2.52101
2.54468
2.60301
2.53955
2.46957
2.37757
2.49874
2.62076
2.56357
2.5392
2.44343
2.50885
2.50784
2.56775
2.62392
2.49566
2.36437
2.621
2.62884
2.40254
2.61915
2.53044
2.67517
2.27774
2.63802
2.52318
2.62004
2.61088
2.53189
2.44679
2.70078
2.56319
2.59307
2.53402
2.4226
2.61579
2.64669
2.35511
2.38188
2.53309
2.35806
2.42982
2.59261
2.27912
2.65341
2.31136
2.51081
2.55889
2.4467
2.54504
2.52877
2.35251
2.56959
2.47972
2.60597
2.48722
2.63307
2.46338
2.55089
2.13086
2.56391
2.26208
2.32364
2.58251
2.51712
2.49027
2.66418
2.59953
2.58104
2.62792
2.30396
2.5705
2.56522
2.59197
2.59293
2.48709
2.637
2.61482
2.51893
2.5244
2.62247
2.53719
2.56
2.40055
2.64287
2.69363
2.64805
2.55983
2.45121
2.57389
2.52194
2.30873
2.40531
2.61047
2.53041
2.51593
2.52948
2.56347
2.57849
2.30944
2.55404
2.53627
2.3309
2.67051
2.5453
2.48234
2.64649
2.54916
2.57586
2.60953
2.38703
2.53397
2.33058
2.39001
2.65855
2.60544
2.23482
2.64577
2.45482
2.58345
2.59654
2.55313
2.62479
2.4938
2.58046
2.54082
2.55013
2.54075
2.62204
2.4355
2.35309
2.46014
2.26673
2.5379
2.46496
2.36684
2.6412
2.57691
2.27062
2.29291
2.51948
2.3627
2.49046
2.44395
2.49995
2.6304
2.38697
2.62035
2.52524
2.51445
2.39724
2.53621
2.40568
2.18817
2.38104
2.44213
2.34715
2.58277
2.47844
2.55255
2.38692
2.62001
2.51441
2.53117
2.40054
2.52976
2.4326
2.47518
2.59124
2.55009
2.25911
2.45859
2.46635
2.67107
2.63575
2.60041
2.65617
2.60942
2.60881
2.61875
2.5483
2.62651
2.67368
2.51468
2.62713
2.59869
2.56133
2.14839
2.56266
2.56187
2.5742
2.4421
2.64219
2.24047
2.26968
2.21779
2.6156
2.41876
2.4849
2.62118
2.32607
2.66093
2.3551
2.64054
2.67067
2.6732
2.67122
2.18018
2.55884
2.67802
2.46667
2.31613
2.45623
2.3063
2.36402
2.5269
2.35451
2.52077
2.56176
2.38802
2.45935
2.4961
2.48198
2.64664
2.58888
2.43675
2.47933
2.45942
2.58045
2.58931
2.65417
2.36612
2.15641
2.37307
2.45882
2.3891
2.36457
2.66633
2.63445
2.42251
2.58787
2.23484
2.21045
2.52418
2.2555
2.58508
2.58604
2.47833
2.44038
2.59783
2.64346
2.5461
2.58225
2.46526
2.20861
2.23323
2.57029
2.38735
2.61431
2.39339
2.50891
2.52025
2.50772
2.52594
2.52415
2.6637
2.19242
2.43347
2.59491
2.53334
2.52629
2.6766
2.54543
2.52979
2.5176
2.43715
2.45007
2.28862
2.26808
2.45334
2.26952
2.3697
2.45448
2.39576
2.24636
2.52651
2.33555
2.58313
2.26409
2.25676
2.36031
2.426
2.51022
2.39881
2.50942
2.34409
2.39374
2.40602
2.61719
2.47709
2.61997
2.57169
2.49277
2.45058
2.48123
2.58282
2.31594
2.47087
2.51871
2.59387
2.46981
2.53207
2.2796
2.63125
2.14393
2.17105
2.14515
2.62262
2.60814
2.516
2.5278
2.56897
2.31171
2.63807
2.51378
2.46136
2.38957
2.48957
2.64744
2.25464
2.58057
2.59718
2.16379
2.27677
2.41022
2.38715
2.20708
2.46353
2.40186
2.55384
2.36648
2.59425
2.49162
2.31192
2.45001
2.57111
2.44295
2.51619
2.41962
2.50923
2.21726
2.40644
2.42388
2.46255
2.18446
2.36743
2.16915
2.20315
2.60277
2.53667
2.28177
2.301
2.51683
2.41016
2.38255
2.5929
2.47556
2.23974
2.35346
2.39862
2.27129
2.50582
2.55601
2.26181
2.18045
2.5186
2.25616
2.47449
2.64457
2.17022
2.604
2.60807
2.57087
2.17092
2.35244
2.20818
2.48643
2.64038
2.58339
2.39969
2.11713
2.41637
2.38296
2.53243
2.48777
2.40461
2.301
2.31794
2.22508
2.34829
2.30172
2.31893
2.37015
2.38962
2.45109
2.16538
2.54144
2.33261
2.27411
2.50226
2.4187
2.21852
2.55565
2.47801
2.61914
2.15265
2.61412
2.56176
2.53465
2.36862
2.16874
2.53457
2.55006
2.23751
2.46315
2.25768
2.51925
2.35891
2.23287
2.22421
2.54972
2.31568
2.2912
2.53638
2.47973
2.43869
2.48884
2.18839
2.26729
2.34336
2.48956
2.44717
2.62669
2.33388
2.63865
2.13446
2.24065
2.46994
2.32273
2.13811
2.45549
2.48574
2.22342
2.14787
2.33439
2.4709
2.58543
2.42664
2.18476
2.60393
2.36496
2.6104
2.20182
2.30083
2.32356
2.35437
2.35741
2.34164
2.29623
2.64494
2.60692
2.51845
2.53797
2.16774
2.29297
2.42427
2.54984
2.22006
2.2882
2.32218
2.21887
2.56381
2.54486
2.21602
2.57701
2.63919
2.28401
2.52904
2.42371
2.17387
2.60803
2.23828
2.57455
2.5839
2.5455
2.63025
2.44356
2.38874
2.58864
2.53925
2.40609
2.25407
2.61142
2.59973
2.44045
2.56204
2.17262
2.53054
2.59329
2.4813
2.18653
2.29631
2.6365
2.34542
2.21643
2.57394
2.17668
2.13958
2.48872
2.51619
2.46035
2.46107
2.29553
2.57166
2.41664
2.37827
2.57474
2.1283
2.33319
2.3693
2.27912
2.19249
2.52964
2.39851
2.52663
2.23937
2.15211
2.26665
2.50268
2.24556
2.55134
2.52827
2.55136
2.17669
2.45565
2.27701
2.19282
2.41432
2.28262
2.31597
2.28288
2.22421
2.18559
2.2829
2.51258
2.64943
2.53458
2.49619
2.26914
2.48942
2.23647
2.2709
2.26154
2.54043
2.50572
2.54456
2.56246
2.51778
2.49556
2.2478
2.60526
2.20355
2.2692
2.58699
2.09579
2.29573
2.61749
2.2088
2.29429
2.54907
2.40448
2.35249
2.26922
2.45529
2.4987
2.30593
2.58016
2.50644
2.46501
2.20439
2.55364
2.30473
2.33519
2.47841
2.24797
2.26764
2.49989
2.3514
2.31411
2.3456
2.14284
2.39869
2.50632
2.17744
2.47261
2.6198
2.31088
2.36495
2.4179
2.42331
2.59431
2.16792
2.60369
2.61797
2.32512
2.24427
2.14539
2.40589
2.1918
2.19446
2.60577
2.40744
2.30703
2.15674
2.3204
2.2265
2.28991
2.5633
2.47855
2.2662
2.35793
2.31961
2.26958
2.23223
2.28373
2.48796
2.19463
2.26227
2.16803
2.53876
2.20778
2.52646
2.29978
2.44556
2.25401
2.5043
2.20045
2.26173
2.22573
2.18679
2.54003
2.57726
2.19244
2.56674
2.20066
2.48939
2.30415
2.63734
2.49187
2.39626
2.29784
2.51251
2.29595
2.27065
2.25663
2.38253
2.39994
2.32388
2.3512
2.2199
2.35137
2.44203
2.28392
2.40748
2.11559
2.6292
2.33321
2.38704
2.18907
2.28318
2.22796
2.08233
2.37814
2.61781
2.37759
2.66021
2.62471
2.28608
2.50647
2.27861
2.09105
2.56864
2.57678
2.51291
2.28472
2.24014
2.1255
2.23643
2.5736
2.34838
2.20269
2.47181
2.38573
2.34639
2.2756
2.22969
2.51201
2.55275
2.2432
2.18639
2.4861
2.20257
2.59788
2.49307
2.60618
2.24192
2.19775
2.51617
2.32423
2.24266
2.33819
2.2099
2.27074
2.40792
2.25861
2.22465
2.58613
2.47285
2.1699
2.33437
2.44766
2.31788
2.41927
2.52206
2.34126
2.43932
2.25019
2.4753
2.16297
2.13531
2.16362
2.38505
2.42374
2.35329
2.26262
2.44094
2.2863
2.49886
2.34067
2.58014
2.26496
2.60894
2.28818
2.50721
2.17599
2.27664
2.6131
2.33811
2.16251
2.24058
2.3273
2.53798
2.49654
2.34932
2.51185
2.49485
2.26715
2.11971
2.0822
2.37522
2.21822
2.30362
2.25054
2.55557
2.1899
2.26648
2.42203
2.58586
2.47328
2.2445
2.32893
2.41056
2.36721
2.41108
2.34327
2.25807
2.16798
2.32031
2.29513
2.4605
2.21266
2.51805
2.19002
2.23278
2.55385
2.46287
2.20572
2.28004
2.56246
2.30926
2.39947
2.40502
2.21614
2.22898
2.6483
2.6339
2.26058
2.32375
2.61645
2.16789
2.50964
2.20903
2.17439
2.47195
2.44212
2.69813
2.42096
2.23676
2.46202
2.3865
2.23138
2.60613
2.26849
2.18322
2.23154
2.29625
2.18319
2.23884
2.21311
2.32729
2.15738
2.35359
2.45246
2.43264
2.51309
2.26954
2.17975
2.51808
2.34952
2.27131
2.2332
2.29841
2.41519
2.34167
2.32061
2.22827
2.51944
2.43642
2.44503
2.39529
2.12756
2.22918
2.33074
2.26504
2.63226
2.24816
2.22444
2.35338
2.192
2.18559
2.25698
2.11535
2.29305
2.24144
2.49743
2.31797
2.19616
2.63751
2.40278
2.23396
2.17298
2.24423
2.26304
2.1367
2.44773
2.18073
2.12905
2.11946
2.21452
2.21395
2.29824
2.10048
2.347
2.22003
2.55676
2.58117
2.45586
2.2835
2.18311
2.24874
2.19746
2.3384
2.12462
2.19825
2.56099
2.58739
2.52742
2.51335
2.30866
2.26955
2.13105
2.39344
2.28671
2.15746
2.60407
2.58672
2.23581
2.33851
2.15745
2.55929
2.21167
2.18999
2.28376
2.32269
2.33562
2.33077
2.19087
2.25205