/*--------------------------------*- C++ -*----------------------------------*\
| =========                 |                                                 |
| \\      /  F ield         | OpenFOAM: The Open Source CFD Toolbox           |
|  \\    /   O peration     | Version:  2212                                  |
|   \\  /    A nd           | Website:  www.openfoam.com                      |
|    \\/     M anipulation  |                                                 |
\*---------------------------------------------------------------------------*/
FoamFile
{
    version     2.0;
    format      ascii;
    arch        "LSB;label=32;scalar=64";
    class       volScalarField;
    location    "0.018";
    object      k;
}
// * * * * * * * * * * * * * * * * * * * * * * * * * * * * * * * * * * * * * //

dimensions      [0 2 -2 0 0 0 0];

internalField   nonuniform List<scalar> 
31639
(
0.04687
0.0462041
0.0470713
0.0484269
0.0460846
0.0455676
0.0456413
0.0473609
0.0468051
0.047968
0.0480185
0.0477019
0.0466682
0.0481002
0.045624
0.0449493
0.0470069
0.0455271
0.0443464
0.0462529
0.0423892
0.0477916
0.0483057
0.0447043
0.0445443
0.0466178
0.0463541
0.040615
0.0455917
0.0482595
0.0479165
0.0452157
0.0481275
0.0444971
0.0431983
0.0482409
0.04138
0.0486962
0.0480878
0.0409124
0.0433512
0.0426885
0.0477746
0.0478734
0.048201
0.0479344
0.0455842
0.0454918
0.0468458
0.048312
0.0477274
0.0409751
0.0486548
0.0421737
0.044995
0.0468095
0.0424168
0.0465006
0.0462314
0.0423159
0.0462321
0.0474207
0.0444473
0.0459192
0.0467203
0.0482196
0.0461513
0.046533
0.0437849
0.0482136
0.0484212
0.0441812
0.0474379
0.0463131
0.0486124
0.0430758
0.0480243
0.045709
0.0459027
0.0477601
0.0442715
0.0408688
0.0482046
0.0469808
0.0469125
0.0479328
0.0483869
0.0481585
0.0428479
0.0487402
0.0467037
0.0458784
0.0425262
0.0459985
0.0435962
0.0455217
0.045934
0.0463618
0.0466719
0.0425767
0.0486009
0.047861
0.0457942
0.0419653
0.0423702
0.0480427
0.0418904
0.0415439
0.0440366
0.042234
0.0468497
0.0427534
0.04597
0.0450359
0.046436
0.0420117
0.045788
0.0456867
0.0482726
0.0461138
0.047188
0.0477042
0.0472752
0.0466266
0.0463318
0.0482414
0.0462825
0.044111
0.0438693
0.0475916
0.0477562
0.047192
0.0473452
0.0451989
0.0471585
0.0465608
0.0423782
0.0419547
0.0475649
0.0463985
0.0462487
0.0479362
0.0480146
0.0415082
0.0414904
0.0482862
0.0477294
0.0427452
0.0425515
0.0480661
0.044066
0.0465364
0.0443808
0.0471457
0.042793
0.0482764
0.0459216
0.0439457
0.0427643
0.0446261
0.0479646
0.0430754
0.044014
0.0423017
0.0429778
0.0455583
0.0430182
0.0482401
0.0475959
0.0416871
0.0438349
0.0453677
0.0432116
0.0466804
0.0484912
0.0478704
0.0467604
0.0483403
0.0468217
0.0463381
0.0459537
0.0451054
0.045035
0.0412716
0.0468121
0.0484489
0.0448749
0.0482317
0.0429809
0.0419471
0.0486549
0.0475118
0.0465643
0.0460337
0.046199
0.0450158
0.0452866
0.0475094
0.0419179
0.0452668
0.0479522
0.0486336
0.046415
0.0465788
0.0465091
0.0463457
0.0456186
0.0456561
0.0477281
0.0413239
0.0460709
0.0455487
0.0469462
0.0476476
0.0470018
0.0479687
0.0433459
0.0448866
0.0479469
0.0479506
0.0473361
0.0457611
0.0420218
0.046702
0.0421806
0.0464408
0.0479001
0.0445602
0.0428629
0.0471773
0.046821
0.0485602
0.0429515
0.0423969
0.0465907
0.0468923
0.0422698
0.0475828
0.0443735
0.0416994
0.0458246
0.0463644
0.0456929
0.0445858
0.0447173
0.0469558
0.0455201
0.0451346
0.0422508
0.0462329
0.0449172
0.0433847
0.0447715
0.0482945
0.0481141
0.0453157
0.0432197
0.0473961
0.047031
0.0458081
0.0484151
0.0478712
0.0473365
0.0480914
0.0457597
0.0461057
0.0416968
0.0444399
0.0472493
0.0452494
0.046912
0.04478
0.0463588
0.0481303
0.0484136
0.0464948
0.0422617
0.0455253
0.0438514
0.0477685
0.0456595
0.0480598
0.0484148
0.0450842
0.0427182
0.0442506
0.0429563
0.0420772
0.0475299
0.0433237
0.0484614
0.0455296
0.0446321
0.0434706
0.0485925
0.0450575
0.0449523
0.0476293
0.0465133
0.0444937
0.0461591
0.0427998
0.0462202
0.0456899
0.04312
0.0453741
0.0455949
0.0404082
0.041841
0.0476554
0.0484081
0.0474991
0.0423331
0.0435167
0.0474948
0.0435211
0.0435925
0.0482362
0.0481744
0.045417
0.0478692
0.0483785
0.0429541
0.0486542
0.0417985
0.0423651
0.0477924
0.0473701
0.0476648
0.0481843
0.047006
0.0432401
0.0454197
0.0457047
0.0480618
0.0485924
0.0486824
0.0458375
0.0447263
0.0469829
0.0476058
0.0465472
0.0448542
0.045658
0.0456321
0.0453369
0.0475552
0.0449587
0.0429981
0.0474011
0.0489845
0.0452192
0.0484136
0.0475293
0.0459813
0.0429804
0.0458006
0.0459957
0.0423112
0.0482208
0.0430595
0.046506
0.0481631
0.0416097
0.0463176
0.0459509
0.0425064
0.0462779
0.04343
0.045402
0.0484355
0.0471744
0.0417784
0.0467505
0.0430891
0.0467661
0.0477822
0.0480991
0.04826
0.043286
0.0469184
0.0421411
0.0455606
0.0417871
0.0480082
0.0475416
0.0481082
0.0478613
0.0440994
0.0481213
0.0463676
0.0470388
0.0459065
0.0437802
0.0457904
0.0465557
0.0465234
0.0468209
0.0464101
0.0472023
0.045467
0.0429823
0.0462004
0.0476862
0.0472843
0.0415783
0.0481537
0.0476676
0.0460468
0.046574
0.0470413
0.0462428
0.0477653
0.0425791
0.0467085
0.0479303
0.0418151
0.0464613
0.0470044
0.0434942
0.041984
0.0425407
0.0454986
0.042716
0.0463193
0.0461528
0.045129
0.0485283
0.0428672
0.0475049
0.0481874
0.0461415
0.0468277
0.045402
0.0480703
0.0463497
0.0465244
0.048192
0.0462465
0.0424134
0.0461897
0.0484623
0.0479893
0.0471194
0.0485267
0.04517
0.0467096
0.0473287
0.0481966
0.0485465
0.0428645
0.0460616
0.040966
0.0458533
0.0457034
0.0429801
0.0423775
0.0452195
0.046633
0.047457
0.0426239
0.0469285
0.0449115
0.0459086
0.0472278
0.0381254
0.0456704
0.0421423
0.0453438
0.0477611
0.0489164
0.0471985
0.0457689
0.0415753
0.0470051
0.0461085
0.0475655
0.0423259
0.0428471
0.0459062
0.04275
0.0432073
0.0465843
0.0423707
0.0450948
0.0427312
0.0470355
0.0424903
0.0482917
0.0476587
0.0478427
0.0477958
0.0446013
0.0480573
0.0482324
0.0465569
0.0475234
0.0465503
0.047704
0.0487646
0.0450483
0.0478325
0.0483561
0.0459461
0.0437603
0.0482958
0.0463543
0.0410927
0.042104
0.0464738
0.0483197
0.0481313
0.045416
0.0484968
0.0489021
0.0475114
0.0467387
0.0457519
0.0461816
0.0432879
0.0457985
0.0468627
0.0484003
0.044355
0.0440005
0.0434384
0.044712
0.0458182
0.0410232
0.0470101
0.0447008
0.0465537
0.0455186
0.0471979
0.0459221
0.0429929
0.0468901
0.0477333
0.0435148
0.0471645
0.0489256
0.0464193
0.0457115
0.041242
0.0438213
0.0460539
0.0464541
0.0431078
0.0426678
0.0465328
0.0442714
0.0470242
0.0444478
0.0457792
0.0479874
0.0461169
0.0421388
0.0449878
0.0465043
0.0480213
0.0424438
0.040838
0.0478232
0.0422613
0.0468146
0.0484563
0.0424267
0.0463103
0.0484035
0.0463312
0.0426463
0.0481789
0.0463109
0.0425997
0.0479358
0.0468214
0.0454235
0.0477352
0.0412906
0.044195
0.0460506
0.0451882
0.0450461
0.04681
0.0484602
0.0479182
0.0472841
0.0482823
0.0476654
0.0466142
0.0445144
0.0471693
0.0482298
0.0495717
0.0439931
0.0464955
0.0463652
0.049426
0.0432277
0.0415035
0.0482226
0.0434921
0.0484589
0.0452684
0.0424296
0.045602
0.0478425
0.0462931
0.0468904
0.0418823
0.0471754
0.0460255
0.0419726
0.0481152
0.0476185
0.0401011
0.0431619
0.0436649
0.0456973
0.0464251
0.046402
0.0460453
0.0463228
0.0475886
0.0464196
0.046153
0.0433478
0.0481574
0.0424917
0.0463579
0.0458115
0.0455277
0.0489048
0.0462508
0.0438697
0.041796
0.0433952
0.0457741
0.0479287
0.0429236
0.0482408
0.0461197
0.0475443
0.0428158
0.0453244
0.0475619
0.0483692
0.0478216
0.0472195
0.0466904
0.0461806
0.0486441
0.0484726
0.0481885
0.0445085
0.047406
0.0427086
0.0482167
0.0480075
0.0458207
0.0431892
0.0453828
0.0410802
0.0477525
0.0463899
0.0486305
0.0462221
0.0451635
0.0426318
0.0479066
0.0419276
0.0412054
0.0439259
0.0443999
0.0427975
0.0462389
0.0425828
0.046545
0.0466595
0.0408467
0.0483337
0.0430026
0.0440296
0.0453134
0.0446105
0.0471509
0.0479358
0.048275
0.0481961
0.0449043
0.0460164
0.0451954
0.0453757
0.0413881
0.0352847
0.0481428
0.0459398
0.0471183
0.0478968
0.0425361
0.0480381
0.0485225
0.0474419
0.0474403
0.0474548
0.046816
0.0481765
0.0483813
0.0464388
0.0479591
0.0475901
0.0433821
0.047904
0.045088
0.0477919
0.045072
0.046014
0.0442276
0.0487228
0.0456449
0.0464749
0.0462111
0.0433903
0.0480982
0.0462657
0.0448983
0.0427608
0.0472347
0.0414115
0.0474272
0.0474705
0.0453103
0.0484446
0.0484131
0.0483929
0.0425757
0.0460777
0.0463011
0.0467286
0.0431733
0.0471218
0.0471036
0.0449482
0.0462458
0.0445
0.0468188
0.0454604
0.0452763
0.0415273
0.0474683
0.0466878
0.0477863
0.0445485
0.0461165
0.0466429
0.0458789
0.0447337
0.0465232
0.0475364
0.0458801
0.0414259
0.0417558
0.0455224
0.0412807
0.0425734
0.0469968
0.0468866
0.0474428
0.0413655
0.0456069
0.0479989
0.0427918
0.0416007
0.0461234
0.0433474
0.0475524
0.0439088
0.0483522
0.0446358
0.0447198
0.0481328
0.0416328
0.0454989
0.0455577
0.0476789
0.0481727
0.0480148
0.0435345
0.047317
0.0482282
0.0452011
0.0483057
0.0474814
0.0470923
0.0484233
0.0462833
0.0490898
0.0484673
0.0488377
0.0470213
0.0453941
0.0464037
0.0460564
0.0427746
0.0451499
0.0471692
0.0476988
0.0485898
0.0457997
0.0487541
0.0476793
0.0448194
0.0475632
0.0479687
0.0473827
0.0473313
0.0427486
0.0448086
0.0484303
0.0414319
0.0458998
0.0458366
0.0455074
0.0455919
0.0479559
0.0467132
0.0476719
0.0458558
0.0469183
0.0460129
0.0479416
0.0465321
0.0454049
0.0429649
0.0478762
0.0434409
0.0453764
0.0456648
0.0452601
0.04616
0.0486547
0.0430767
0.048609
0.0431401
0.0465747
0.0457451
0.0458602
0.0459396
0.048105
0.0427593
0.0475856
0.0479512
0.048272
0.0467573
0.0468538
0.0413761
0.0484199
0.0479023
0.0473298
0.0474651
0.0478461
0.0461024
0.0466677
0.0465907
0.0428782
0.0457624
0.0482996
0.0419021
0.0441173
0.0494289
0.047957
0.0443825
0.0448551
0.0470638
0.0444402
0.0455903
0.0432079
0.0475406
0.0483958
0.0413725
0.0462602
0.0478239
0.0473708
0.0483504
0.0453653
0.0477792
0.043481
0.0432959
0.0486182
0.0480688
0.0456936
0.0427764
0.0467794
0.0481088
0.0442336
0.0481684
0.0473614
0.0475986
0.046736
0.0475549
0.0466995
0.0464735
0.0455319
0.0445162
0.041851
0.0462342
0.0465308
0.0428549
0.0478682
0.0418191
0.0453355
0.0452728
0.0429944
0.0458714
0.044734
0.0470146
0.0463378
0.0475905
0.0428565
0.04314
0.0453042
0.0425285
0.045094
0.0478602
0.0456905
0.0481491
0.0462466
0.0462301
0.0483248
0.045264
0.046293
0.045926
0.045968
0.0467316
0.043975
0.0465782
0.04765
0.0479915
0.0487932
0.0429309
0.042018
0.0460065
0.0479772
0.0432433
0.0454649
0.0470533
0.0462218
0.0491333
0.0453138
0.0454602
0.0473521
0.0424717
0.0479674
0.0483383
0.0431085
0.0444284
0.0459202
0.0450442
0.0484555
0.0482624
0.046878
0.0436106
0.0479584
0.0423828
0.0458784
0.0480338
0.0450429
0.0489146
0.0421315
0.0461376
0.046869
0.0462658
0.0425008
0.0419298
0.0476337
0.0482688
0.0450702
0.0479469
0.0471679
0.0458128
0.0429517
0.0439765
0.047085
0.0457779
0.0462047
0.0484693
0.0478944
0.0490567
0.0480386
0.0464064
0.0466503
0.0473766
0.0432438
0.0476882
0.0472044
0.0465842
0.0470463
0.0485417
0.0457622
0.0479764
0.0459572
0.0415211
0.048522
0.0450072
0.0483965
0.0451379
0.0476671
0.043409
0.0471004
0.0493009
0.0462606
0.0464652
0.0427911
0.0475639
0.0485089
0.0468039
0.0424533
0.0498068
0.045824
0.0467214
0.0481302
0.0478989
0.0475547
0.0459118
0.0460241
0.0489776
0.0433628
0.0438239
0.0434302
0.0441764
0.0469223
0.0421713
0.0484215
0.0479266
0.0486856
0.0457449
0.0454798
0.0464823
0.0482926
0.0465223
0.0466431
0.048246
0.048473
0.0463527
0.0476939
0.0461554
0.0458058
0.0470446
0.0451436
0.0486156
0.0486989
0.0481925
0.0483647
0.0480578
0.0445981
0.0491607
0.0464321
0.0467199
0.0456691
0.0468802
0.048725
0.046372
0.0475168
0.0448188
0.0462157
0.0469597
0.0438526
0.0430631
0.0459372
0.0459649
0.0487835
0.0450428
0.0418678
0.0465345
0.0477978
0.044421
0.0450635
0.0463868
0.0484623
0.0483267
0.0453228
0.0447291
0.0462735
0.0476343
0.0452493
0.046485
0.0464524
0.0425653
0.0456012
0.0453104
0.0471915
0.048193
0.0465217
0.0483582
0.0473018
0.0464288
0.0468908
0.0426024
0.0433199
0.0425753
0.048367
0.0466945
0.0486684
0.0499455
0.0474491
0.0423294
0.0475136
0.0454877
0.047137
0.0469138
0.0473218
0.0422921
0.0485893
0.0430112
0.0462574
0.0463284
0.0460261
0.0489888
0.0462611
0.0475423
0.042793
0.0461525
0.0465234
0.0478705
0.0441307
0.0442287
0.0470912
0.0478071
0.0467017
0.0470089
0.0485761
0.0427909
0.0460041
0.0453893
0.0443938
0.0474011
0.0485945
0.0485347
0.0479023
0.0485083
0.0434567
0.043314
0.0431671
0.0490358
0.0430037
0.0471582
0.0462562
0.0431007
0.045195
0.0478131
0.0482123
0.0444962
0.04527
0.0455759
0.0465019
0.0484583
0.0466407
0.0429006
0.0463669
0.0487126
0.0482473
0.048866
0.0482364
0.0496933
0.0484001
0.0476067
0.0439813
0.0427613
0.0466784
0.0441585
0.0485238
0.0433215
0.046909
0.0454804
0.0480092
0.0437368
0.0472415
0.0477916
0.0472009
0.045529
0.0432291
0.0480362
0.0453521
0.0487121
0.0462298
0.0495383
0.0484674
0.0465957
0.0427465
0.0431416
0.0458511
0.0467338
0.0450709
0.0491733
0.0436072
0.047992
0.0470731
0.0455308
0.0470619
0.0480402
0.0482934
0.0482676
0.0488448
0.046939
0.0465684
0.042397
0.0446068
0.0480316
0.0437538
0.0468296
0.0458729
0.0431881
0.0461479
0.046467
0.0459289
0.0473391
0.0479455
0.0435454
0.0458839
0.0465745
0.0429381
0.0447443
0.045566
0.0455967
0.0471814
0.0434646
0.043204
0.046076
0.045135
0.0480735
0.0487287
0.0478107
0.0454679
0.0455736
0.0463182
0.0450808
0.0485406
0.0433287
0.0462076
0.0455437
0.048357
0.0475655
0.0461538
0.0466291
0.0480847
0.0434647
0.0466131
0.0484051
0.0455306
0.0399085
0.0456055
0.0431961
0.0465487
0.0422265
0.0488278
0.0486725
0.0483297
0.0469464
0.0436944
0.0424709
0.0478577
0.0488557
0.0485318
0.0464996
0.0466343
0.047321
0.0489119
0.047946
0.0423785
0.0463904
0.0465659
0.0471542
0.0454785
0.0475564
0.041782
0.0483922
0.0478804
0.0463154
0.0466931
0.0470545
0.0463492
0.048359
0.0473449
0.0436398
0.0460888
0.0475624
0.0458446
0.0463479
0.0470058
0.0424218
0.0430928
0.04808
0.0486624
0.0478896
0.0483757
0.0473384
0.047542
0.0464332
0.0465759
0.0470021
0.0480494
0.0451768
0.0460062
0.0449697
0.0464832
0.0481234
0.0419176
0.0463373
0.0418996
0.0479207
0.0420366
0.042827
0.045898
0.0410975
0.0463668
0.0471868
0.0478557
0.0478286
0.044491
0.0448294
0.0491659
0.0448571
0.0437823
0.0461627
0.0444016
0.0481429
0.0473019
0.0464668
0.0434843
0.0480389
0.0486666
0.0480779
0.0429192
0.044083
0.0462405
0.0482822
0.0489789
0.0428755
0.0426979
0.0477536
0.0466906
0.0485938
0.0460326
0.0417528
0.0470078
0.047974
0.0427874
0.0419948
0.0480711
0.0434413
0.0432415
0.0482323
0.0485386
0.0471976
0.049324
0.0457555
0.045698
0.0482633
0.0447559
0.0478583
0.0448952
0.0470676
0.0477004
0.0456104
0.0427641
0.0474389
0.0476925
0.0450729
0.0460014
0.0458104
0.0441308
0.0429401
0.0463727
0.0474473
0.0484525
0.0449301
0.047521
0.0425264
0.0473822
0.0486067
0.042599
0.0482454
0.0466169
0.0404055
0.0426048
0.0466183
0.0461271
0.0476612
0.0451151
0.043383
0.0477927
0.0487026
0.0483142
0.0466649
0.0480882
0.042448
0.0482474
0.0463113
0.0427083
0.0428721
0.0405364
0.0425746
0.0474821
0.0455042
0.0469992
0.0464923
0.0434423
0.043857
0.0415579
0.0416035
0.0494132
0.048942
0.0436615
0.0484189
0.047734
0.0436066
0.0458159
0.0463421
0.0441809
0.0448686
0.0479334
0.0442562
0.0421267
0.04811
0.0491379
0.0447099
0.0482221
0.0462774
0.0440513
0.0432605
0.0460567
0.0427693
0.0429453
0.0466912
0.0470755
0.0455663
0.0483364
0.0480159
0.0460529
0.0486238
0.0358213
0.0460401
0.0423663
0.0463945
0.0485436
0.0457955
0.0447429
0.0459982
0.0428188
0.0471142
0.0460373
0.0445321
0.0431287
0.0412898
0.0411971
0.0450183
0.0425431
0.045886
0.0426094
0.0455023
0.0477542
0.0470162
0.0458068
0.0468412
0.0471045
0.0462041
0.0475369
0.0422651
0.0458021
0.048396
0.0482431
0.0456622
0.0490622
0.0436703
0.0480418
0.0458539
0.0423833
0.0475876
0.0484796
0.0467753
0.0475093
0.0484591
0.0468841
0.0413235
0.0413212
0.0457165
0.0486338
0.0466568
0.0474908
0.0451114
0.0453896
0.043708
0.042166
0.0420146
0.0424413
0.0469934
0.0467873
0.0484483
0.0451177
0.0453474
0.048777
0.0424376
0.0464694
0.0483698
0.0484639
0.0447912
0.0452896
0.0478187
0.0489119
0.0482773
0.040678
0.0464119
0.0477729
0.0469205
0.0465992
0.0494796
0.0479022
0.048421
0.0466801
0.0445127
0.046285
0.0485432
0.0473539
0.0464008
0.0425807
0.0479106
0.0479577
0.0486203
0.0476474
0.0420766
0.0411108
0.0458309
0.0472789
0.0463937
0.0466001
0.0474793
0.0474786
0.0475837
0.0448465
0.0471028
0.0464669
0.0479266
0.0431893
0.0430698
0.0450983
0.048429
0.0430513
0.0480452
0.0428076
0.0454166
0.0463885
0.0485861
0.0454856
0.0477134
0.0483241
0.0479535
0.046572
0.0476641
0.0466421
0.0451919
0.0415167
0.0484241
0.0411692
0.0426605
0.040596
0.0416147
0.0421472
0.0451536
0.0466231
0.0428798
0.0449833
0.0405938
0.0436848
0.0456637
0.0481588
0.0418095
0.0430703
0.0475548
0.0418575
0.0452186
0.0478059
0.0468958
0.0462685
0.0432891
0.0424935
0.0448606
0.0484042
0.0445631
0.0430696
0.0465969
0.0451067
0.0469506
0.0459541
0.0435587
0.0485268
0.04193
0.0429234
0.0460873
0.0484572
0.0450685
0.0458116
0.0461912
0.0464724
0.0414976
0.0437503
0.0456123
0.0484502
0.0472335
0.0426488
0.0414351
0.0458958
0.0483321
0.0458569
0.0461491
0.0450018
0.0451143
0.0459843
0.0424466
0.0482477
0.0446831
0.0425416
0.0413603
0.0476002
0.0460965
0.0484875
0.046215
0.0478208
0.042415
0.0458962
0.0415248
0.0414456
0.0481707
0.0434712
0.0458202
0.0464054
0.0466793
0.042776
0.0483143
0.0477129
0.0483526
0.0468488
0.0402762
0.0465521
0.0412842
0.0487659
0.0431451
0.0484847
0.0409168
0.0469209
0.0477722
0.0452326
0.045469
0.0410866
0.0445429
0.0461226
0.0478233
0.0470226
0.0481447
0.0485724
0.0424377
0.0484038
0.042479
0.0468537
0.046972
0.0479202
0.0477775
0.0461503
0.0485705
0.0454589
0.0442091
0.0442183
0.0468276
0.048594
0.0437374
0.0439747
0.0480718
0.0471324
0.0461749
0.0494422
0.047091
0.0467673
0.0478187
0.0475756
0.0484927
0.0455417
0.0450518
0.0480945
0.047645
0.0420531
0.045668
0.0444904
0.0485909
0.0467131
0.0476754
0.0430647
0.0428978
0.0464635
0.047595
0.0480299
0.0484541
0.0482236
0.0461915
0.0467811
0.0431237
0.046638
0.0465453
0.0480048
0.0485041
0.0483328
0.0459714
0.0482163
0.0438288
0.0480539
0.0443342
0.0457309
0.0450251
0.0464916
0.0451796
0.0477056
0.0426917
0.0480657
0.0481937
0.0458407
0.0428319
0.0492193
0.0468698
0.048027
0.0462178
0.0465184
0.0474277
0.0423503
0.048242
0.0459906
0.046813
0.0439116
0.0441041
0.0444215
0.0423344
0.0446073
0.0484829
0.046561
0.0415609
0.0474466
0.0423329
0.0464686
0.0467124
0.0414053
0.0420282
0.0445788
0.0460982
0.0475047
0.0449053
0.04729
0.0456793
0.0420107
0.0447365
0.0481133
0.0481766
0.048269
0.0473242
0.0470649
0.042905
0.0423767
0.0483588
0.0454494
0.0466307
0.0480258
0.0491578
0.0465234
0.0467013
0.0415591
0.0475083
0.0482283
0.044916
0.0481808
0.0478697
0.0470559
0.0449958
0.0473487
0.0452804
0.0417183
0.0464023
0.0432323
0.0425537
0.0464469
0.0464929
0.0482022
0.0481883
0.0468132
0.0481164
0.0413872
0.0449417
0.0489377
0.048795
0.0424201
0.0465255
0.0431737
0.0449041
0.0480205
0.0452118
0.0467096
0.0488321
0.0468184
0.0415742
0.0478866
0.0423793
0.0477661
0.0471231
0.0468003
0.0478854
0.0468092
0.0478933
0.0426878
0.0481998
0.0482172
0.043421
0.0471517
0.0460078
0.0456775
0.0479578
0.0459298
0.0476352
0.0486191
0.0481729
0.0464904
0.0484483
0.0462952
0.0467971
0.0441381
0.0447779
0.042583
0.0414601
0.0463744
0.0471917
0.0461404
0.0483623
0.0454858
0.0482456
0.0417325
0.0486513
0.048587
0.0473054
0.0479424
0.0437717
0.0418645
0.0461306
0.042451
0.0475006
0.0465477
0.0415417
0.0451851
0.0485136
0.047903
0.0416617
0.0441041
0.0414178
0.0488492
0.0424402
0.0478669
0.0442622
0.0430346
0.0481177
0.0483291
0.0483438
0.0473978
0.0424544
0.0466441
0.0488118
0.0433559
0.0481563
0.0474303
0.0484422
0.0418202
0.0472344
0.0451749
0.0471445
0.0454681
0.0456555
0.0449086
0.0452926
0.0457383
0.0453031
0.0472827
0.0459119
0.0484795
0.0439622
0.0459689
0.0467312
0.0477334
0.0485445
0.0430217
0.0473374
0.0426756
0.0453407
0.0482895
0.0486335
0.0462308
0.0462777
0.047498
0.0447671
0.0457511
0.0458253
0.042631
0.042195
0.046919
0.0480536
0.0454962
0.0452136
0.0481463
0.0427805
0.0468922
0.0429721
0.0467129
0.0484184
0.0465039
0.0421909
0.0480719
0.0425504
0.0472246
0.0480738
0.0418924
0.0487108
0.043481
0.0448907
0.0455956
0.0419154
0.0443221
0.0450343
0.0411342
0.0481297
0.0488412
0.0411596
0.0446518
0.0474071
0.0470708
0.0468486
0.0490074
0.0481373
0.0457643
0.0440775
0.042229
0.0412147
0.0405534
0.04844
0.0476322
0.046648
0.0469732
0.0422682
0.0425161
0.0456837
0.0480773
0.0409851
0.0468088
0.0460505
0.0459173
0.0470891
0.0448656
0.0478332
0.0444223
0.0457732
0.0490478
0.0404638
0.0461265
0.0481033
0.0480079
0.0466357
0.0478668
0.0469596
0.0422251
0.048907
0.0494281
0.0459828
0.0465805
0.0447228
0.0460316
0.0474115
0.0476943
0.0465701
0.0461343
0.0453499
0.0419333
0.0453125
0.0485798
0.0474314
0.0488049
0.0469166
0.046394
0.0488088
0.0431693
0.0479467
0.042405
0.0487109
0.0470595
0.0449122
0.0490882
0.0447073
0.0456905
0.0488343
0.0451905
0.0488333
0.0477191
0.0474457
0.0427943
0.0464305
0.0459271
0.0443796
0.0478027
0.045257
0.0456391
0.0488706
0.042772
0.0480515
0.0464847
0.0481854
0.0451934
0.0468149
0.0428516
0.0438371
0.049223
0.0427762
0.0463511
0.0479821
0.0427222
0.0458466
0.0480653
0.0445489
0.0432495
0.0441594
0.0454666
0.0447903
0.0480903
0.0455639
0.0484647
0.0471034
0.0482385
0.04195
0.0441489
0.048455
0.0459185
0.0425778
0.043401
0.0458782
0.0398777
0.0419748
0.0460398
0.0457721
0.0482391
0.0451552
0.0478816
0.0482882
0.0482348
0.0476751
0.0478041
0.0445773
0.0447149
0.0473908
0.0457524
0.0449561
0.0482511
0.0459736
0.0420179
0.0420061
0.0453523
0.0403509
0.0472217
0.0478287
0.0446445
0.0473437
0.0477995
0.0476816
0.0490333
0.0457211
0.0430618
0.0451308
0.045438
0.0479745
0.0446844
0.0470007
0.0485701
0.045307
0.0450171
0.0467575
0.0484575
0.0476188
0.0498827
0.0482734
0.0461662
0.0466714
0.0436963
0.0454725
0.0483199
0.043933
0.0482548
0.0449543
0.04768
0.0420228
0.0476048
0.046212
0.0479995
0.0458037
0.0466447
0.046151
0.0476086
0.0417015
0.0438127
0.0459718
0.044962
0.0459537
0.0466603
0.0464084
0.048407
0.0468395
0.0424308
0.0446321
0.0426332
0.0461913
0.0464756
0.0431597
0.0494177
0.0462382
0.0456034
0.047396
0.0439123
0.0432856
0.048296
0.043007
0.0416667
0.0420968
0.0425536
0.0428291
0.0443064
0.0482594
0.0477714
0.0452743
0.0468964
0.0477291
0.0460929
0.0472901
0.0418263
0.0481085
0.0359302
0.0478247
0.0424345
0.0422691
0.0477842
0.0420431
0.0457848
0.0469822
0.0479412
0.0447549
0.046424
0.0448763
0.0459224
0.0445469
0.0468272
0.0460949
0.0475582
0.0461826
0.0428161
0.0472962
0.045551
0.0457101
0.0426399
0.0434994
0.0439984
0.0418395
0.0420199
0.0462001
0.0455357
0.043405
0.0451579
0.0482307
0.0480386
0.0483401
0.0361743
0.0423907
0.0484104
0.0427441
0.0477892
0.041821
0.0481255
0.0478484
0.0482601
0.0425845
0.0459062
0.0486051
0.0484967
0.0468124
0.0483907
0.0460693
0.0465857
0.0458101
0.0422033
0.046629
0.0448054
0.0462946
0.0463205
0.0438874
0.0457038
0.0479088
0.0442868
0.0438437
0.0425731
0.0470691
0.0471665
0.0417602
0.0462606
0.0461292
0.0471962
0.0430816
0.0466952
0.0457365
0.0488897
0.0391782
0.0460272
0.0459824
0.0420116
0.0478631
0.0434872
0.0435288
0.0467588
0.0483199
0.0414405
0.0478202
0.0469757
0.0438132
0.0419339
0.0483356
0.0481811
0.0418961
0.0462112
0.0415171
0.0436768
0.0483063
0.0453076
0.0471171
0.0481086
0.0482974
0.045131
0.0447318
0.0457159
0.0460124
0.0461854
0.0445874
0.0475056
0.0423311
0.0447525
0.0459114
0.0456685
0.0471203
0.0455156
0.0471404
0.047408
0.0461531
0.0482047
0.0469091
0.0453426
0.0443632
0.047135
0.0452027
0.0445922
0.0469683
0.0483156
0.0470437
0.0474172
0.0442923
0.0472611
0.0443831
0.0427491
0.0458623
0.0468717
0.0429034
0.0468843
0.0453338
0.040821
0.0416947
0.0476292
0.0404655
0.0457863
0.0478439
0.0466547
0.0428755
0.0470362
0.049265
0.0425603
0.0425694
0.0432567
0.0478694
0.0461627
0.0460593
0.0484952
0.0421661
0.0473955
0.0460695
0.0484189
0.0488096
0.0363122
0.0461426
0.0475499
0.0479924
0.0463537
0.045362
0.0401677
0.0471824
0.0481712
0.0442232
0.0419679
0.045447
0.0476326
0.0467347
0.0422645
0.046039
0.0474036
0.0479801
0.0456856
0.0460041
0.0416309
0.0426032
0.0425162
0.046445
0.0455112
0.0463658
0.0483822
0.0480412
0.0408591
0.0478133
0.0480418
0.0470037
0.0448869
0.047778
0.0450908
0.0428676
0.0445858
0.0463627
0.0453645
0.0431186
0.0466754
0.0455227
0.047701
0.0432969
0.0415469
0.0452346
0.0482738
0.0475886
0.0449321
0.0454368
0.0479488
0.0481481
0.0451531
0.044745
0.0475615
0.0481821
0.0471399
0.048369
0.047507
0.0466792
0.0418374
0.0452075
0.0425618
0.047289
0.0477786
0.044775
0.0425193
0.0486921
0.04254
0.0450951
0.0434639
0.0458488
0.0415417
0.0468755
0.0460961
0.0460153
0.0459897
0.0436933
0.0482537
0.043046
0.0470932
0.0457841
0.0459169
0.0421325
0.0475965
0.046921
0.0423314
0.0440292
0.0457876
0.0455658
0.0469122
0.0384082
0.0469788
0.0450588
0.0461842
0.0442761
0.044635
0.0445203
0.0388188
0.0480752
0.0454158
0.0303335
0.0424821
0.0464952
0.0480109
0.047273
0.0433606
0.0400987
0.0474488
0.0424046
0.0474944
0.0482612
0.0464613
0.0434277
0.0477061
0.0419449
0.0417987
0.0415856
0.0470896
0.0458433
0.0449916
0.0482888
0.0469591
0.0467335
0.0436957
0.0408147
0.0485493
0.0463213
0.048807
0.0476581
0.0427947
0.0458314
0.0465495
0.0440354
0.0461435
0.0446316
0.0456646
0.0501185
0.0466272
0.0452133
0.0424265
0.0466266
0.0457172
0.0472349
0.0452327
0.0419845
0.0431575
0.0465127
0.0471669
0.0442591
0.0476199
0.0441905
0.0468943
0.0446652
0.0450079
0.0393759
0.0483182
0.0471987
0.0463622
0.0485408
0.0457803
0.0436536
0.042912
0.0395544
0.0470894
0.0434387
0.0461501
0.0455606
0.0479028
0.0459905
0.0478611
0.0452437
0.0314009
0.0428633
0.0478947
0.0333461
0.045749
0.0485744
0.0472547
0.0482685
0.0435987
0.0431604
0.043708
0.0485605
0.0388942
0.0486524
0.0427326
0.0405209
0.0475071
0.0431917
0.0479094
0.0315146
0.0413076
0.0467877
0.0478754
0.0483327
0.0465663
0.0478355
0.0467923
0.0466766
0.0474312
0.0471149
0.0455897
0.0455443
0.0393404
0.0477645
0.0454909
0.0450534
0.0484504
0.0483177
0.0475922
0.0430204
0.048073
0.0469684
0.044835
0.0435147
0.0418077
0.0472674
0.0482123
0.0476365
0.0480623
0.0471483
0.0463721
0.0419265
0.0473844
0.0456763
0.0457558
0.0462601
0.0420902
0.0404921
0.0450891
0.0492917
0.0469216
0.046761
0.0431094
0.0449246
0.0447805
0.0427183
0.0480773
0.0458675
0.0358335
0.0382754
0.0414699
0.0430119
0.0477962
0.0467179
0.0470954
0.0443037
0.0413106
0.0472868
0.0479385
0.041088
0.0488366
0.0428064
0.0483392
0.0450747
0.047631
0.0479762
0.0462289
0.0471745
0.045849
0.0442677
0.0432662
0.0444648
0.0471986
0.0459622
0.0432581
0.0453075
0.0466794
0.0420461
0.0457298
0.043434
0.0479876
0.045197
0.0460257
0.0374524
0.0479691
0.0484712
0.0457181
0.0471737
0.0450057
0.0457468
0.0480929
0.0463517
0.0466404
0.0485458
0.0462887
0.0426449
0.042249
0.0492841
0.0436047
0.0425072
0.0425851
0.0476485
0.0484597
0.0470733
0.0483278
0.0492896
0.0483476
0.046879
0.0454934
0.0437903
0.0471974
0.041088
0.0460886
0.046889
0.0449899
0.0444464
0.0434312
0.0464654
0.0486308
0.0417592
0.0454459
0.0468305
0.042125
0.0480074
0.0402195
0.041475
0.0428181
0.0486868
0.0429647
0.0422719
0.0434157
0.0428201
0.0464371
0.0396033
0.0404608
0.0457121
0.0440048
0.0410197
0.0458786
0.0428559
0.0438564
0.0467798
0.043842
0.0421794
0.0473099
0.0448067
0.0446062
0.0423156
0.045542
0.0448018
0.0402461
0.0482322
0.0462006
0.0473227
0.0452654
0.042876
0.0422011
0.0459039
0.0453205
0.0482686
0.0459802
0.0477406
0.0439098
0.0460596
0.0476798
0.0480196
0.0392109
0.0405717
0.0427456
0.0477261
0.0425943
0.0459932
0.0364489
0.0440682
0.0465639
0.0449566
0.04646
0.0433945
0.0455977
0.0456609
0.0479079
0.0428907
0.0459609
0.0490485
0.0425489
0.0461983
0.0437122
0.0471489
0.0433131
0.0423781
0.0464364
0.0424088
0.038782
0.0404008
0.0427089
0.0442105
0.0399113
0.0482207
0.0445444
0.0413742
0.0458719
0.0477198
0.0462051
0.0406389
0.0487493
0.0470313
0.0421702
0.0454541
0.0456572
0.0435104
0.0457978
0.04602
0.0463893
0.0420149
0.0412799
0.0458017
0.0429638
0.0400693
0.0409512
0.0421231
0.0467006
0.0422886
0.0473825
0.0455469
0.0466361
0.0435712
0.0479778
0.0435838
0.046008
0.0436891
0.0314058
0.0483595
0.040449
0.0460556
0.0477153
0.0480966
0.0389864
0.047812
0.0482444
0.0425807
0.0461489
0.0453052
0.0435899
0.0389828
0.0461376
0.044092
0.0471391
0.048665
0.0452204
0.0483696
0.0440181
0.0442488
0.0419744
0.0394605
0.040456
0.0480428
0.040056
0.0473431
0.0440721
0.0408511
0.0443602
0.0479525
0.0402126
0.0338495
0.043594
0.0468733
0.0480254
0.0464708
0.0311992
0.0439614
0.0478461
0.0466974
0.0486883
0.0455215
0.0405216
0.0481771
0.0405116
0.0471283
0.0442833
0.0446192
0.0447895
0.0474868
0.0424124
0.0434931
0.0397837
0.0440629
0.047359
0.0467647
0.046288
0.0420308
0.0424966
0.0449982
0.0425125
0.0462101
0.0412297
0.0424524
0.0464761
0.0479538
0.0418111
0.0477044
0.0436553
0.0490855
0.041035
0.0481721
0.045866
0.046517
0.0458696
0.0438585
0.0431682
0.0492634
0.0456291
0.0458664
0.046089
0.0424795
0.0470069
0.0483765
0.0421716
0.0431665
0.0441677
0.0411184
0.0442351
0.0469038
0.0382415
0.0483355
0.0391599
0.0450988
0.0467434
0.0404683
0.0448869
0.0460346
0.0427091
0.0455011
0.0436569
0.045523
0.0407935
0.0467518
0.04101
0.0450465
0.0350958
0.0463306
0.0407358
0.0421318
0.0463047
0.0421549
0.0436664
0.048634
0.0463117
0.0462522
0.0479158
0.039861
0.0465612
0.0428309
0.0460143
0.0455059
0.0452458
0.047548
0.0463299
0.0415501
0.0414106
0.0476456
0.0462177
0.0465577
0.0395374
0.0480156
0.0493303
0.0472295
0.0465332
0.0433837
0.0426175
0.0454082
0.0417585
0.0424778
0.0470948
0.0456459
0.0442344
0.0455093
0.0452775
0.0457773
0.0410032
0.0429944
0.0421686
0.0390382
0.0485183
0.0458402
0.0435297
0.0477183
0.0460394
0.0435757
0.0475975
0.0399279
0.0426649
0.0405299
0.0416993
0.0484283
0.0469464
0.0373863
0.0478401
0.0404454
0.0458479
0.0459513
0.0459283
0.0479339
0.0451169
0.046457
0.0446415
0.044919
0.044673
0.0474721
0.0405489
0.0416131
0.0447289
0.0391448
0.0439513
0.0400674
0.0428209
0.048115
0.0450877
0.0369694
0.0375902
0.0417876
0.0415629
0.0442275
0.0430912
0.045093
0.0465218
0.0387593
0.0457191
0.0441541
0.0441956
0.0405972
0.04539
0.0399553
0.0366277
0.0425163
0.042357
0.0421015
0.0432212
0.0439138
0.0447707
0.0417369
0.047909
0.0414894
0.0457902
0.0430344
0.0456872
0.0439067
0.041312
0.0462272
0.0454883
0.0391161
0.0432225
0.0447828
0.0488064