/*--------------------------------*- C++ -*----------------------------------*\
| =========                 |                                                 |
| \\      /  F ield         | OpenFOAM: The Open Source CFD Toolbox           |
|  \\    /   O peration     | Version:  2212                                  |
|   \\  /    A nd           | Website:  www.openfoam.com                      |
|    \\/     M anipulation  |                                                 |
\*---------------------------------------------------------------------------*/
FoamFile
{
    version     2.0;
    format      ascii;
    arch        "LSB;label=32;scalar=64";
    class       volScalarField;
    location    "0.018";
    object      nut;
}
// * * * * * * * * * * * * * * * * * * * * * * * * * * * * * * * * * * * * * //

dimensions      [0 2 -1 0 0 0 0];

internalField   nonuniform List<scalar> 
31639
(
7.59237e-05
7.34906e-05
7.53761e-05
7.96194e-05
7.35749e-05
7.2039e-05
7.17892e-05
7.67691e-05
7.57987e-05
7.8163e-05
7.80613e-05
7.74586e-05
7.47074e-05
7.91393e-05
7.2229e-05
7.02844e-05
7.6223e-05
7.2384e-05
6.96539e-05
7.37764e-05
6.29112e-05
7.80185e-05
7.927e-05
7.0239e-05
6.95409e-05
7.52351e-05
7.4054e-05
6.53842e-05
7.21258e-05
7.92173e-05
7.81223e-05
7.14584e-05
7.88074e-05
6.96318e-05
6.52821e-05
7.894e-05
6.08175e-05
8.01294e-05
7.85037e-05
5.91233e-05
6.60628e-05
6.43973e-05
7.77951e-05
7.82947e-05
7.88843e-05
7.81961e-05
7.19235e-05
7.23614e-05
7.59524e-05
7.93474e-05
7.76977e-05
6.01709e-05
7.98791e-05
6.21505e-05
7.12293e-05
7.55395e-05
6.34147e-05
7.42293e-05
7.35929e-05
6.31929e-05
7.43196e-05
7.71294e-05
6.87675e-05
7.29689e-05
7.55133e-05
7.92051e-05
7.45402e-05
7.42841e-05
6.66897e-05
7.91146e-05
7.95295e-05
6.91049e-05
7.69643e-05
7.38243e-05
7.98024e-05
6.46457e-05
7.83996e-05
7.28339e-05
7.28813e-05
7.79274e-05
6.90781e-05
5.88472e-05
7.88485e-05
7.5382e-05
7.58455e-05
7.81101e-05
7.9466e-05
7.86991e-05
6.53027e-05
8.01869e-05
7.48046e-05
7.35167e-05
6.40788e-05
7.30873e-05
6.76472e-05
7.19816e-05
7.35799e-05
7.39949e-05
7.46672e-05
6.37013e-05
8.01133e-05
7.76914e-05
7.27565e-05
6.23146e-05
6.36625e-05
7.8382e-05
6.20133e-05
6.12401e-05
6.81666e-05
6.2297e-05
7.61397e-05
6.4266e-05
7.28218e-05
7.08927e-05
7.42722e-05
6.22121e-05
7.21668e-05
7.20963e-05
7.89182e-05
7.32653e-05
7.66984e-05
7.74652e-05
7.66635e-05
7.54506e-05
7.41208e-05
7.91458e-05
7.37001e-05
6.86734e-05
6.79066e-05
7.7409e-05
7.79102e-05
7.67861e-05
7.71992e-05
7.13029e-05
7.67126e-05
7.44351e-05
6.36205e-05
6.22225e-05
7.71986e-05
7.39887e-05
7.37019e-05
7.83144e-05
7.82833e-05
6.1346e-05
6.05743e-05
7.94603e-05
7.80362e-05
6.41062e-05
6.39489e-05
7.83784e-05
6.79261e-05
7.40821e-05
6.97457e-05
7.67496e-05
6.45687e-05
7.93457e-05
7.35746e-05
6.72355e-05
6.53123e-05
7.01313e-05
7.82484e-05
6.49836e-05
6.7455e-05
6.31551e-05
6.4689e-05
7.22948e-05
6.46166e-05
7.90676e-05
7.72945e-05
6.23113e-05
6.83407e-05
7.16416e-05
6.55317e-05
7.47488e-05
7.98082e-05
7.81992e-05
7.48761e-05
7.9385e-05
7.51062e-05
7.41325e-05
7.30129e-05
7.2034e-05
7.11817e-05
6.00838e-05
7.54772e-05
7.9637e-05
7.11679e-05
7.90094e-05
6.45884e-05
6.24016e-05
8.01467e-05
7.73959e-05
7.54829e-05
7.3188e-05
7.36923e-05
7.11713e-05
7.1457e-05
7.71449e-05
6.27386e-05
7.16732e-05
7.85827e-05
7.97681e-05
7.52764e-05
7.562e-05
7.46655e-05
7.38279e-05
7.22269e-05
7.23853e-05
7.75276e-05
6.0371e-05
7.31676e-05
7.21083e-05
7.52685e-05
7.77541e-05
7.60525e-05
7.85522e-05
6.59583e-05
7.00653e-05
7.77301e-05
7.85211e-05
7.67452e-05
7.23571e-05
6.24526e-05
7.40921e-05
6.29368e-05
7.40072e-05
7.77634e-05
6.94484e-05
6.45346e-05
7.67275e-05
7.56607e-05
8.00324e-05
6.53367e-05
6.31534e-05
7.57365e-05
7.63307e-05
6.38409e-05
7.78889e-05
6.83367e-05
6.19653e-05
7.27005e-05
7.51986e-05
7.28831e-05
6.97792e-05
6.87696e-05
7.61518e-05
7.2109e-05
7.12502e-05
6.38192e-05
7.34924e-05
7.09879e-05
6.53741e-05
7.00153e-05
7.93464e-05
7.88316e-05
7.14192e-05
6.53785e-05
7.69107e-05
7.60751e-05
7.25177e-05
7.95056e-05
7.81056e-05
7.68052e-05
7.85393e-05
7.25091e-05
7.36624e-05
6.1912e-05
6.9508e-05
7.73684e-05
7.16027e-05
7.64659e-05
7.06296e-05
7.42413e-05
7.87233e-05
7.94625e-05
7.41811e-05
6.32815e-05
7.22572e-05
6.75239e-05
7.78815e-05
7.26675e-05
7.8268e-05
7.96019e-05
7.08333e-05
6.44458e-05
6.7427e-05
6.51908e-05
6.24497e-05
7.74288e-05
6.60899e-05
7.93363e-05
7.22899e-05
7.01764e-05
6.63143e-05
7.98982e-05
7.10534e-05
6.94513e-05
7.78922e-05
7.40447e-05
6.76992e-05
7.32717e-05
6.50965e-05
7.36506e-05
7.24955e-05
6.51689e-05
7.21518e-05
7.23135e-05
5.86572e-05
6.15897e-05
7.7502e-05
7.92895e-05
7.72872e-05
6.31167e-05
6.56673e-05
7.70474e-05
6.67895e-05
6.75424e-05
7.90415e-05
7.8799e-05
7.17458e-05
7.82219e-05
7.94459e-05
6.50316e-05
8.0292e-05
6.1522e-05
6.27257e-05
7.78083e-05
7.69014e-05
7.76403e-05
7.90815e-05
7.63323e-05
6.58431e-05
7.22963e-05
7.25501e-05
7.8229e-05
7.95463e-05
7.99916e-05
7.25985e-05
7.06438e-05
7.53218e-05
7.73006e-05
7.5598e-05
7.05058e-05
7.32603e-05
7.22529e-05
7.22964e-05
7.7584e-05
7.12243e-05
6.49312e-05
7.67448e-05
8.08536e-05
7.15678e-05
7.93681e-05
7.79549e-05
7.31486e-05
6.50092e-05
7.27469e-05
7.30329e-05
6.30808e-05
7.88311e-05
6.53208e-05
7.47153e-05
7.85406e-05
6.13974e-05
7.37077e-05
7.29179e-05
6.36197e-05
7.45004e-05
6.60781e-05
7.2598e-05
7.95292e-05
7.64566e-05
6.15564e-05
7.55452e-05
6.53585e-05
7.56316e-05
7.78633e-05
7.86815e-05
7.83675e-05
6.55372e-05
7.60799e-05
6.28168e-05
7.20493e-05
6.18528e-05
7.87594e-05
7.73968e-05
7.85493e-05
7.79443e-05
6.86673e-05
7.88398e-05
7.37065e-05
7.53828e-05
7.28514e-05
6.6395e-05
7.33918e-05
7.5685e-05
7.50417e-05
7.62063e-05
7.49262e-05
7.65767e-05
7.26642e-05
6.43953e-05
7.37143e-05
7.78472e-05
7.66698e-05
6.12238e-05
7.85245e-05
7.75192e-05
7.30499e-05
7.53414e-05
7.61581e-05
7.40176e-05
7.83902e-05
6.38711e-05
7.55526e-05
7.8393e-05
6.15903e-05
7.47048e-05
7.5488e-05
6.62113e-05
6.29684e-05
6.37363e-05
7.14565e-05
6.35506e-05
7.36076e-05
7.36767e-05
7.06469e-05
7.94996e-05
6.44664e-05
7.73211e-05
7.90212e-05
7.34259e-05
7.62032e-05
7.19836e-05
7.82269e-05
7.36727e-05
7.40095e-05
7.92942e-05
7.36664e-05
6.36479e-05
7.36094e-05
7.95508e-05
7.81885e-05
7.64264e-05
7.97595e-05
7.13656e-05
7.55876e-05
7.6748e-05
7.92065e-05
7.96804e-05
6.48079e-05
7.2967e-05
5.96368e-05
7.25552e-05
7.23968e-05
6.47984e-05
6.23335e-05
7.15724e-05
7.59093e-05
7.73759e-05
6.39656e-05
7.60389e-05
7.01568e-05
7.29698e-05
7.67375e-05
5.91939e-05
7.23891e-05
6.23785e-05
7.16157e-05
7.78426e-05
8.06745e-05
7.65291e-05
7.3065e-05
6.15152e-05
7.62809e-05
7.36126e-05
7.73224e-05
6.29842e-05
6.44265e-05
7.28866e-05
6.42244e-05
6.54709e-05
7.55142e-05
6.30721e-05
7.1187e-05
6.42886e-05
7.62316e-05
6.39769e-05
7.9244e-05
7.75381e-05
7.79366e-05
7.83308e-05
6.81053e-05
7.82484e-05
7.88238e-05
7.50143e-05
7.73196e-05
7.43189e-05
7.7681e-05
8.01603e-05
7.08238e-05
7.83264e-05
7.95513e-05
7.31401e-05
6.80986e-05
7.9441e-05
7.39259e-05
6.0192e-05
6.19332e-05
7.40213e-05
7.85412e-05
7.90142e-05
7.18863e-05
7.96778e-05
8.03831e-05
7.70477e-05
7.46436e-05
7.25268e-05
7.45458e-05
6.58913e-05
7.26021e-05
7.56232e-05
7.94199e-05
6.79022e-05
6.75793e-05
6.66086e-05
7.01402e-05
7.28271e-05
6.02468e-05
7.64508e-05
6.99638e-05
7.55433e-05
7.28509e-05
7.68809e-05
7.33458e-05
6.47058e-05
7.52355e-05
7.82912e-05
6.67192e-05
7.69557e-05
8.05098e-05
7.41836e-05
7.24199e-05
6.64162e-05
6.72506e-05
7.32879e-05
7.4151e-05
6.50697e-05
6.44704e-05
7.42537e-05
6.93802e-05
7.62813e-05
6.86318e-05
7.28229e-05
7.82259e-05
7.34518e-05
6.31257e-05
6.94499e-05
7.41359e-05
7.86659e-05
6.34549e-05
5.97246e-05
7.78742e-05
6.31275e-05
7.50497e-05
7.98185e-05
6.34263e-05
7.39391e-05
7.90835e-05
7.39698e-05
6.30956e-05
7.85057e-05
7.35753e-05
6.38496e-05
7.81133e-05
7.48722e-05
7.1726e-05
7.80528e-05
6.09154e-05
6.94391e-05
7.30023e-05
7.16931e-05
6.89946e-05
7.45867e-05
7.9009e-05
7.87086e-05
7.70369e-05
7.9258e-05
7.77169e-05
7.59301e-05
6.92857e-05
7.63317e-05
7.90394e-05
8.20701e-05
6.74286e-05
7.42423e-05
7.4642e-05
8.14819e-05
6.51802e-05
6.11528e-05
7.9102e-05
6.73953e-05
7.97599e-05
7.13561e-05
6.40441e-05
7.31108e-05
7.8071e-05
7.3318e-05
7.60076e-05
6.27753e-05
7.70823e-05
7.43087e-05
6.19633e-05
7.89555e-05
7.72445e-05
6.40775e-05
6.54234e-05
6.58169e-05
7.2457e-05
7.40875e-05
7.39911e-05
7.30383e-05
7.39235e-05
7.74086e-05
7.41401e-05
7.34843e-05
6.55879e-05
7.91614e-05
6.29656e-05
7.38184e-05
7.28696e-05
7.17893e-05
8.06637e-05
7.37084e-05
6.75423e-05
6.21991e-05
6.50531e-05
7.28877e-05
7.8557e-05
6.57103e-05
7.92805e-05
7.29526e-05
7.73565e-05
6.4293e-05
7.15588e-05
7.70643e-05
7.94975e-05
7.79662e-05
7.68027e-05
7.46228e-05
7.31717e-05
7.97863e-05
7.94893e-05
7.86416e-05
6.82798e-05
7.76374e-05
6.46493e-05
7.88484e-05
7.81429e-05
7.26323e-05
6.56149e-05
7.1512e-05
6.00581e-05
7.80805e-05
7.39827e-05
7.99181e-05
7.35659e-05
7.10546e-05
6.47185e-05
7.86377e-05
6.279e-05
5.97011e-05
6.66729e-05
6.77749e-05
6.51123e-05
7.34327e-05
6.352e-05
7.55851e-05
7.54559e-05
5.9418e-05
7.94477e-05
6.46723e-05
6.90744e-05
7.16913e-05
7.0441e-05
7.66866e-05
7.86159e-05
7.9569e-05
7.9008e-05
7.12877e-05
7.35008e-05
7.13486e-05
7.1933e-05
6.12068e-05
5.19587e-05
7.88187e-05
7.28645e-05
7.66886e-05
7.79041e-05
6.38778e-05
7.84146e-05
7.98193e-05
7.69151e-05
7.72438e-05
7.70527e-05
7.50878e-05
7.88394e-05
7.95529e-05
7.40181e-05
7.80826e-05
7.76509e-05
6.59942e-05
7.81e-05
7.12027e-05
7.78932e-05
7.12214e-05
7.32501e-05
6.91005e-05
8.01962e-05
7.19715e-05
7.4118e-05
7.33397e-05
6.51219e-05
7.90179e-05
7.44784e-05
7.06478e-05
6.40752e-05
7.66106e-05
6.15787e-05
7.7642e-05
7.68457e-05
7.15381e-05
7.94105e-05
7.96448e-05
7.92096e-05
6.37135e-05
7.32676e-05
7.33317e-05
7.41588e-05
6.55584e-05
7.64315e-05
7.71277e-05
7.06415e-05
7.35983e-05
6.98717e-05
7.5919e-05
7.16594e-05
7.23296e-05
6.13425e-05
7.72456e-05
7.53748e-05
7.85318e-05
6.8812e-05
7.35535e-05
7.48832e-05
7.29234e-05
6.98241e-05
7.42991e-05
7.7331e-05
7.26194e-05
6.13878e-05
6.16894e-05
7.22086e-05
6.102e-05
6.49944e-05
7.51902e-05
7.50416e-05
7.73526e-05
6.12247e-05
7.24765e-05
7.87709e-05
6.51348e-05
6.21175e-05
7.42296e-05
6.61009e-05
7.66586e-05
6.69722e-05
7.93306e-05
6.94793e-05
7.03566e-05
7.89797e-05
6.18013e-05
7.19548e-05
7.20057e-05
7.76058e-05
7.86334e-05
7.86441e-05
6.61572e-05
7.68316e-05
7.88206e-05
7.12732e-05
7.92886e-05
7.70485e-05
7.64179e-05
7.92723e-05
7.39265e-05
8.08807e-05
7.9588e-05
8.03544e-05
7.60462e-05
7.16054e-05
7.40581e-05
7.33938e-05
6.43054e-05
7.17053e-05
7.5714e-05
7.78642e-05
7.96451e-05
7.22308e-05
8.02607e-05
7.7302e-05
7.05853e-05
7.72775e-05
7.82266e-05
7.69007e-05
7.68101e-05
6.46118e-05
7.11532e-05
7.92935e-05
6.08771e-05
7.28552e-05
7.27164e-05
7.23281e-05
7.23426e-05
7.87877e-05
7.61545e-05
7.77532e-05
7.36461e-05
7.60927e-05
7.41713e-05
7.80746e-05
7.44174e-05
7.19081e-05
6.48636e-05
7.81933e-05
6.55682e-05
7.15412e-05
7.289e-05
7.12766e-05
7.43238e-05
7.98206e-05
6.47335e-05
7.99291e-05
6.50948e-05
7.44273e-05
7.21737e-05
7.277e-05
7.30716e-05
7.89987e-05
6.42941e-05
7.72786e-05
7.80687e-05
7.89303e-05
7.4545e-05
7.56624e-05
6.04073e-05
7.94844e-05
7.79391e-05
7.71112e-05
7.71272e-05
7.80039e-05
7.33775e-05
7.42057e-05
7.4422e-05
6.55972e-05
7.29581e-05
7.92201e-05
6.21992e-05
6.75083e-05
8.15618e-05
7.80579e-05
6.92969e-05
7.10063e-05
7.48846e-05
6.97245e-05
7.22845e-05
6.63925e-05
7.71191e-05
7.93242e-05
6.07611e-05
7.4296e-05
7.83268e-05
7.69482e-05
7.8939e-05
7.1729e-05
7.78564e-05
6.61481e-05
6.55838e-05
7.97894e-05
7.82573e-05
7.28226e-05
6.51312e-05
7.63106e-05
7.83852e-05
6.80481e-05
7.85646e-05
7.76368e-05
7.785e-05
7.56442e-05
7.79968e-05
7.4461e-05
7.46071e-05
7.23648e-05
7.01476e-05
6.25108e-05
7.45072e-05
7.43283e-05
6.54475e-05
7.83763e-05
6.18893e-05
7.15367e-05
7.23981e-05
6.51325e-05
7.26794e-05
7.05854e-05
7.66167e-05
7.44442e-05
7.75458e-05
6.40649e-05
6.49445e-05
7.18361e-05
6.4121e-05
7.10514e-05
7.81806e-05
7.23736e-05
7.85827e-05
7.37336e-05
7.36066e-05
7.86679e-05
7.13702e-05
7.39063e-05
7.30548e-05
7.29e-05
7.56157e-05
6.70092e-05
7.42984e-05
7.72901e-05
7.87505e-05
8.04228e-05
6.39525e-05
6.31536e-05
7.30756e-05
7.8565e-05
6.61856e-05
7.19216e-05
7.53599e-05
7.35649e-05
8.10151e-05
7.24129e-05
7.19693e-05
7.68352e-05
6.36997e-05
7.83633e-05
7.88926e-05
6.53492e-05
6.941e-05
7.28543e-05
7.08573e-05
7.95023e-05
7.87179e-05
7.55086e-05
6.63793e-05
7.8098e-05
6.3983e-05
7.22963e-05
7.80743e-05
7.00999e-05
8.05195e-05
6.26585e-05
7.33768e-05
7.55539e-05
7.38534e-05
6.30032e-05
6.27761e-05
7.81809e-05
7.89595e-05
7.14167e-05
7.87517e-05
7.56392e-05
7.28449e-05
6.45745e-05
6.70021e-05
7.52319e-05
7.33013e-05
7.34511e-05
7.9625e-05
7.81946e-05
8.07585e-05
7.88217e-05
7.48839e-05
7.51791e-05
7.70367e-05
6.47226e-05
7.75498e-05
7.63945e-05
7.4477e-05
7.52377e-05
7.92174e-05
7.25118e-05
7.88057e-05
7.28168e-05
6.0899e-05
7.98661e-05
7.03056e-05
7.93857e-05
7.14393e-05
7.7705e-05
6.56523e-05
7.63967e-05
8.14024e-05
7.34237e-05
7.41292e-05
6.39609e-05
7.7452e-05
7.97495e-05
7.54883e-05
6.40699e-05
8.24611e-05
7.36118e-05
7.56024e-05
7.89505e-05
7.78751e-05
7.73071e-05
7.27818e-05
7.31711e-05
8.072e-05
6.53623e-05
6.63537e-05
6.58403e-05
6.83009e-05
7.52515e-05
6.25805e-05
7.95397e-05
7.82441e-05
7.9896e-05
7.23289e-05
7.29169e-05
7.42345e-05
7.91735e-05
7.40972e-05
7.44753e-05
7.89014e-05
7.9215e-05
7.37308e-05
7.77574e-05
7.35812e-05
7.25379e-05
7.68261e-05
7.12193e-05
7.99707e-05
7.99727e-05
7.93613e-05
7.94824e-05
7.89344e-05
6.98255e-05
8.11219e-05
7.42707e-05
7.5334e-05
7.22818e-05
7.52516e-05
8.03755e-05
7.38974e-05
7.737e-05
7.10793e-05
7.35961e-05
7.63816e-05
6.70157e-05
6.41581e-05
7.28456e-05
7.25679e-05
7.99235e-05
7.07588e-05
6.25971e-05
7.51574e-05
7.76453e-05
6.79325e-05
7.09826e-05
7.41552e-05
7.96445e-05
7.94613e-05
7.16958e-05
6.89039e-05
7.37065e-05
7.70942e-05
7.15729e-05
7.51164e-05
7.41125e-05
6.33277e-05
7.17289e-05
7.10157e-05
7.65658e-05
7.87382e-05
7.41037e-05
7.92013e-05
7.68543e-05
7.42309e-05
7.53521e-05
6.51469e-05
6.69053e-05
6.28295e-05
7.89158e-05
7.46246e-05
7.96245e-05
8.26025e-05
7.70901e-05
6.34091e-05
7.68739e-05
7.18853e-05
7.6372e-05
7.59594e-05
7.69228e-05
6.32588e-05
7.99978e-05
6.51226e-05
7.39055e-05
7.48315e-05
7.30457e-05
8.06526e-05
7.31261e-05
7.67257e-05
6.54132e-05
7.321e-05
7.43076e-05
7.75477e-05
6.94245e-05
6.69579e-05
7.64631e-05
7.83539e-05
7.55881e-05
7.6148e-05
7.9726e-05
6.46512e-05
7.30431e-05
7.22526e-05
6.83895e-05
7.75103e-05
7.96722e-05
7.9669e-05
7.83866e-05
7.99374e-05
6.61442e-05
6.52957e-05
6.55626e-05
8.06597e-05
6.38956e-05
7.66109e-05
7.49366e-05
6.54204e-05
7.14006e-05
7.77832e-05
7.84835e-05
6.92353e-05
7.1053e-05
7.19977e-05
7.43104e-05
7.94176e-05
7.52083e-05
6.53618e-05
7.39665e-05
8.00535e-05
7.89434e-05
8.00767e-05
7.91519e-05
8.21952e-05
7.95495e-05
7.7568e-05
6.65146e-05
6.40139e-05
7.43441e-05
6.92483e-05
7.94597e-05
6.45761e-05
7.51907e-05
7.26369e-05
7.89607e-05
6.63005e-05
7.63116e-05
7.78107e-05
7.54948e-05
7.17336e-05
6.49784e-05
7.78467e-05
7.08685e-05
8.00091e-05
7.40153e-05
8.22723e-05
7.96e-05
7.44927e-05
6.35336e-05
6.50522e-05
7.28296e-05
7.4972e-05
7.07532e-05
8.09573e-05
6.57102e-05
7.88426e-05
7.66804e-05
7.1774e-05
7.61948e-05
7.83099e-05
7.89249e-05
7.91659e-05
8.02525e-05
7.51753e-05
7.57033e-05
6.33138e-05
7.04363e-05
7.87164e-05
6.61748e-05
7.58437e-05
7.25747e-05
6.55137e-05
7.35737e-05
7.60775e-05
7.30242e-05
7.68107e-05
7.80234e-05
6.55209e-05
7.27802e-05
7.43676e-05
6.43949e-05
7.06044e-05
7.22116e-05
7.16689e-05
7.66038e-05
6.61421e-05
6.5728e-05
7.31728e-05
7.12645e-05
7.85495e-05
8.02548e-05
7.84595e-05
7.20281e-05
7.21557e-05
7.42583e-05
7.09196e-05
7.94379e-05
6.56256e-05
7.36899e-05
7.25046e-05
7.94453e-05
7.68955e-05
7.31313e-05
7.39267e-05
7.83482e-05
6.56387e-05
7.44338e-05
7.93477e-05
7.1546e-05
5.70286e-05
7.32914e-05
6.40861e-05
7.52859e-05
6.23465e-05
8.03121e-05
7.96661e-05
7.90926e-05
7.53211e-05
6.66384e-05
6.37718e-05
7.78486e-05
8.01437e-05
7.93692e-05
7.40631e-05
7.43814e-05
7.67946e-05
8.03538e-05
7.87021e-05
6.34003e-05
7.34341e-05
7.45979e-05
7.62346e-05
7.19368e-05
7.71478e-05
6.24479e-05
7.9519e-05
7.80896e-05
7.50095e-05
7.47495e-05
7.64762e-05
7.3903e-05
7.95089e-05
7.62459e-05
6.63684e-05
7.34548e-05
7.66998e-05
7.2762e-05
7.47854e-05
7.58499e-05
6.28586e-05
6.6517e-05
7.84317e-05
7.99568e-05
7.79927e-05
7.9404e-05
7.7312e-05
7.78876e-05
7.54361e-05
7.44199e-05
7.60415e-05
7.85027e-05
7.12865e-05
7.32281e-05
7.08371e-05
7.4179e-05
7.84323e-05
6.20449e-05
7.4721e-05
6.2724e-05
7.80573e-05
6.29958e-05
6.43845e-05
7.29792e-05
6.077e-05
7.33195e-05
7.5685e-05
7.81038e-05
7.80109e-05
6.97528e-05
7.02052e-05
8.10581e-05
6.85207e-05
6.56706e-05
7.28447e-05
6.94863e-05
7.88906e-05
7.59448e-05
7.48786e-05
6.55829e-05
7.8169e-05
7.97315e-05
7.89815e-05
6.45565e-05
6.76347e-05
7.35173e-05
7.88991e-05
8.05617e-05
6.53854e-05
6.37358e-05
7.73491e-05
7.43938e-05
7.9915e-05
7.33172e-05
6.191e-05
7.61768e-05
7.81517e-05
6.44515e-05
6.23205e-05
7.86291e-05
6.68468e-05
6.61049e-05
7.91779e-05
7.98499e-05
7.65387e-05
8.15275e-05
7.27591e-05
7.18974e-05
7.86751e-05
7.00789e-05
7.85581e-05
7.0757e-05
7.62398e-05
7.82228e-05
7.24237e-05
6.46565e-05
7.7328e-05
7.81458e-05
7.16314e-05
7.32279e-05
7.37133e-05
6.82699e-05
6.89579e-05
7.47547e-05
7.65644e-05
7.94406e-05
7.09246e-05
7.73312e-05
6.36249e-05
7.68694e-05
8.00893e-05
6.3179e-05
7.87282e-05
7.45343e-05
5.87322e-05
6.43433e-05
7.4499e-05
7.33803e-05
7.74363e-05
7.12569e-05
6.5789e-05
7.83217e-05
8.01037e-05
7.93353e-05
7.54465e-05
7.89589e-05
6.35741e-05
7.8844e-05
7.37705e-05
6.40197e-05
6.49359e-05
5.86553e-05
6.51286e-05
7.71945e-05
7.18992e-05
7.54455e-05
7.41336e-05
6.764e-05
6.87362e-05
6.13868e-05
6.14943e-05
8.16798e-05
8.04496e-05
6.59826e-05
7.9012e-05
7.76377e-05
6.58523e-05
7.27202e-05
7.42253e-05
6.75142e-05
7.06367e-05
7.88228e-05
6.70053e-05
6.18984e-05
7.90345e-05
8.09061e-05
6.98015e-05
7.8811e-05
7.29987e-05
6.74356e-05
6.58404e-05
7.34332e-05
6.42524e-05
6.43245e-05
7.4661e-05
7.63885e-05
7.28077e-05
7.90625e-05
7.86269e-05
7.3077e-05
7.98226e-05
5.37016e-05
7.32115e-05
6.35249e-05
7.41896e-05
7.96818e-05
7.27897e-05
7.01957e-05
7.3182e-05
6.51138e-05
7.59724e-05
7.32333e-05
7.02007e-05
6.46475e-05
6.11332e-05
6.04417e-05
7.1077e-05
6.42263e-05
7.33058e-05
6.45093e-05
7.2127e-05
7.843e-05
7.59756e-05
7.26168e-05
7.50261e-05
7.63519e-05
7.35061e-05
7.74033e-05
6.30981e-05
7.37679e-05
7.97006e-05
7.9253e-05
7.23408e-05
8.10017e-05
6.72783e-05
7.83873e-05
7.27348e-05
6.3362e-05
7.70426e-05
7.96703e-05
7.60209e-05
7.72743e-05
7.9544e-05
7.56499e-05
6.07886e-05
6.13782e-05
7.24239e-05
8.00202e-05
7.53168e-05
7.75113e-05
7.07547e-05
7.17718e-05
6.74871e-05
6.26813e-05
6.25596e-05
6.30968e-05
7.66932e-05
7.50378e-05
7.95456e-05
7.11844e-05
7.16225e-05
8.02152e-05
6.24389e-05
7.41057e-05
7.94066e-05
7.95672e-05
7.04646e-05
7.11658e-05
7.77326e-05
8.0376e-05
7.92679e-05
6.45177e-05
7.40133e-05
7.72987e-05
7.57404e-05
7.44184e-05
8.1941e-05
7.836e-05
7.93191e-05
7.45965e-05
6.95074e-05
7.38577e-05
7.93623e-05
7.7316e-05
7.39853e-05
6.36731e-05
7.84778e-05
7.80475e-05
7.95251e-05
7.74918e-05
6.30722e-05
5.99924e-05
7.27184e-05
7.68462e-05
7.3482e-05
7.47652e-05
7.72483e-05
7.72922e-05
7.79041e-05
7.07946e-05
7.66657e-05
7.39724e-05
7.78541e-05
6.43277e-05
6.37418e-05
7.09542e-05
7.88501e-05
6.51125e-05
7.84129e-05
6.45381e-05
7.23222e-05
7.39702e-05
7.96818e-05
7.2283e-05
7.78379e-05
7.86435e-05
7.8373e-05
7.50702e-05
7.74016e-05
7.46115e-05
7.12219e-05
6.1379e-05
7.96171e-05
5.95377e-05
6.29749e-05
6.34345e-05
6.20525e-05
6.24753e-05
7.15354e-05
7.44623e-05
6.52733e-05
7.08747e-05
5.90099e-05
6.63923e-05
7.22839e-05
7.86704e-05
6.22033e-05
6.44844e-05
7.74234e-05
6.22101e-05
7.2183e-05
7.77812e-05
7.54337e-05
7.3833e-05
6.51405e-05
6.33448e-05
7.11756e-05
7.94645e-05
6.8218e-05
6.49921e-05
7.50066e-05
7.1087e-05
7.52337e-05
7.30572e-05
6.53788e-05
7.96468e-05
6.19839e-05
6.36565e-05
7.28841e-05
7.91814e-05
7.06679e-05
7.27019e-05
7.3287e-05
7.42097e-05
6.11024e-05
6.64506e-05
7.20184e-05
7.97722e-05
7.63342e-05
6.31053e-05
6.05385e-05
7.32598e-05
7.96056e-05
7.2908e-05
7.3348e-05
7.08545e-05
7.12824e-05
7.32023e-05
6.40443e-05
7.90663e-05
7.0031e-05
6.4144e-05
6.01874e-05
7.7535e-05
7.35624e-05
7.9924e-05
7.48457e-05
7.78031e-05
6.3641e-05
7.28356e-05
6.13048e-05
5.99958e-05
7.83287e-05
6.57411e-05
7.24841e-05
7.39657e-05
7.65953e-05
6.46259e-05
7.94094e-05
7.7838e-05
7.94841e-05
7.56895e-05
5.69795e-05
7.41791e-05
6.15116e-05
8.02286e-05
6.50779e-05
7.96165e-05
5.97521e-05
7.5254e-05
7.75677e-05
7.10416e-05
7.19203e-05
6.01472e-05
6.9449e-05
7.35912e-05
7.84512e-05
7.61599e-05
7.87201e-05
7.98114e-05
6.3273e-05
7.94071e-05
6.84335e-05
7.51101e-05
7.51631e-05
7.80868e-05
7.77285e-05
7.38346e-05
8.00177e-05
7.20626e-05
6.92218e-05
6.93998e-05
7.49831e-05
7.97164e-05
6.84718e-05
6.72494e-05
7.88188e-05
7.66741e-05
7.34592e-05
8.1849e-05
7.5674e-05
7.52964e-05
7.80314e-05
7.81756e-05
7.95718e-05
7.26596e-05
7.09262e-05
7.83547e-05
7.74583e-05
6.58305e-05
7.25837e-05
6.92841e-05
7.99453e-05
7.47894e-05
7.77653e-05
6.48343e-05
6.52473e-05
7.41019e-05
7.74686e-05
7.86731e-05
7.97746e-05
7.87443e-05
7.45574e-05
7.59011e-05
6.53923e-05
7.40806e-05
7.43077e-05
7.84511e-05
7.97273e-05
7.9246e-05
7.27491e-05
7.92878e-05
6.62032e-05
7.89309e-05
6.92863e-05
7.25743e-05
7.13969e-05
7.40967e-05
7.13395e-05
7.76089e-05
6.41315e-05
7.84032e-05
7.88419e-05
7.28473e-05
6.49959e-05
8.08365e-05
7.63436e-05
7.88661e-05
7.35296e-05
7.43398e-05
7.71585e-05
6.3548e-05
7.92118e-05
7.29326e-05
7.47766e-05
6.85722e-05
6.88729e-05
6.854e-05
6.35114e-05
7.02386e-05
7.98655e-05
7.43911e-05
6.2003e-05
7.6687e-05
6.3135e-05
7.49206e-05
7.47921e-05
6.11925e-05
6.29577e-05
6.97254e-05
7.43229e-05
7.72724e-05
7.09845e-05
7.74752e-05
7.27137e-05
6.68326e-05
7.00371e-05
7.90627e-05
7.91939e-05
7.87624e-05
7.69605e-05
7.55795e-05
6.42543e-05
6.41011e-05
7.93911e-05
7.16336e-05
7.44223e-05
7.85349e-05
8.10404e-05
7.41078e-05
7.54904e-05
6.12245e-05
7.74813e-05
7.86959e-05
7.07506e-05
7.92909e-05
7.86613e-05
7.55027e-05
7.10874e-05
7.69044e-05
7.13116e-05
6.1954e-05
7.41336e-05
6.49384e-05
6.34965e-05
7.45025e-05
7.39957e-05
7.84308e-05
7.86574e-05
7.48358e-05
7.85405e-05
6.0397e-05
7.0953e-05
8.04087e-05
8.02604e-05
6.3023e-05
7.40959e-05
6.63306e-05
7.09443e-05
7.87985e-05
7.12775e-05
7.57395e-05
8.04544e-05
7.59774e-05
6.1352e-05
7.83991e-05
6.3406e-05
7.82941e-05
7.66648e-05
7.5358e-05
7.8279e-05
7.49681e-05
7.85173e-05
6.43837e-05
7.92948e-05
7.91721e-05
6.60362e-05
7.58923e-05
7.32725e-05
7.26192e-05
7.79502e-05
7.32901e-05
7.754e-05
7.97409e-05
7.92117e-05
7.40051e-05
7.95122e-05
7.3699e-05
7.61553e-05
6.71918e-05
7.04902e-05
6.3538e-05
6.19385e-05
7.48759e-05
7.59607e-05
7.33721e-05
7.92751e-05
7.22343e-05
7.93007e-05
6.2065e-05
7.99744e-05
7.99081e-05
7.62406e-05
7.8735e-05
6.65467e-05
6.18819e-05
7.33832e-05
6.29328e-05
7.74664e-05
7.42368e-05
6.11519e-05
7.19328e-05
7.95707e-05
7.79442e-05
6.24354e-05
6.85338e-05
6.09191e-05
8.01777e-05
6.3412e-05
7.77067e-05
6.929e-05
6.43054e-05
7.87782e-05
7.95942e-05
7.91695e-05
7.70338e-05
6.44193e-05
7.57334e-05
8.02956e-05
6.61724e-05
7.85712e-05
7.72585e-05
7.93617e-05
6.21592e-05
7.68853e-05
7.13658e-05
7.65036e-05
7.14938e-05
7.24221e-05
7.09524e-05
7.1382e-05
7.1952e-05
7.19649e-05
7.68868e-05
7.30584e-05
7.96543e-05
6.70091e-05
7.29413e-05
7.47189e-05
7.74912e-05
7.98466e-05
6.33395e-05
7.71172e-05
6.46966e-05
7.19284e-05
7.94102e-05
7.99194e-05
7.3249e-05
7.4769e-05
7.73674e-05
7.10327e-05
7.30062e-05
7.29489e-05
6.38859e-05
6.32263e-05
7.52903e-05
7.82871e-05
7.38041e-05
7.13103e-05
7.84405e-05
6.4838e-05
7.51935e-05
6.45348e-05
7.5689e-05
7.94856e-05
7.39258e-05
6.28825e-05
7.83225e-05
6.3759e-05
7.58031e-05
7.8729e-05
6.23725e-05
8.00195e-05
6.63959e-05
7.0787e-05
7.24734e-05
6.27091e-05
6.9147e-05
7.10334e-05
6.01017e-05
7.89535e-05
8.05679e-05
5.95513e-05
7.00672e-05
7.70436e-05
7.59002e-05
7.51226e-05
8.04665e-05
7.88707e-05
7.27775e-05
6.90479e-05
6.27674e-05
6.06947e-05
6.49795e-05
7.98112e-05
7.78857e-05
7.59525e-05
7.58928e-05
6.35685e-05
6.41428e-05
7.2586e-05
7.88597e-05
6.05596e-05
7.54311e-05
7.3442e-05
7.26539e-05
7.65715e-05
7.06965e-05
7.79529e-05
6.84034e-05
7.33974e-05
8.10325e-05
5.8316e-05
7.42044e-05
7.9088e-05
7.82371e-05
7.59623e-05
7.78393e-05
7.53258e-05
6.30432e-05
8.05252e-05
8.14164e-05
7.32403e-05
7.45722e-05
7.06355e-05
7.34573e-05
7.66052e-05
7.71482e-05
7.44525e-05
7.32538e-05
7.19323e-05
6.24332e-05
7.17184e-05
7.98423e-05
7.72826e-05
8.05244e-05
7.50113e-05
7.37871e-05
8.02545e-05
6.49246e-05
7.7945e-05
6.37273e-05
8.00124e-05
7.65269e-05
7.08867e-05
8.08833e-05
7.0498e-05
7.27845e-05
8.03033e-05
7.15751e-05
8.04122e-05
7.83268e-05
7.75161e-05
6.39655e-05
7.40078e-05
7.29994e-05
6.84314e-05
7.79116e-05
7.16185e-05
7.23485e-05
8.05378e-05
6.41056e-05
7.88401e-05
7.40966e-05
7.90826e-05
7.1827e-05
7.49867e-05
6.44019e-05
6.64883e-05
8.12254e-05
6.4215e-05
7.38336e-05
7.80524e-05
6.42128e-05
7.28332e-05
7.83959e-05
6.99947e-05
6.55278e-05
6.89439e-05
7.17536e-05
7.11678e-05
7.86166e-05
7.25642e-05
7.98081e-05
7.63999e-05
7.85977e-05
6.194e-05
6.89651e-05
7.96741e-05
7.30532e-05
6.36224e-05
6.62834e-05
7.38379e-05
6.39053e-05
6.33026e-05
7.34111e-05
7.24621e-05
7.92323e-05
7.15158e-05
7.79553e-05
7.90802e-05
7.83923e-05
7.76983e-05
7.76068e-05
7.06005e-05
6.98651e-05
7.71512e-05
7.27031e-05
7.09032e-05
7.94112e-05
7.30755e-05
6.28778e-05
6.24794e-05
7.22321e-05
6.31799e-05
7.66675e-05
7.78808e-05
7.00059e-05
7.75738e-05
7.77002e-05
7.76582e-05
8.08987e-05
7.35503e-05
6.45219e-05
7.09178e-05
7.16651e-05
7.82166e-05
7.03257e-05
7.64129e-05
7.98089e-05
7.20645e-05
7.09487e-05
7.47583e-05
7.89614e-05
7.67032e-05
8.26212e-05
7.86365e-05
7.30329e-05
7.42006e-05
6.62953e-05
7.17535e-05
7.90149e-05
6.69842e-05
7.92502e-05
7.07686e-05
7.77186e-05
6.36657e-05
7.70183e-05
7.38776e-05
7.83139e-05
7.31839e-05
7.54874e-05
7.34983e-05
7.77039e-05
6.22808e-05
6.62226e-05
7.345e-05
7.03781e-05
7.43154e-05
7.42961e-05
7.40822e-05
7.94587e-05
7.56482e-05
6.30349e-05
6.98817e-05
6.39817e-05
7.45004e-05
7.398e-05
6.51856e-05
8.13589e-05
7.35905e-05
7.23652e-05
7.70989e-05
6.84825e-05
6.56e-05
7.93957e-05
6.50164e-05
6.26713e-05
6.8118e-05
6.85618e-05
6.63589e-05
6.90809e-05
7.89615e-05
7.78482e-05
7.09701e-05
7.51172e-05
7.7583e-05
7.36935e-05
7.72743e-05
6.22812e-05
7.86134e-05
5.44403e-05
7.7903e-05
6.41674e-05
6.36112e-05
7.85559e-05
6.26403e-05
7.24653e-05
7.5758e-05
7.81767e-05
7.07699e-05
7.47776e-05
7.04342e-05
7.294e-05
7.07427e-05
7.60052e-05
7.43798e-05
7.7716e-05
7.34115e-05
6.45903e-05
7.68782e-05
7.22353e-05
7.25383e-05
6.95259e-05
6.64041e-05
6.85475e-05
6.18129e-05
6.28544e-05
7.36814e-05
7.23965e-05
6.64987e-05
7.09683e-05
7.89068e-05
7.88802e-05
7.90885e-05
5.42149e-05
6.27787e-05
7.94011e-05
6.39045e-05
7.78979e-05
6.25861e-05
7.84639e-05
7.84545e-05
7.8627e-05
6.45298e-05
7.26027e-05
7.98635e-05
7.96469e-05
7.54364e-05
7.94692e-05
7.3225e-05
7.51996e-05
7.28042e-05
6.347e-05
7.54548e-05
7.00991e-05
7.41506e-05
7.39579e-05
6.83302e-05
7.224e-05
7.87005e-05
6.94509e-05
6.88198e-05
6.39157e-05
7.64763e-05
7.66768e-05
6.12118e-05
7.36188e-05
7.3378e-05
7.63355e-05
6.48349e-05
7.45205e-05
7.29054e-05
7.98925e-05
6.14609e-05
7.32623e-05
7.29838e-05
6.15452e-05
7.79156e-05
6.47104e-05
6.6174e-05
7.57502e-05
7.91262e-05
6.1238e-05
7.81711e-05
7.55274e-05
7.13205e-05
6.20958e-05
7.9329e-05
7.90544e-05
6.12591e-05
7.35492e-05
6.07307e-05
6.50047e-05
7.90247e-05
7.14905e-05
7.56029e-05
7.89296e-05
7.90362e-05
7.13724e-05
7.0332e-05
7.29195e-05
7.26296e-05
7.45923e-05
7.03517e-05
7.79222e-05
6.36148e-05
7.0894e-05
7.31158e-05
7.20979e-05
7.62305e-05
7.21915e-05
7.57502e-05
7.69109e-05
7.33506e-05
7.94706e-05
7.62296e-05
7.19029e-05
6.96194e-05
7.66222e-05
7.13929e-05
7.01657e-05
7.61174e-05
7.94043e-05
7.63763e-05
7.79578e-05
7.00818e-05
7.67252e-05
6.97329e-05
6.44888e-05
7.32174e-05
7.57004e-05
6.47804e-05
7.5976e-05
7.24885e-05
5.97115e-05
6.27019e-05
7.75525e-05
6.11344e-05
7.26402e-05
7.81751e-05
7.54747e-05
6.45427e-05
7.6175e-05
8.07055e-05
6.44289e-05
6.42116e-05
6.48606e-05
7.83701e-05
7.34275e-05
7.32191e-05
7.96451e-05
6.30109e-05
7.61959e-05
7.34098e-05
7.94685e-05
8.04004e-05
5.60811e-05
7.35404e-05
7.71803e-05
7.85448e-05
7.4915e-05
7.1755e-05
6.39573e-05
7.58156e-05
7.92686e-05
6.92304e-05
6.20765e-05
7.18265e-05
7.79046e-05
7.56608e-05
6.35766e-05
7.27146e-05
7.69529e-05
7.83476e-05
7.25035e-05
7.22832e-05
6.12129e-05
6.45205e-05
6.3972e-05
7.41773e-05
7.18114e-05
7.48275e-05
7.95078e-05
7.86854e-05
6.44343e-05
7.78541e-05
7.85921e-05
7.53574e-05
7.07091e-05
7.78523e-05
7.18541e-05
6.51556e-05
7.0382e-05
7.49237e-05
7.38194e-05
6.80882e-05
7.57125e-05
7.21591e-05
7.80892e-05
6.55167e-05
6.25278e-05
7.17102e-05
7.94699e-05
7.79023e-05
7.13496e-05
7.22753e-05
7.83425e-05
7.86783e-05
7.0892e-05
7.0893e-05
7.79035e-05
7.92461e-05
7.65904e-05
7.93145e-05
7.74291e-05
7.56255e-05
6.24576e-05
7.1415e-05
6.39063e-05
7.65804e-05
7.83762e-05
7.05976e-05
6.37349e-05
8.00601e-05
6.37673e-05
7.03125e-05
6.68377e-05
7.35761e-05
6.24444e-05
7.59323e-05
7.32704e-05
7.29868e-05
7.42796e-05
6.65383e-05
7.91216e-05
6.54917e-05
7.62956e-05
7.37439e-05
7.27038e-05
6.39697e-05
7.79753e-05
7.59802e-05
6.45394e-05
6.79729e-05
7.24551e-05
7.16478e-05
7.58529e-05
5.92057e-05
7.54077e-05
7.14391e-05
7.39197e-05
6.9647e-05
6.95716e-05
6.93838e-05
5.99586e-05
7.87966e-05
7.30382e-05
3.93436e-05
6.43e-05
7.3758e-05
7.87696e-05
7.7058e-05
6.58378e-05
6.40227e-05
7.78464e-05
6.35247e-05
7.71832e-05
7.89578e-05
7.52788e-05
6.55458e-05
7.79892e-05
6.27915e-05
6.18147e-05
6.17114e-05
7.6364e-05
7.27087e-05
7.12191e-05
7.94104e-05
7.61588e-05
7.4717e-05
6.61632e-05
5.95731e-05
7.97329e-05
7.38069e-05
8.03735e-05
7.77091e-05
6.45396e-05
7.27546e-05
7.40462e-05
7.01997e-05
7.33484e-05
6.99327e-05
7.18766e-05
8.30191e-05
7.4726e-05
7.08966e-05
6.39458e-05
7.56606e-05
7.2819e-05
7.68603e-05
7.1383e-05
6.32281e-05
6.52109e-05
7.54862e-05
7.62914e-05
6.98084e-05
7.75424e-05
6.92148e-05