/*--------------------------------*- C++ -*----------------------------------*\
| =========                 |                                                 |
| \\      /  F ield         | OpenFOAM: The Open Source CFD Toolbox           |
|  \\    /   O peration     | Version:  2212                                  |
|   \\  /    A nd           | Website:  www.openfoam.com                      |
|    \\/     M anipulation  |                                                 |
\*---------------------------------------------------------------------------*/
FoamFile
{
    version     2.0;
    format      ascii;
    arch        "LSB;label=32;scalar=64";
    class       volScalarField;
    location    "0.018";
    object      p;
}
// * * * * * * * * * * * * * * * * * * * * * * * * * * * * * * * * * * * * * //

dimensions      [0 2 -2 0 0 0 0];

internalField   nonuniform List<scalar> 
31639
(
0.0162306
0.0113375
0.0185798
0.00832967
0.0114282
0.0159804
0.0178138
0.0170023
0.0121161
0.0103278
0.0177307
0.0115214
0.0119537
0.0155619
0.0135747
0.0189751
0.0219814
0.0224984
0.00371336
0.0172714
0.0125758
0.00971938
0.0132577
0.0082144
0.0142143
0.0168257
0.0163753
0.0515204
0.0170907
0.0170512
0.0091699
0.0242778
0.0121249
0.00661136
0.0295051
0.0170005
0.00979211
0.0176585
0.0176682
0.0144997
0.0116233
0.0165654
0.0129841
0.0180286
0.0185472
0.00778593
0.0116102
0.00920309
0.0198092
0.00835086
0.00771539
0.00622706
0.0299281
0.0183723
0.00603564
0.0224745
0.00992373
0.0164384
0.0113612
0.00791806
0.00871889
0.0166435
0.0137698
0.0169288
0.0297663
0.00489094
0.00300998
0.00947012
0.0117287
0.00735578
0.0105168
0.0221672
0.0102149
0.00436399
0.0301487
0.0239957
0.0104897
0.00971284
0.0112635
0.0106082
0.0161687
0.0154979
0.0152663
0.00855036
0.0151287
0.0140462
0.0130475
0.00918421
0.00292648
0.0121864
0.00694939
0.0220277
0.0081694
0.0108829
0.00520627
0.0163505
0.00887223
0.00626789
0.0118433
0.015685
0.0278719
0.0278848
0.0142272
0.0108408
0.00603355
0.00754205
0.0158716
0.00804075
0.00926101
0.0143945
0.0177609
0.0155451
0.016576
0.00977593
0.00436376
0.0173172
0.0295609
0.0183083
0.0280057
0.00875462
0.0245028
0.00759414
0.0039308
0.00835379
0.0158453
0.0155123
0.0112407
0.00846455
0.0103284
0.0124985
0.0293296
0.00129237
0.0187689
0.00442997
0.00529429
0.00946363
0.00990039
0.0108498
0.00778331
0.00868901
0.00863256
0.0127693
0.0139051
0.00797949
0.0116446
0.0151508
0.0282313
0.00987185
0.0146276
0.0301238
0.00888087
0.02023
0.00636285
0.00571228
0.00740696
0.00570736
0.00417358
0.0104534
0.0198146
0.00940044
0.0051836
0.0221785
0.00995077
0.0165194
0.0236101
0.0236826
0.0183845
0.0206718
0.00650596
0.00453821
0.0209775
0.0156139
0.0210604
0.0120753
0.0149999
0.0101864
0.0135863
0.024396
0.00950572
0.0143193
0.0119304
0.019549
0.0166379
0.0173267
0.01741
0.0169144
0.0204053
0.0143163
0.0156075
0.0192716
0.0195931
0.0103175
0.0199137
0.00612134
0.0069166
0.00722188
0.00696847
0.0110527
0.00712383
0.017546
0.0147817
0.0223198
0.0195629
0.0206606
0.0101193
0.00849465
0.00355327
0.00601994
0.0248922
0.00685113
0.00679247
0.0145069
0.0280168
0.0150392
0.0180681
0.0151698
0.0152468
0.0151262
0.0211531
0.0113947
0.0117931
0.014445
0.0152955
0.0211905
0.0184356
0.0105387
0.0190683
0.0186048
0.0132091
0.0241619
0.00639082
0.0175001
0.0221941
0.019242
0.019808
0.00340772
0.00315693
0.0201562
0.0166074
0.0060225
0.00859231
0.018187
0.0211114
0.0198394
0.00879507
0.0227485
0.0067458
0.0235765
0.0192156
0.00346676
0.00100083
0.00779131
0.0196997
0.022624
0.0109884
0.0117769
0.0164474
0.00510975
0.0162506
0.0187866
0.0078723
0.00634773
0.0110242
0.0155645
0.0111844
0.015092
0.00252312
0.0285547
0.0179178
0.0160667
0.0365251
0.00746534
0.0163594
0.0202257
0.00974626
0.0191217
0.00697378
0.0212434
0.00945351
0.00780105
0.0237784
0.0244424
0.0243444
0.0322415
0.0174537
0.0174808
0.0212843
0.0203292
0.00389257
0.0195487
0.021805
0.00176461
0.00633355
0.00636903
0.0184628
0.00547396
0.0220941
0.00297878
0.00872985
0.0100488
0.00932744
0.0211667
0.00674642
0.00610544
0.0135359
0.0054428
0.015482
0.00362514
0.0130778
0.0213102
0.00903691
0.0356121
0.028549
0.012674
0.0116866
0.0164145
0.00315547
0.0246607
0.0191132
0.0188031
0.0180929
0.00757931
0.0275409
0.00568287
0.0148592
0.0201894
0.0181309
0.0203487
0.0065628
0.00760399
0.00788087
0.0083181
0.0214892
0.00622684
0.0222963
0.0296468
0.0303332
0.00941825
0.0207019
0.0232296
0.0053002
0.00260568
0.0226303
0.0047839
0.00679638
0.0210127
0.00582206
0.0185495
0.0183482
0.0275924
0.0103497
0.0211971
0.0103487
0.0195995
0.00603513
0.00795551
0.00674883
0.0135819
0.0138178
0.0202429
0.0222654
0.0137243
0.0355043
0.00391263
0.00951081
0.00862017
0.00463042
0.0137231
0.014696
0.0203756
0.0133475
0.024915
0.0156401
0.00735689
0.0049627
0.00828578
0.0285946
0.0238937
0.0200274
0.0249345
0.0189392
0.00621813
0.00927155
0.00621216
0.00571111
0.00542259
0.00665837
0.0114797
0.000690975
0.0227849
0.00343339
0.025282
0.00675341
0.0211545
0.00590073
0.0216123
0.0228748
0.0173377
0.00834301
0.0334736
0.0224824
0.0176607
0.0169542
0.00570924
0.019941
0.00313031
0.00883018
0.00892805
0.00924061
0.0174315
0.00766351
0.00896184
0.0197783
0.0366905
0.0182195
0.0199915
0.0146651
0.0156627
0.014054
0.0116771
0.0112697
0.0275747
0.0133719
0.00122323
0.019917
0.0362393
0.0129345
0.0270291
0.0156189
0.0185608
0.00817669
0.00674264
0.0211852
0.00772705
0.0169139
0.0169467
0.0206189
0.00508644
0.00626905
0.0220225
0.00935181
0.00334161
0.00398933
0.0152696
0.00530445
0.00949032
0.00999129
0.0230461
0.0225662
0.0244028
0.0230071
0.020072
0.00979632
0.020541
0.00926949
0.0219157
0.0245819
0.00763621
0.0201575
0.00850075
0.0165747
0.0236825
0.0157121
0.0042386
0.0193684
0.053876
0.00421281
0.0126955
0.00861959
0.018807
0.00242453
0.00658349
0.00781697
0.00653866
0.0205528
0.0016715
0.0131145
0.0265655
0.0117344
0.0136193
0.00792066
0.0288102
0.00511724
0.010761
0.0275948
0.0354731
0.0129075
0.018469
0.015052
0.0100348
0.00780959
0.00601535
0.0241834
0.00283716
0.0160244
0.0153957
0.0145553
0.00439008
0.00666636
0.0232623
0.0262839
0.00345282
0.00386853
0.00432689
0.00254852
0.0310278
0.00896101
0.00372659
0.0247943
0.027556
0.0246404
0.00525706
0.0222071
0.020667
0.0234623
0.00267315
0.0275604
0.0276433
-0.000326788
0.0239272
0.023113
0.0240598
0.0153523
0.0256897
0.00118683
0.00422714
0.023304
0.00352519
0.0042752
0.00719813
0.0174672
0.011802
0.02157
0.00144949
0.00772968
0.0123824
0.0259546
0.00166808
0.0205323
0.00317314
0.0358441
0.0362841
0.00860077
0.0518248
0.00883961
0.00880663
0.0143197
0.0146752
0.0101575
0.0139656
0.0372932
0.0102713
0.0201927
0.000870741
0.00916636
0.0141904
0.00807102
0.0230326
0.00175851
0.0055465
0.013904
0.00501952
0.0126316
0.0128802
0.00694255
0.0290664
0.00504937
0.00361651
0.000638129
0.0162119
0.0264663
0.00401181
0.000859674
0.00488653
0.00544426
0.00421805
0.024641
3.40071e-05
0.00171828
0.0011905
0.0221151
0.00279684
0.0231863
0.0237373
0.0247265
0.00732843
0.000165051
0.000463722
0.00376166
0.00111893
0.015222
0.00132867
0.0152061
0.0241078
0.00207365
0.00886535
0.0118971
0.0288942
0.0267124
0.0209877
0.0101011
0.00485257
0.0277656
0.0239054
0.00226534
0.00246931
0.0103647
0.017446
0.00722097
0.00161647
0.000180905
0.00122409
0.0231027
0.0193215
0.00890292
0.0529942
0.0190439
0.0147793
0.0102659
0.0159406
0.0205051
0.0203708
0.014242
0.00910915
0.0114632
0.0118604
0.0193692
0.00444001
0.0138883
0.00166393
0.015157
0.0351617
0.024425
0.0226151
0.0167841
0.0133108
0.0320271
0.0149593
0.0179143
0.00791059
0.0284055
0.0268
0.00396774
0.0147007
0.016676
0.000344058
0.0325149
0.00897263
0.00154044
0.0043838
0.00249867
0.0288862
0.0263759
0.0269174
0.00407636
0.000210023
0.022839
0.0154076
0.0241205
0.0248827
0.0248537
0.00161341
0.000179549
0.0236664
0.0205485
0.021199
0.0249393
0.00142079
0.00895491
0.0364784
0.00519654
0.00291364
0.0256088
0.0145192
0.00617706
0.0233425
0.0229906
0.0186834
0.0108714
0.00719201
0.0170099
0.00978829
0.000557609
0.00096289
0.00192977
0.00723435
0.00277418
0.0289303
0.0103674
0.000789448
0.000862907
0.0221657
0.00787583
0.00100192
0.0537426
0.00729248
0.00873438
0.0116925
0.0132155
0.0112314
0.0143276
0.0135761
0.0090881
0.0104352
0.0150681
0.00957079
0.0089475
0.0101719
0.0134405
0.0255202
0.0145012
0.0137118
0.0224247
0.0289696
0.0244345
0.00688414
0.0134838
0.00389817
0.0152488
0.029882
0.00114611
0.0027983
0.00249189
0.00778476
0.00900985
0.0222522
0.0212364
0.00638543
0.0026317
0.0173816
0.0288075
0.000778581
0.0237183
0.00941382
0.0217786
0.0201019
0.0210628
0.027248
0.0253871
0.0326613
0.0231772
0.0194518
0.0242661
0.0218373
0.0225705
0.00815127
0.0284031
0.0080267
0.00213458
0.00536563
0.0220347
0.000178687
0.0183234
0.00434681
0.00606734
0.0183402
0.0110502
0.0273443
0.00514562
0.0192233
0.00624264
0.0315264
0.00912511
0.000969124
0.00136265
0.025777
0.0172307
0.00115326
0.00287126
0.00169601
0.0055603
0.000752715
0.000400995
0.0217401
0.0209983
0.000336293
0.0210932
0.0186994
0.0225473
0.0123975
0.0123045
0.0099306
0.0159037
0.0166047
0.00778772
0.00125115
0.0145675
0.0199175
0.0147388
0.0273182
0.024385
0.014587
0.0236091
0.00907022
0.0365712
0.0042958
0.0239517
0.0143243
0.000188848
0.0162966
0.0041681
0.00863943
0.00364292
0.00369321
0.0183772
0.0259229
0.00641645
0.0230051
0.00104424
0.00119137
0.00105641
0.030214
0.0303483
0.0288763
0.03108
0.0256644
0.0237066
0.00800795
0.0052543
0.00883982
0.00233274
0.0169365
0.00760255
0.0199866
0.0110488
0.00884257
0.00278743
-9.01361e-05
0.00648086
0.00346143
0.026953
0.0117615
0.00637929
0.00610463
0.0113207
0.00116997
0.0189521
0.00618502
0.0237175
0.00458137
0.00312331
0.0156411
0.0155964
0.0240731
0.0286567
0.0251688
0.0192222
0.0108607
0.0117669
0.0228093
0.000237635
0.00121744
0.022439
0.0229127
-8.09923e-05
0.000573256
0.0032956
0.0226136
0.00605278
0.0137804
0.0291779
0.0283572
0.0145139
0.0339934
0.0109689
0.00952421
0.00979446
0.00636813
0.0039554
0.0238007
0.00404108
0.0145828
0.017646
0.0268781
0.00850854
0.00976948
0.00933909
0.021623
0.0218943
0.0219957
0.0311581
0.00292762
0.0252557
0.0249267
0.0254458
0.0138431
0.000527569
0.0298125
0.0307801
0.0283817
0.0167693
0.0177103
0.0193698
0.0180697
0.021463
0.0165436
0.000649125
0.0226468
0.0105529
0.00728751
0.02301
0.00174559
0.00104696
0.0040288
0.00375732
0.0275855
0.0111345
0.00411876
0.00572931
0.0100181
0.0204266
0.00961144
0.00884221
0.0184743
0.0129337
0.000435955
0.023759
0.0150767
0.0249091
0.0126316
0.00262893
0.0193749
0.0192385
0.000959733
0.0111283
0.0103764
0.000824385
0.000984646
0.0235328
0.0270375
0.0109418
0.0140772
0.00165178
0.0250487
0.0311626
0.0261001
0.0180507
0.00845143
0.0242767
0.0184332
0.00981504
0.0135722
0.00758761
0.00766812
0.0122582
0.0231635
0.00422536
0.0151491
0.00961282
0.00868355
0.000312934
0.0258388
0.010205
0.0267037
0.00740828
0.0218756
0.025302
0.0125842
0.0126752
0.0263716
0.0213572
0.02398
0.00933471
0.0108224
0.0212414
0.0202903
0.0160824
0.0170081
0.0247193
0.0253189
0.0332266
0.0196027
0.0221099
0.00144682
0.00100097
0.0226437
0.0206809
0.0106327
0.024519
0.00355477
0.0173533
0.0192985
0.0241668
0.00301054
0.0248085
0.0225698
0.0268834
0.0255205
0.0267114
0.0126598
0.0229695
0.0102255
0.0176092
0.0171549
0.0163033
0.0277465
0.0257259
0.0249058
0.021073
0.0114772
0.0149619
0.0164595
0.0252916
0.0162541
0.000113639
0.0263655
0.0289851
0.0137204
0.011647
0.00485733
0.00357547
0.00967559
0.0255624
0.00803445
0.00863428
0.0314144
0.0128846
0.00481229
0.0066392
0.000607013
0.012288
0.0139292
0.0126576
0.0235126
0.000902963
0.0272508
0.0024063
0.0265129
0.0256245
0.0312593
0.0121225
0.0124183
0.0106366
0.0198728
0.0176528
0.0207409
0.0318227
0.0232058
0.024603
0.0162455
0.0197912
0.0117784
0.0207564
0.0180588
0.00395109
0.00352744
0.0146208
0.00122736
0.0104181
0.0274266
0.0288832
0.0053247
0.0265808
0.0173552
0.0279291
0.0153095
0.0157695
0.00216268
0.0011717
0.0203568
0.0183769
0.00891413
0.0117246
0.0110454
0.0170592
0.0118313
0.0230584
0.0247485
0.0316236
0.0243475
0.026302
0.0159794
0.0112619
0.0131715
0.00117286
0.0022477
0.00434772
0.0116028
0.0104505
0.0183406
0.0108004
0.0192983
0.0218366
0.0241732
0.0112026
0.00702528
0.0324257
0.0170312
0.0289378
0.0285675
0.012797
0.0292086
0.00303246
0.0244943
0.00741773
0.0139978
0.00560904
0.0108439
0.0120639
0.0277046
0.0281183
0.000861319
0.0253521
0.0301572
0.0345531
0.0113034
0.0213058
0.0244653
0.0248699
0.0100508
0.0108324
0.0230394
0.0348087
0.0229513
0.00426293
0.0203176
0.0340673
0.0197445
0.0195912
0.0189414
0.00940264
0.0285784
0.0246609
0.0288113
0.00256689
0.0204882
0.00174945
0.0170784
0.0241976
0.00518482
0.0243052
0.0074574
0.0231559
0.0314877
0.0136657
0.000707852
0.0153806
0.0165567
0.000958061
0.0102261
0.0104341
0.0163308
0.0119258
0.0331616
0.0265511
0.0104771
0.010354
0.0257097
0.0144894
0.0244516
0.032198
0.0249349
0.000944728
0.000889066
0.02636
0.0228895
0.0161019
0.0178499
0.020496
0.0169639
0.0176249
0.028708
0.0252567
0.0303141
0.0227671
0.0199567
0.00288974
0.029213
0.00386171
0.0110887
0.0272784
0.0291968
0.0236073
0.012384
0.0110386
0.000617175
0.0255391
0.015922
0.0270471
0.0149136
0.0285993
0.0303262
0.0191824
0.0204838
0.0122788
0.00600771
0.0330713
0.015833
0.0203231
0.01576
0.01459
0.0210647
0.0334761
0.0193909
0.0182785
0.0360046
0.0031718
0.0282828
0.017498
0.0348194
0.0181339
0.0145967
0.0281226
0.0287338
0.00522083
0.0108355
0.00605201
0.00739169
0.0248557
0.0132329
0.0143774
0.000626518
0.0115265
0.0417277
0.0118055
0.0123751
0.0170154
0.0175584
0.0166322
0.026195
0.0268244
0.0194828
0.010437
0.0265782
0.0149579
0.027549
0.0246911
0.0248733
0.0274354
0.0280182
0.0257756
0.00989845
0.000859625
0.0293754
0.00895398
0.0309775
0.0344865
0.0323107
0.0118275
0.0295237
0.0198437
0.00319261
0.00262204
0.00434886
0.0264107
0.0273818
0.0271827
0.0252308
0.0300977
0.0123084
0.0102701
0.0276276
0.0306899
0.0146636
0.0272451
0.0292358
0.0194333
0.0113253
0.0332174
0.0296546
0.0255695
0.0207778
0.0264848
0.0216491
0.0285585
0.00244147
0.0214949
0.0255481
0.0292507
0.0209515
0.0277327
0.0139765
0.0349893
0.0219166
0.00297919
0.0265311
0.00640004
0.000226295
0.00604696
0.0209211
0.0178058
0.0206631
0.0264657
0.0287795
0.0110026
0.0228282
0.0130694
0.0178035
0.0168042
0.0165949
0.0102254
0.0270618
0.0182325
0.018861
0.0268575
0.0189211
0.00945274
0.00908523
0.0189724
0.0199075
0.0181267
0.0252541
0.0258084
0.00151448
0.017872
0.0268686
0.0256844
0.0186
0.0189972
0.0156358
0.0193913
0.0338519
0.00168165
0.00934842
0.0281829
0.00439374
0.0124911
0.0134908
0.0128913
0.031444
0.0332952
0.00418509
0.0340467
0.0302802
0.0217459
0.021691
0.0307747
0.0224619
0.0284901
0.0267218
0.00542783
0.0119549
0.0323869
0.000602455
0.000915088
0.0309237
0.0288391
0.00503525
0.0305929
0.0225082
0.0198055
0.012869
0.0290367
0.0283873
0.0103571
0.0268746
0.0249959
0.0220152
0.0196698
0.00125915
0.00214505
0.00148344
0.0226296
0.0259621
0.0167182
0.0295698
0.0327027
0.0161687
0.0143911
0.0101262
0.00606541
0.0358113
0.000190869
0.00413942
0.0129794
0.00160552
0.00038995
0.000722434
0.0138338
0.0101517
0.00129813
0.0445918
0.0281412
0.0213668
0.0329525
0.0184407
0.0353332
0.00580452
0.0114225
0.0119277
0.0340218
0.0340698
0.0184865
0.00970277
0.0194242
0.0175362
0.0228896
0.0212403
0.0221414
0.0258606
0.00197828
0.0275698
0.0278661
0.028084
0.0273395
0.0229535
0.0226362
0.0174501
0.0160478
0.0293736
0.0255041
0.00828885
0.00648966
0.0173255
0.0247544
0.0330172
0.00809061
0.0093114
0.00969861
0.0246626
0.0311302
0.0327768
0.0321416
0.00266158
0.0016051
0.0306112
0.00100171
0.0300926
0.0313042
0.00638902
0.00884138
0.00396971
0.0292945
0.0111731
0.0257317
0.0202309
0.0203828
0.0316088
0.032205
0.0145497
0.0353577
0.0350026
0.0238664
0.0219508
0.000171581
0.000888774
0.0243569
0.0220819
0.026686
0.0346123
0.0525883
0.0352829
0.0277918
0.035282
0.028
0.00353056
0.025835
0.0297715
0.00406648
0.0278894
0.0068652
0.000812112
0.027365
0.00101943
0.0128247
0.013923
0.0137721
0.0126921
0.000620752
0.00273741
0.00881305
0.0334893
0.0311948
0.0226832
0.0135245
0.0170855
0.0108226
0.0136065
0.0100413
0.0131362
0.0128732
0.0116362
0.0239757
0.0205352
0.0275256
0.0204125
0.0275652
0.00197949
0.026973
0.00144923
0.0356289
0.0278479
0.0182199
0.02295
0.0111858
0.0146265
0.00509637
0.00379688
0.00897446
0.00606877
0.0165287
0.0269911
0.0126718
0.02119
0.0193273
0.0076829
0.0190458
0.0333871
0.00188413
0.00434136
0.00182398
0.0220611
0.0313986
0.0254201
0.00826746
0.0065773
0.0308978
0.00403592
0.0310524
0.0294415
0.0535638
0.0311711
0.0308261
0.0352176
0.032976
0.0317334
0.0247421
0.00641253
0.0256094
0.00610296
0.0262267
0.0271937
5.3885e-05
0.0331828
0.0155415
0.00311884
0.0260816
0.0327983
0.025712
0.0294792
0.0257116
0.0130516
0.0159388
0.0247355
0.0279278
0.0305246
0.0327492
0.00102984
0.00438303
0.0209145
0.0276577
0.0259458
0.0230161
0.0241563
0.00177041
0.0230346
0.0124439
0.0130806
0.0127013
0.0110897
0.0147277
0.0177216
0.000760336
0.028209
0.0293702
0.0248816
0.00165078
0.0292082
0.0178002
0.0187371
0.0211795
0.0220777
0.0257554
0.0201693
0.0453799
0.00522208
0.0183656
0.0285137
0.0220322
0.0220579
0.00431781
0.0201139
0.0312841
0.0352447
0.0257927
0.0118692
0.0303937
0.0109144
0.0202941
0.0323471
0.0341651
0.020321
0.034496
0.0341565
0.0339748
0.031663
0.0214643
0.0329557
0.0311724
0.0272861
0.0122961
0.024618
0.00973124
0.00275605
0.0252608
0.00801161
0.0320894
0.0326937
0.0318646
0.0296681
0.0188484
0.0298528
0.0337152
0.0106023
0.00746248
0.0146656
0.0361532
0.0246655
0.0237483
0.00614767
0.00538692
0.0284452
0.00182518
0.0173505
0.035429
0.030434
0.0259907
0.0267789
0.0161142
0.0142467
0.00381065
0.0275733
0.000442155
0.0101017
0.0308292
0.00141552
0.00386579
0.0059613
0.00791036
0.00466287
0.0218593
0.0244171
0.0285235
0.0187584
0.0115587
0.041285
0.0115118
0.0133082
0.0141633
0.0297069
0.0268383
0.0336714
0.0303696
0.00961268
0.0169692
0.0165414
0.0165042
0.0192478
0.0233121
0.0234041
0.0272008
0.025934
0.0241441
0.017801
0.0132491
0.0135187
0.0033567
0.0255723
0.0304132
0.0109211
0.00452242
0.0457081
0.017282
0.0312045
0.0210119
0.0316114
0.037948
0.0245348
0.0110661
0.00943179
0.0202904
0.0336066
0.0322129
0.008373
0.0357473
0.000404504
-0.000167566
0.0308431
0.0343659
0.0172456
0.0142728
0.0288574
0.00746842
0.0322147
0.0346907
0.0140109
0.0283366
0.0295081
0.0438844
0.00797693
0.0332504
0.0195612
0.0203609
0.0279661
0.0333127
0.00385645
0.026138
0.035697
0.0347846
0.037174
0.0080258
0.0291804
0.0284129
0.00412624
0.023058
0.0332945
0.0238461
0.0034374
0.0103994
0.022033
0.0072327
0.0241043
0.0103436
0.000912754
0.00117169
0.0147182
0.00423413
0.0316915
0.0185758
0.00820874
0.0142291
0.0329068
0.0329519
0.0291735
0.0305097
0.0323884
0.0187362
0.00340837
0.00707139
0.0162249
0.0276286
0.0277179
0.0284672
0.0288101
0.0198041
0.0193623
0.0175236
0.0239958
0.0213343
0.0214572
0.0231334
0.0350132
0.0252639
0.027693
0.0236584
0.026235
0.0259514
0.0131885
0.0254594
0.0199701
0.0123562
0.0179382
0.0404605
0.0201996
0.0450624
0.0266036
0.0078024
0.0120744
0.0233965
0.0382445
0.0215487
0.0203339
0.00918939
0.0267363
0.00093821
0.00235984
0.000480128
0.0332177
0.0329792
0.0334772
0.0172716
0.0362086
0.00648939
0.0343404
0.0347828
0.0334342
0.00356254
0.0381957
0.0337335
0.00264572
0.0357373
0.0203522
0.0213064
0.0200688
0.0278236
0.0302367
0.0248182
0.0261352
0.0275861
0.0171672
0.0165766
0.00432007
0.0347766
0.0273836
0.0313133
0.0238728
0.0304359
0.0340632
0.0127119
0.03273
0.00340415
0.0244559
0.0116123
0.0013747
0.000250594
0.0147753
0.0306145
0.0116424
0.0279407
0.0284146
0.00962366
0.02984
0.0112251
0.0358378
0.028416
0.0353337
0.0266392
0.0145402
0.0281518
0.0294436
0.0327061
0.00759444
0.028974
0.0289351
0.0303669
0.0326789
0.0233529
0.0307929
0.0248505
0.00341535
0.0294987
0.00756167
0.022101
0.0232957
0.0160244
0.0255072
0.0385768
0.0195414
0.0180838
0.0190147
0.0132673
0.0247482
0.00927017
0.0165006
0.0303187
0.0144609
0.0285856
0.00863577
0.0306093
0.0255421
0.00802839
0.0216566
0.0318824
0.0084778
0.0251357
0.0165558
0.00228463
0.000333977
0.00233993
0.0320213
0.0210409
0.023987
0.0183166
0.0179559
0.0321087
0.0348406
0.0336891
0.0256106
0.0331963
0.0271283
0.0351489
0.0184937
0.0358064
0.0355683
0.0355359
0.0344058
0.0334912
0.00405294
0.0281112
0.0335444
0.0256626
0.0231553
0.0373253
0.0335913
0.0169444
0.0348846
0.00357028
0.0317165
0.0331124
0.0232124
0.0221117
0.0300168
0.0313684
0.0299033
0.00151939
0.0349633
0.026391
0.0100016
0.00059848
0.0345937
0.0106964
0.00451585
0.00295598
0.000420305
0.0247956
0.00795544
0.0416659
0.0126844
0.0297717
0.016005
0.0121426
0.0174408
0.0290989
0.0125028
0.0344551
0.0287126
0.0169323
0.0323296
0.0288612
0.0248325
0.0387541
0.0261939
0.0332681
0.0214483
0.035907
0.0213213
0.0211663
0.00450526
0.0268847
0.0255253
0.027063
0.0311329
0.0228373
0.036022
0.02696
0.0261988
0.00371174
0.00813881
0.036188
0.0190992
0.00713079
0.0192684
0.0478098
0.0116369
0.0373922
0.00874298
0.00169044
0.0143969
0.0149729
0.0133292
0.0247838
0.00773643
0.0230862
0.0288482
0.0206798
0.00697714
0.00758896
0.0338427
0.0021758
0.0252413
0.0234808
0.0156437
0.0316031
0.0376999
0.0164516
0.0315545
0.0295256
0.0261743
0.000537434
0.0254948
0.0284843
0.0336545
0.0344147
0.0388938
0.036069
0.00454159
0.00302513
0.0364269
0.00442439
0.032669
0.034988
0.0324479
0.00708506
0.0399385
0.0154307
0.0289983
0.0348056
0.0314014
0.0323341
0.0310589
0.0295732
0.027071
0.0159481
0.0296908
0.0224493
0.00264651
0.0147416
0.0324661
0.0295285
0.038308
0.0404357
0.00211593
0.021138
0.00348061
0.00662051
0.0340179
0.00656296
0.00560884
0.0357299
0.00827552
0.013931
0.0206507
0.0344061
0.000384325
0.0337209
0.0290174
0.0160935
0.0331709
0.0352484
0.0182968
0.0332274
0.0269403
0.0357474
0.0331448
0.0326094
0.0240791
0.036963
0.0257689
0.00755136
0.00796212
0.0358927
0.026751
0.0328234
0.0398744
0.0295156
0.0314899
0.0393151
0.00792088
0.0357373
0.0348995
0.0358627
0.019729
0.0516675
0.00609565
0.0102107
0.0159627
0.0147223
0.038745
0.0117477
0.0284668
0.0225962
0.0235974
0.0220693
0.00811039
0.0146129
0.0094938
0.0336799
0.00163009
0.0358579
0.0365161
0.0370497
0.0175272
0.0307071
0.0459334
0.0285266
0.00260365
0.0327818
0.0111495
0.0138753
0.0377488
0.017743
0.0372816
0.0378995
0.0253576
0.00414234
0.033611
0.0323109
0.0334896
0.0249723
0.033093
0.0330607
0.0319322
0.0281814
0.0290213
0.0298621
0.0300116
0.0247139
0.0230294
0.00230715
0.0344516
0.0208935
0.022339
0.0243896
0.0124608
0.0104789
0.0415337
0.032284
0.0295616
0.0376294
0.038916
0.0146709
0.00604946
0.0101426
0.0407297
0.0210348
0.0107851
0.0347995
0.00916369
0.030325
0.0174825
0.00774556
0.00739788
0.0285162
0.0166307
0.0312304
0.00130221
0.027539
0.00293913
0.0297915
0.0171272
0.0249294
0.0255485
0.0242509
0.0313406
0.0303881
0.0342209
0.0106483
0.0469492
0.0452755
0.0397085
0.0272805
0.0270298
0.0211062
0.0285859
0.0319585
0.033596
0.0383913
0.000154389
0.0149933
0.0165731
0.0507553
0.0343665
0.00429231
0.0353579
0.00443387
0.0202357
0.0231975
0.0142412
0.0104044
0.0399139
0.0322425
0.0110688
0.0218115
0.0411975
0.0141057
0.00876002
0.000752619
0.0201519
0.00302756
0.0370882
0.00880648
0.039352
0.0468554
0.0120242
0.0327907
0.000452753
0.000480517
0.0114663
0.0380053
0.0379619
0.0361848
0.0321046
0.00244712
0.0247755
0.0530999
0.0237868
0.0319294
0.0304524
0.0316376
0.03209
0.0254319
0.0351918
0.0311187
0.0110121
0.0027355
0.00307212
0.00308097
0.0298679
0.0333899
0.0187685
0.0333371
0.00795202
0.00823327
0.00935387
0.0287834
0.0389082
0.0384032
0.0403299
0.0227664
0.0114262
0.0353588
0.0108138
0.028593
0.031026
0.0321715
0.0175809
0.0353066
0.0160462
0.0292566
0.0303883
0.0290717
0.0154243
0.0218366
0.0540697
0.0136542
0.00351122
0.0277321
0.0237381
0.0295653
0.0191902
0.0223414
0.0240628
0.0256756
0.021251
0.0309452
0.0449579
0.0230793
0.0347641
0.0160796
0.0284861
0.021754
0.0274886
0.0298479
0.0282413
0.0380934
0.00548442
0.0373972
0.0247351
0.00120502
0.0162839
0.0392134
0.0350835
0.0208419
0.00497315
0.0317151
0.0115457
0.0403724
0.01159
0.0328245
0.0310471
0.036613
0.0277202
0.0337368
0.0230461
0.00390542
0.0302065
0.00351901
0.0367136
0.000377742
0.00124007
0.00777275
0.00285165
0.0251433
0.0013459
0.0406997
0.0409782
0.0343836
0.0353834
0.0385639
0.0386032
0.0373198
0.0378405
0.0106373
0.0411555
0.0371712
0.00827359
0.0352165
0.0433608
0.0243595
0.00017304
0.0339104
0.036894
0.0317149
0.0295523
0.0333281
0.0396911
0.0038231
0.0349433
0.00173834
0.000966269
0.000153839
0.0304232
0.021559
0.00944016
0.0177286
0.0346169
0.0509581
0.0242664
0.0316156
0.0324615
0.0394708
0.00318953
0.0536266
0.0363787
0.0106402
0.02588
0.0126206
0.0271676
0.0334779
0.012848
0.0359098
0.0279585
0.0152439
0.0238626
0.0146603
0.0294948
0.0237568
0.0378077
0.0388326
0.0111874
0.0202557
0.0244912
0.0239335
0.0324339
0.0457896
0.0166254
0.0323255
0.0246916
0.0163822
0.0210042
0.041281
0.0231863
0.0213635
-0.000100606
0.0438255
0.0429945
0.00142554
0.0353752
0.00275267
0.0266411
0.0405413
0.00611344
0.0376155
0.0375958
0.0399613
0.0383489
0.0308057
0.0316486
0.0345777
0.00949635
0.0332926
0.0116321
0.00314077
0.0177276
0.00482681
0.0315739
0.0342609
0.0146923
0.0146974
0.0179068
0.0400969
0.00457937
0.034217
0.0204747
0.039577
0.0280321
0.0387244
0.0373054
0.0417357
0.0370728
0.00174086
0.0246696
0.0369028
0.0257491
0.0335527
0.032368
0.00688056
0.038895
0.0295068
0.0407902
0.000137391
0.0371206
0.00943301
0.020047
0.00271625
0.031602
0.0306657
0.0479755
0.029278
0.0098555
0.0363046
0.0346625
0.00109628
0.000752973
0.0473208
0.0324118
0.0113706
0.0525644
0.0130203
0.0204818
0.0353707
0.00049243
0.00412793
0.0535512
0.0103844
0.0155102
0.0153393
0.0252354
0.0345876
0.0200216
0.014606
0.035356
0.0397817
0.0368218
0.0343419
0.0202457
0.0346215
0.0243321
0.0149612
0.0305112
0.030071
0.0244216
0.0276152
0.0200852
0.0188698
0.0349314
0.0359221
0.03641
0.0303388
0.043076
0.0292758
0.0303835
0.0285674
0.0299783
0.0362335
0.0260865
0.00587924
0.0394454
0.038215
0.0356075
0.00613142
0.0339832
0.0295518
0.0331111
0.030133
0.0404923
0.0353953
0.00470426
0.0143877
0.0400405
0.0403922
0.0436227
0.00393394
0.0195423
0.0137396
0.0372816
0.0360648
0.0386703
0.0432528
0.0436452
0.0374922
0.042833
0.0369627
0.0363899
0.023415
0.0386087
0.032719
0.0428547
0.0517196
0.0324116
0.0303017
0.05351
0.0267844
0.0191423
0.039917
0.0220201
0.0427938
0.00125341
0.0332815
0.0206053
0.0493817
0.0320772
0.0305464
0.0407791
0.0196683
0.00134344
0.0180982
0.0497165
0.000410909
-0.000128593
0.0328079
0.0128777
0.0138495
0.013647
0.00981937
0.00835077
0.00931208
0.00759657
0.0147084
0.0380774
0.0426725
0.00441511
0.038415
0.0340781
0.00348748
0.0322003
0.0393939
0.0399262
0.0225601
0.0277157
0.0212673
0.039061
0.0220847
0.0341086
0.0303266
0.0225288
0.0313254
0.0383006
0.0217301
0.0213333
0.0310668
0.0305204
0.0258527
0.0416717
0.00495572
0.043861
0.0265711
0.0228433
0.0251054
0.0394434
0.0172974
0.0133603
0.0396159
0.0351053
0.0360567
0.0385667
0.0492211
0.0445874
0.0398496
0.0359476
0.0392773
0.0413677
0.0400339
0.0248549
0.042048
0.0402392
0.0117369
0.0359868
0.0266796
0.0419761
0.0348209
0.0413358
0.0208332
0.0371828
0.0262745
0.030568
0.0386742
0.0418435
0.0114132
0.0341531
0.0271468
0.0262783
0.027723
0.0428511
0.034994
0.0369575
0.000786632
0.0313858
0.000143005
0.0368226
0.00318198
0.0504264
0.0127871
0.0260954
0.0103199
0.00996182
0.00896516
0.033847
0.0368414
0.0253447
0.0259579
0.033796
0.0230946
0.0387094
0.0397116
0.0288526
0.043587
0.037789
0.04385
0.0379788
0.0354483
0.0408565
0.0230903
0.0298649
0.0308967
0.024561
0.00561603
0.0412072
0.0405096
0.0479761
0.0125768
0.0378392
0.033683
0.0134322
0.0306345
0.0374651
0.0326387
0.0426855
0.0405333
0.0386882
0.0421605
0.0313443
0.0402886
0.0420056
0.0406473
0.0398919
0.0332871
0.0372758
0.0294636
0.0432053
0.0361349
0.0536285
0.0528517
0.0348156
0.0426955
0.0342528
0.0336447
0.0327647
0.0279824
0.039537
0.0350402
0.0378343
0.0395986
0.0432896
0.0380499
0.032418
0.0361404
0.0361832
0.0422355
0.0349617
0.0373576
0.0397835
0.0412973
0.00299097
0.0381147
0.00409098
0.00469987
0.00515699
0.00258855
0.0375657
0.00810424
0.000885273
0.0275887
0.0372825
0.0509336
0.0518233
0.0430786
0.0344228
0.0421724
0.0229825
0.0474475
0.0305021
0.0334688
0.0365077
0.0395096
0.025871
0.0389989
0.040658
0.0295305
0.0316277
0.0406631
0.0319303
0.0469098
0.0408724
0.0453579
0.014057
0.00254387
0.0377838
0.0374231
0.0367874
0.045543
0.0385989
0.0464224
0.0386788
0.0416584
0.0244854
0.0433306
0.0312718
0.0418117
0.0331435
0.0423326
0.0435003
0.0264885
0.0384097
0.028534
0.0398568
0.0283849
0.0402152
0.0349524
0.0336154
0.0402327
0.0388253
0.0349983
0.0387368
0.026631
0.046484
0.0362489
0.0385231
0.0397711
0.0414352
0.0113589
0.0280283
0.041953
0.00416359
0.00555135
0.0428509
0.0376012
0.000653944
0.051128
0.033984
0.0471439
0.037022
0.0322588
0.0322976
0.0445267
0.0372595
0.031943
0.0336288
0.0362575
0.0372263
0.0368612
0.0479271
0.040929
0.0411509
0.0276694
0.027761
0.0433631
0.0350042
0.0410447
0.0410578
0.0463441
0.0509183
0.0488061
0.0325188
0.0433478
0.0342093
0.0402618
0.0393287
0.0337001
0.0154646
0.0427047
0.0514811
0.0418337
0.0321335
0.0370189
0.0321418
0.0529888
0.0296628
0.0380705
0.0322397
0.0337585
0.0403553
0.0426836
0.0340467
0.0408309
0.0400355
0.0363123
0.0415
0.040272
0.0402473
0.0360205
0.0433153
0.0435778
0.0428053
0.0367228
0.0421951
0.0423421
0.0419164
0.0133859
0.0429146
0.0304574
0.0314653
0.0386561
0.0462728
0.0307631
0.0373927
0.0433862
0.0366744
0.0375337
0.0324151
0.048635
0.0361529
0.0425242
0.0308256
0.0308934
0.0371759
0.0430595
0.0306303
0.0365867
0.0362346
0.0423669
0.0430859
0.0366189
0.0370074
0.0461777
0.0460914
0.0378929
0.0455152
0.0446286
0.0401234
0.0457135
0.0187439
0.0455261
0.0430436
0.0423014
0.0427688
0.0409257
0.0427567
0.0472722
0.0385692
0.0425795
0.0339415
0.0389032
0.0349826
0.0401766
0.0401936
0.0487369
0.0409671
0.048408
0.0485592
0.0348189
0.0397739
0.0416851
0.0279877
0.0359061
0.037279
0.0373091
0.0474348
0.0412845
0.0322749
0.0367952
0.030117
0.0439849
0.030607
0.0320811
0.0367011
0.0375108
0.0380396
0.0425748
0.0420001
0.0426178
0.035409
0.0312205
0.0334301
0.0418
0.0435575
0.0286688
0.0428731
0.048627
0.0451731
0.0360035
0.0416051
0.0405919
0.0422535