/*--------------------------------*- C++ -*----------------------------------*\
| =========                 |                                                 |
| \\      /  F ield         | OpenFOAM: The Open Source CFD Toolbox           |
|  \\    /   O peration     | Version:  2212                                  |
|   \\  /    A nd           | Website:  www.openfoam.com                      |
|    \\/     M anipulation  |                                                 |
\*---------------------------------------------------------------------------*/
FoamFile
{
    version     2.0;
    format      ascii;
    arch        "LSB;label=32;scalar=64";
    class       surfaceScalarField;
    location    "0.018";
    object      phi;
}
// * * * * * * * * * * * * * * * * * * * * * * * * * * * * * * * * * * * * * //

dimensions      [0 3 -1 0 0 0 0];

oriented        oriented;

internalField   nonuniform List<scalar> 
68568
(
-1.42424e-07
1.47357e-07
-2.79122e-08
2.29796e-08
1.37807e-07
-7.02473e-08
-7.34858e-08
5.926e-09
1.66072e-07
-1.27164e-07
-5.66462e-08
1.7738e-08
-4.33299e-09
2.20556e-09
-1.58634e-07
1.60761e-07
-1.31862e-09
1.33118e-07
1.0006e-09
-1.328e-07
1.31911e-07
-4.69234e-10
-1.20817e-07
-1.06242e-08
7.86613e-08
-8.40214e-08
1.22915e-07
-1.17555e-07
-3.71238e-08
-2.53323e-08
1.41117e-07
1.23451e-07
-1.47281e-08
-1.04102e-07
-4.62e-09
1.41717e-07
5.02217e-08
-5.41319e-08
9.48828e-08
1.29776e-07
-5.85869e-08
-6.08853e-08
-1.89945e-07
1.80583e-07
-1.33055e-07
6.50726e-08
-5.50355e-09
1.72243e-07
-1.77759e-07
1.32132e-08
-7.6967e-09
-6.69443e-08
-4.8996e-08
1.1482e-07
1.1205e-09
1.20576e-07
8.33575e-08
-1.23786e-07
-8.01477e-08
-4.81878e-08
-7.43718e-08
1.08699e-07
1.38604e-08
1.07225e-07
-1.12024e-07
-4.33884e-08
1.05458e-07
-4.38913e-09
-5.63294e-10
-1.00506e-07
8.13651e-08
-1.46356e-07
7.3369e-08
-8.37852e-09
1.07815e-07
-4.81701e-10
-1.07312e-07
-2.13235e-11
-1.67018e-08
8.59124e-09
1.32378e-07
-1.24267e-07
-4.34773e-08
1.79426e-07
-2.59088e-08
-1.1004e-07
-6.02856e-10
-3.10583e-10
-1.29223e-07
1.30136e-07
-7.1612e-08
-4.6197e-08
1.11266e-07
6.54348e-09
-9.26049e-08
-3.77465e-08
-1.20728e-08
-6.18505e-08
1.35e-07
8.21536e-09
7.37391e-08
4.40545e-08
-2.80793e-08
-8.97141e-08
-6.44998e-08
-9.55025e-08
1.22879e-07
4.60838e-08
-1.14072e-07
3.48803e-09
1.45197e-07
-7.78144e-08
-1.3674e-07
6.93581e-08
-1.27637e-08
2.45548e-09
1.12225e-07
-1.01917e-07
1.48877e-07
-3.12057e-08
-1.05892e-08
-1.07083e-07
1.14418e-07
-8.80293e-08
-5.59427e-08
2.95538e-08
-2.10599e-10
1.04928e-07
-1.04723e-07
5.68663e-12
1.15634e-07
8.16027e-08
-8.1844e-08
6.60007e-10
-4.18665e-10
4.06807e-08
-1.51318e-07
8.81931e-08
2.24444e-08
-1.54705e-07
1.34507e-07
6.08789e-08
-7.11693e-08
-1.47173e-10
-2.95616e-10
-7.93057e-10
1.09547e-07
-9.39105e-10
1.07879e-07
-1.07665e-07
-3.94137e-10
1.79696e-10
-2.54612e-08
-1.51071e-07
1.13709e-07
1.84052e-07
-1.40344e-07
-1.57416e-07
-5.84909e-08
-9.84781e-08
2.77545e-07
-1.38827e-07
1.56185e-07
-1.31256e-07
1.13898e-07
-1.19044e-07
6.34478e-08
-5.28902e-09
1.09392e-07
-1.06778e-07
-3.40087e-09
7.87446e-10
9.37038e-08
2.41307e-08
1.11474e-08
-1.28982e-07
2.03655e-09
-1.45812e-07
1.41234e-07
3.2773e-08
-2.81949e-08
-7.89416e-09
-8.99998e-08
9.75279e-08
3.66103e-10
-1.78093e-07
1.31205e-07
1.75065e-07
-1.26697e-07
-3.67537e-10
-2.96342e-10
1.81039e-09
-1.51674e-09
1.03561e-07
-1.03854e-07
3.77365e-08
-1.09957e-07
-2.15139e-09
8.83587e-08
-9.44289e-08
3.54649e-09
2.52376e-09
-8.17349e-08
1.35973e-07
-6.00861e-08
5.8478e-09
1.40636e-07
-7.29222e-08
-7.10748e-08
3.36069e-09
8.74314e-08
-8.76e-08
-4.34239e-10
-1.06619e-07
-1.78029e-09
1.10605e-07
7.20987e-08
6.80765e-08
-7.33831e-09
-1.32837e-07
-5.63646e-09
1.29804e-07
-1.24868e-07
7.00823e-10
8.50617e-08
-1.43905e-07
-3.00752e-09
1.03488e-07
-1.72933e-08
3.21268e-08
-1.18321e-07
1.42648e-07
-2.21495e-08
-1.61673e-07
4.1174e-08
3.89967e-08
7.78912e-08
-1.14296e-08
6.16922e-08
-1.22213e-07
6.71663e-08
-6.64556e-09
1.29175e-07
-1.30394e-07
-9.91246e-11
-9.57851e-08
1.36544e-07
-3.0264e-08
-1.04949e-08
-1.96072e-07
-1.44429e-07
2.75535e-07
6.49659e-08
-1.09832e-07
2.43202e-09
1.12627e-07
-6.44052e-09
1.2968e-07
-1.37536e-07
-5.13106e-08
5.9167e-08
-1.20242e-07
6.21343e-08
6.40246e-08
-5.91674e-09
-7.48548e-08
-4.79544e-08
-4.65662e-08
-9.71366e-08
9.74053e-08
-2.47646e-10
-2.10631e-11
3.81693e-08
1.66339e-07
-6.38721e-08
1.00614e-07
-6.01019e-08
4.78466e-08
-7.01273e-08
-7.7088e-08
1.43294e-07
3.92085e-09
-5.26425e-10
-2.09119e-07
-5.73889e-10
2.10219e-07
7.13091e-08
-4.45548e-08
8.11247e-08
-8.16651e-11
6.24708e-08
-6.239e-08
8.46279e-13
-1.81562e-08
1.33909e-07
6.36698e-08
-1.79422e-07
1.62892e-07
-8.22686e-08
-8.55306e-08
4.90692e-09
1.14856e-07
3.61181e-08
-3.46151e-08
-1.16359e-07
1.55533e-07
-7.34387e-08
7.28654e-08
-1.54959e-07
3.35491e-08
1.25201e-08
1.09463e-07
-8.48916e-08
8.09031e-08
-1.54645e-07
1.19755e-07
7.27217e-10
-1.16594e-07
-3.88838e-09
-3.77269e-08
-2.6725e-07
1.85933e-07
8.05348e-08
8.20776e-08
-6.42716e-09
-5.51704e-10
4.56109e-10
8.9536e-08
-8.94404e-08
-1.18534e-07
1.18515e-07
-2.91703e-10
-5.75721e-08
1.15107e-07
5.91338e-09
6.90374e-09
8.32641e-08
-4.64279e-09
-8.55251e-08
-1.22556e-07
5.41535e-08
8.55695e-08
-1.71668e-08
-4.21811e-08
-7.72894e-08
-9.75208e-09
-7.91621e-08
1.54371e-07
5.32592e-09
6.93517e-08
7.23957e-08
-1.36896e-07
-4.85133e-09
1.09472e-07
6.70383e-10
-1.09991e-07
-1.51436e-10
-5.90808e-09
-1.52169e-07
-1.30299e-08
1.59691e-07
-3.60139e-09
1.11739e-07
-1.14414e-07
5.52084e-08
-7.29659e-09
9.37234e-08
-4.62772e-10
-9.21824e-08
-1.07821e-09
1.17031e-07
-8.0279e-10
1.29892e-07
-4.39553e-08
7.69554e-08
5.82005e-11
-9.9495e-08
-3.32916e-09
1.07136e-07
-4.31233e-09
8.75002e-08
-4.80787e-08
-8.66431e-08
1.2986e-10
8.65061e-08
7.16397e-12
-3.35851e-08
-1.30426e-07
1.39477e-07
2.45337e-08
-1.79235e-09
1.25027e-07
-1.22873e-07
-3.61879e-10
-8.41734e-08
-3.50689e-08
1.19889e-07
-6.46496e-10
-4.16446e-09
2.10942e-09
-1.04564e-07
-1.56781e-07
8.42644e-08
7.79266e-08
-5.4103e-09
1.95633e-10
-9.70152e-08
9.70209e-08
-2.01331e-10
1.31575e-07
-5.80397e-10
-7.73525e-11
-1.05583e-07
2.59004e-10
1.05401e-07
-8.03215e-08
1.96344e-08
7.04274e-08
1.25834e-07
-6.89382e-08
4.79633e-09
1.34132e-07
-1.33281e-07
-1.36148e-08
-1.19222e-07
1.34354e-07
1.82495e-08
-3.33811e-08
6.90605e-08
-7.03904e-08
1.43978e-07
3.82168e-09
1.07606e-07
1.44577e-07
-1.24349e-09
-1.45126e-07
6.51821e-08
-1.36252e-07
-4.06845e-09
7.5138e-08
1.37248e-07
-7.57291e-08
7.83327e-09
9.59287e-08
-9.38873e-08
-1.07813e-07
5.5285e-08
-2.93162e-08
-1.43792e-07
1.37203e-07
-1.82675e-08
2.48567e-08
1.56734e-07
4.33209e-08
-4.47017e-08
-1.54952e-07
-7.08233e-08
-2.86259e-08
7.71961e-08
2.22531e-08
-1.25002e-07
6.56507e-08
-5.19281e-08
1.1128e-07
-1.4491e-07
-3.15033e-09
1.50933e-07
-2.87345e-09
-1.03648e-07
1.96442e-08
-6.09062e-08
-1.56574e-07
-6.13216e-09
9.09539e-08
-1.39494e-09
-1.07892e-07
-4.47047e-10
-1.04062e-07
1.34111e-07
-7.07657e-08
5.8568e-09
1.49369e-07
-7.95715e-08
-7.62706e-08
6.47279e-09
-1.28097e-07
1.72249e-07
-4.43037e-08
1.51718e-10
7.917e-08
-7.92515e-08
-1.28016e-07
9.10926e-08
7.15725e-09
-2.32118e-09
6.31999e-10
1.00562e-07
-1.00096e-07
-1.09806e-09
1.81208e-07
-4.59566e-08
-9.91335e-08
-1.03793e-07
1.1015e-07
1.10373e-07
-1.05665e-07
-2.59839e-09
-1.63223e-09
9.79415e-08
-9.6562e-08
2.52737e-10
-8.98071e-09
-1.29357e-07
1.26166e-07
1.21715e-08
-1.33441e-07
1.49881e-07
-9.6398e-09
-6.80031e-09
1.16345e-07
-2.53115e-08
-9.217e-08
1.01032e-08
-7.45574e-09
-9.29962e-08
9.25578e-08
3.13016e-08
-6.20841e-09
-1.28741e-07
-1.94904e-08
1.06079e-07
-8.04389e-08
-6.14969e-09
1.52153e-07
-6.26538e-09
-1.29555e-08
-1.32932e-07
1.49117e-07
3.6916e-11
-2.31512e-09
-1.46839e-07
1.30683e-07
-1.4448e-09
-6.39569e-11
1.24254e-07
-1.24478e-07
1.84356e-10
3.99566e-11
-1.19479e-07
-7.85683e-08
1.20758e-07
2.01869e-08
-1.62579e-07
-1.06508e-07
1.06446e-07
-2.42062e-11
8.65723e-11
-1.28479e-07
-6.83252e-09
1.8705e-09
-9.79936e-08
-9.29867e-11
9.81087e-08
-2.21694e-11
-1.17369e-07
-5.03513e-10
1.17925e-07
-5.27472e-11
-1.18681e-08
1.21492e-07
-9.99566e-08
-7.89428e-09
-9.84969e-08
9.83078e-08
1.11805e-10
2.70847e-08
2.72079e-08
7.82196e-08
-1.31976e-07
6.95443e-08
-6.97203e-08
1.37229e-07
-1.37053e-07
9.90222e-08
-7.80665e-08
-2.32547e-08
2.29903e-09
7.3647e-08
2.74476e-08
-1.03116e-07
4.31397e-09
5.46675e-09
-1.03862e-07
1.17898e-07
-1.95029e-08
-4.58827e-10
9.82763e-08
-9.74644e-08
-3.53092e-10
-1.34745e-07
-8.3046e-09
1.57037e-07
1.96413e-07
-8.39522e-08
1.77407e-07
1.47261e-07
-7.3705e-08
5.61389e-09
-3.99971e-08
2.44497e-08
-1.03121e-07
1.20632e-07
8.42244e-08
8.94195e-08
-7.30469e-09
8.90864e-08
6.95841e-08
-1.53182e-07
-5.48822e-09
7.84473e-08
7.59498e-08
-7.13597e-09
1.16616e-07
-7.18234e-08
7.94613e-08
7.08698e-08
-1.20054e-07
5.68189e-08
-7.63437e-09
4.99225e-10
-9.48481e-08
-1.15362e-09
1.36205e-10
-2.94299e-07
1.75231e-07
1.5048e-07
-1.068e-07
2.23656e-08
8.91497e-09
4.12163e-08
4.30584e-08
-9.31897e-08
-1.22228e-07
1.75607e-09
1.21557e-07
-1.08519e-09
-9.42456e-08
9.38699e-08
4.31962e-12
3.71354e-10
1.21692e-07
-1.57891e-07
1.86754e-07
-1.50554e-07
1.44974e-08
-1.43926e-09
1.2006e-07
-3.01993e-08
7.1064e-09
-6.99693e-08
9.30622e-08
-6.90194e-08
1.33319e-07
5.24438e-09
-1.39337e-07
7.20115e-08
7.25788e-08
-5.25288e-09
-1.04902e-07
-2.39236e-08
1.09335e-07
4.13338e-10
7.28629e-08
-6.90227e-11
-7.32072e-08
1.38851e-07
-6.37546e-08
7.37812e-08
1.20214e-09
-1.09339e-10
-2.14277e-11
-9.23878e-08
1.68636e-07
-4.51102e-08
-2.7769e-08
-9.57571e-08
1.49669e-08
2.82258e-08
-1.25324e-07
8.50175e-08
-3.26699e-08
2.15247e-08
1.552e-07
4.34799e-08
1.58291e-07
-1.786e-07
-6.02844e-08
-6.4444e-08
5.50623e-09
1.2523e-07
5.96483e-09
-6.83707e-08
-6.87266e-08
1.30121e-07
6.97587e-09
-5.37959e-09
9.6831e-08
-1.31355e-07
-1.84567e-10
6.69203e-08
-6.74841e-09
-6.58058e-10
-1.27989e-07
5.41736e-11
1.28593e-07
-1.2721e-07
1.53579e-07
-3.73758e-08
1.05093e-08
-8.89386e-09
4.8174e-08
1.05297e-07
-1.21865e-07
7.09206e-08
-2.53316e-08
7.62764e-08
-1.33502e-07
8.99927e-08
-1.22965e-07
1.21389e-07
3.32158e-10
8.80107e-08
2.10514e-08
-1.57801e-07
-2.05283e-08
1.57278e-07
-1.73608e-07
9.52393e-08
-1.3075e-07
-1.5896e-09
1.56995e-07
2.33267e-08
6.37566e-08
-9.14653e-08
4.38197e-09
1.10335e-07
-7.80449e-08
-3.3941e-10
-9.53833e-08
1.67659e-10
-2.23826e-07
2.23834e-07
-5.81748e-10
-9.09876e-08
-9.46672e-08
-8.91374e-08
9.66531e-08
-1.06013e-07
8.04453e-08
-1.01974e-07
1.6194e-08
5.33425e-09
1.19709e-07
-8.63838e-08
-8.87573e-09
-1.47247e-07
-1.10975e-08
2.02043e-08
1.3814e-07
-2.93768e-07
-3.9529e-10
-1.25537e-07
1.24889e-07
9.63746e-11
-8.91905e-08
-3.19497e-11
8.50188e-11
-1.34245e-08
-8.97921e-08
1.44013e-07
-4.07962e-08
1.02594e-07
5.03043e-09
4.14924e-08
-1.29029e-07
1.28058e-07
-3.41819e-09
-6.01233e-08
1.40436e-07
-9.37227e-08
2.69273e-10
-1.22139e-07
-3.5843e-10
8.80702e-08
-8.97214e-08
1.34448e-10
-6.35164e-08
-6.3609e-08
1.19427e-07
7.69881e-09
1.07971e-07
1.69724e-08
-9.27799e-08
-3.21639e-08
-4.18217e-10
1.4617e-07
-1.47725e-07
-5.60782e-10
-1.0605e-07
-1.83951e-08
1.21613e-07
-3.13575e-11
-1.21697e-07
1.14959e-10
2.29068e-08
7.15501e-09
5.20029e-08
-8.20648e-08
-1.36089e-07
7.28058e-08
-5.08771e-09
-1.09582e-07
1.04488e-07
-7.17081e-09
-2.86543e-10
1.16584e-07
3.17722e-10
-7.71654e-08
-6.92372e-08
1.39585e-07
6.81794e-09
1.24474e-07
-6.64381e-08
-6.42287e-08
6.19271e-09
1.23683e-07
-2.02217e-09
-4.78549e-11
-9.72109e-08
-8.70767e-08
9.50971e-08
-1.18813e-07
-4.44878e-08
-1.03765e-08
1.73909e-07
-1.01071e-07
2.80251e-08
-1.23026e-07
5.94474e-11
-1.00498e-07
4.85462e-10
-5.71668e-10
1.28971e-07
2.44431e-08
-2.61731e-08
-1.27241e-07
4.41133e-08
-1.23462e-07
-1.091e-10
-6.46972e-11
3.68786e-08
-1.84896e-07
-7.50932e-08
1.26051e-07
8.55864e-08
1.9574e-08
-1.39342e-07
-1.74076e-08
1.37176e-07
-7.84429e-08
6.40959e-09
1.27244e-07
-1.26654e-07
8.81527e-08
3.9805e-08
-1.30336e-09
-4.33114e-10
1.28055e-10
-9.26784e-08
6.37305e-08
-4.63717e-09
-1.37591e-09
-2.57233e-09
-2.36856e-09
9.07805e-08
-8.58396e-08
7.85196e-08
1.00917e-07
-9.88957e-08
-8.05406e-08
1.41872e-07
-1.58383e-07
1.64845e-10
3.27578e-10
1.50123e-07
-9.57956e-09
-1.31952e-07
-4.04801e-08
1.46016e-07
1.0809e-08
1.13628e-07
-1.07269e-07
-5.39186e-09
-9.67901e-10
-7.86789e-10
1.09027e-07
1.57699e-07
-5.47778e-08
-2.30735e-09
8.93304e-08
-7.92984e-08
-5.17477e-10
3.87987e-10
1.34262e-07
-1.43581e-07
3.58955e-09
1.30807e-07
7.79184e-09
-1.16849e-08
1.17111e-07
-1.46597e-07
3.11541e-08
1.01223e-09
8.62873e-08
-8.43612e-10
-8.64559e-08
-1.1329e-07
1.13383e-07
-1.1452e-10
1.09858e-09
-3.21796e-10
-1.07756e-07
1.06987e-07
-1.80728e-11
-1.05972e-07
-2.2627e-10
1.47982e-10
6.86473e-08
-9.79743e-08
-7.35044e-08
1.02831e-07
5.3545e-11
-1.11393e-07
1.11503e-07
-1.64102e-10
-4.84192e-08
1.23336e-07
-4.6473e-08
-1.85331e-08
-1.3508e-07
7.05619e-08
-6.30497e-09
2.6961e-08
-1.5282e-08
1.0195e-07
-1.30521e-07
6.26247e-08
6.06973e-08
7.19908e-09
-1.51387e-07
-1.05515e-07
1.06888e-07
-1.20857e-07
-4.12471e-08
5.52161e-08
1.24515e-07
-1.25167e-07
2.63627e-10
3.8908e-10
-1.5133e-09
-1.75434e-07
5.44809e-11
1.76893e-07
-1.00422e-07
1.77455e-11
1.00373e-07
-1.22142e-07
1.04012e-10
3.41633e-10
6.9399e-08
-1.22969e-07
-6.71435e-09
1.24597e-10
-1.24386e-07
-2.16894e-10
7.35475e-08
7.32387e-08
-5.55232e-09
-7.08555e-08
-7.12592e-08
1.3581e-07
6.30471e-09
-1.1244e-07
9.97726e-10
1.11382e-07
6.04444e-11
1.18965e-07
2.93684e-08
1.06429e-07
-1.5393e-08
1.03816e-07
-5.35684e-09
-9.54382e-08
4.49531e-08
4.32808e-08
7.20431e-09
7.61131e-08
1.22836e-07
-8.4403e-08
-1.11017e-07
7.01762e-08
-6.82204e-08
-1.25603e-07
-1.00851e-07
1.10652e-07
1.15802e-07
1.04608e-07
-1.13861e-10
1.10762e-07
-1.11974e-07
1.3386e-09
-1.26771e-10
-1.25519e-07
-1.2377e-07
7.96086e-10
1.01028e-10
1.61581e-08
4.04374e-08
-1.57403e-07
1.46412e-08
-4.08475e-08
1.87121e-07
1.28054e-07
-7.44696e-08
-5.89642e-08
4.85531e-09
1.83375e-08
-2.01159e-08
1.26826e-07
-3.16116e-08
-7.50983e-08
1.02167e-07
-6.31489e-10
-1.01297e-07
-2.38832e-10
-3.90365e-08
-1.38399e-07
2.74406e-07
-9.69707e-08
1.00368e-07
-7.60937e-08
-9.4774e-10
1.13331e-10
9.84181e-08
-2.55138e-10
6.99824e-08
-7.03221e-08
1.16132e-07
-1.50561e-07
-1.24228e-07
7.55872e-08
1.20653e-07
-2.12514e-09
-2.91866e-08
-7.78401e-08
6.8126e-08
8.11773e-08
8.39573e-09
1.14307e-07
-1.2078e-07
1.57508e-09
1.42398e-07
-7.64996e-08
6.68031e-09
1.1273e-07
-1.47191e-07
1.29684e-07
-8.4318e-08
-3.0699e-08
-1.36563e-08
1.97473e-09
9.89196e-08
-1.09875e-07
6.54634e-08
-1.23719e-07
-5.26128e-09
1.43578e-07
1.34905e-08
-4.14255e-08
1.21913e-07
-7.99308e-08
-2.48785e-09
-2.47754e-08
1.3396e-07
-1.49969e-07
4.07849e-08
1.11098e-07
1.9749e-08
-5.29561e-08
-6.29646e-10
-1.21611e-07
1.20958e-07
-8.90594e-10
-2.8533e-08
2.17739e-08
-9.28422e-08
9.96012e-08
7.26888e-08
-1.36283e-07
-5.13233e-09
-1.29983e-07
1.30304e-07
-1.95754e-10
-7.36764e-08
1.51627e-07
-1.16987e-07
-6.96572e-08
-7.71229e-08
1.63543e-08
-9.67309e-08
-2.5357e-11
2.06298e-07
-1.01767e-08
-9.69859e-08
-1.0241e-07
-7.0815e-08
1.27323e-07
2.19027e-07
-2.12226e-10
-8.55841e-08
2.28142e-11
8.57735e-08
3.08768e-08
1.08919e-07
-7.72766e-10
1.43311e-07
5.82339e-09
9.24457e-08
5.47171e-08
2.71818e-09
7.0616e-08
-1.36068e-07
-5.40337e-09
-7.00911e-08
-7.92416e-08
1.40276e-07
9.05713e-09
-8.72132e-08
-4.17263e-09
-4.05237e-09
-1.67153e-08
-1.2262e-07
1.08392e-07
-7.50801e-11
-1.17909e-07
-3.13063e-09
1.15403e-07
-8.54488e-08
-1.30306e-07
9.26397e-08
1.23115e-07
-1.0763e-07
3.73864e-08
7.33955e-08
-3.15191e-09
6.75314e-08
6.74385e-08
-1.28015e-07
-6.95537e-09
-6.89215e-08
-6.62473e-08
1.28922e-07
6.24635e-09
4.97003e-08
4.61975e-08
-1.05808e-07
9.91044e-09
-6.44325e-08
1.07321e-07
-3.49368e-08
-7.95175e-09
1.01757e-07
-1.02158e-07
-2.57588e-10
-9.00972e-08
4.89405e-10
7.84065e-08
1.01177e-07
-2.69719e-08
-1.52611e-07
-2.98139e-08
8.48299e-08
3.68338e-08
-9.18497e-08
-9.44111e-08
3.91699e-11
9.59181e-08
-1.54616e-09
-7.06402e-08
-4.06086e-08
9.11329e-08
1.19153e-07
-3.339e-09
6.73964e-08
-1.25435e-07
6.29992e-08
-4.96046e-09
-5.19802e-08
3.46696e-08
-1.11183e-07
1.12062e-08
1.28966e-07
-1.01152e-07
-3.89413e-08
1.15886e-07
7.74213e-08
-7.10034e-08
7.52208e-10
-1.18019e-07
-1.01925e-10
5.96176e-08
-4.65095e-08
9.92216e-08
-1.13338e-07
5.4444e-08
5.16449e-08
7.24907e-09
7.08169e-08
-4.74612e-09
3.75878e-08
6.10993e-08
7.39184e-09
8.84197e-09
1.21572e-07
-9.76143e-09
-5.54074e-09
-7.91368e-08
7.71733e-08
1.28789e-07
-7.16057e-08
-1.50202e-07
1.50733e-07
1.56871e-07
5.64535e-08
-5.35812e-08
-1.59744e-07
1.39745e-08
-1.24168e-07
1.331e-07
-7.563e-08
-6.95355e-08
1.38586e-07
6.5791e-09
-4.29767e-08
-1.03246e-07
1.66876e-09
6.56025e-08
-6.585e-09
1.25096e-07
-4.76679e-10
-1.04349e-10
2.1359e-08
-8.23523e-08
8.79543e-08
1.48945e-10
1.72847e-10
-1.30305e-07
-1.44925e-09
8.70618e-08
-8.51818e-08
1.11195e-08
-8.0724e-08
1.37906e-07
-6.83015e-08
-2.66506e-08
-1.29348e-07
1.08656e-09
1.54912e-07
8.89461e-08
-1.7143e-07
6.72242e-08
1.52599e-08
-1.18517e-07
8.68334e-08
-9.38535e-08
9.68817e-08
-5.15665e-10
-9.59508e-08
-4.15275e-10
-4.41184e-08
-1.24234e-07
4.45037e-08
1.23848e-07
-7.03671e-08
-1.17809e-07
1.43794e-07
4.43828e-08
-2.83837e-09
-1.37901e-07
1.38378e-07
2.36147e-09
-1.2068e-07
1.20624e-07
-1.45709e-09
-1.38154e-07
1.22023e-07
-6.15033e-08
1.32055e-07
6.85289e-08
-5.64972e-09
7.38105e-08
-1.32448e-07
-6.14168e-08
-1.21943e-07
8.40365e-08
-9.81819e-08
-1.32323e-08
1.3597e-07
-8.41232e-08
-3.37728e-08
1.16422e-07
-1.1439e-07
-3.22147e-09
1.18945e-09
-9.39592e-08
-2.33373e-09
3.90517e-09
2.45128e-10
-1.44575e-07
1.41492e-07
-8.75311e-08
-4.90091e-10
8.07963e-10
-8.9027e-08
7.48535e-08
1.46141e-08
-4.40561e-10
-5.33282e-08
-1.27968e-07
1.72065e-07
9.23102e-09
1.11379e-07
-5.56859e-10
5.47142e-08
4.62071e-08
-1.09928e-07
9.00642e-09
-1.05654e-07
-5.11344e-10
1.05938e-07
2.26869e-10
-1.02701e-07
1.45227e-08
-2.37959e-08
6.06326e-08
-1.17377e-07
4.94873e-08
7.25693e-09
-4.49127e-09
-9.08339e-08
4.3376e-09
1.38715e-09
-1.28855e-07
1.86484e-09
5.17865e-08
7.15731e-08
-1.33248e-07
2.07244e-08
1.01033e-07
1.97192e-08
1.23242e-07
-1.23784e-07
6.29745e-10
-8.79054e-11
-1.98254e-07
1.87052e-07
8.28142e-08
-7.1612e-08
5.45052e-08
-1.40842e-07
1.08067e-07
-2.17303e-08
7.18436e-08
-6.50924e-09
-6.51974e-10
9.07965e-11
5.58863e-08
-5.91302e-08
-1.11765e-07
1.58144e-07
-1.30552e-07
1.09289e-07
-1.45813e-08
5.95572e-10
-1.44971e-07
1.44489e-07
1.24623e-07
-1.51923e-07
-1.23267e-09
-8.3991e-08
-8.00231e-08
1.57575e-07
6.43872e-09
9.14238e-08
-2.06568e-11
-9.14026e-08
-5.07804e-13
-1.4226e-07
7.61714e-08
7.07778e-08
-4.68955e-09
-1.92016e-07
1.18818e-07
-1.32891e-07
2.0609e-07
-1.84917e-07
2.45693e-08
-4.40903e-08
-1.08468e-07
-1.57397e-07
9.61793e-08
3.64419e-08
-1.39727e-08
-1.23496e-07
1.34695e-07
2.77384e-09
-3.11256e-09
-1.07182e-07
-9.18465e-09
1.17119e-07
-1.02499e-07
1.0731e-07
-3.16891e-08
1.63209e-07
8.6255e-08
1.62313e-07
-1.23943e-07
-1.17783e-07
4.9497e-10
1.1522e-07
-1.15757e-07
4.20017e-11
9.92677e-08
-1.07545e-07
3.78569e-09
-7.7224e-08
-6.84281e-10
6.69761e-08
1.01061e-07
-4.29417e-08
6.2116e-08
-1.19041e-07
-4.57854e-09
-1.1829e-10
1.12018e-07
-1.11994e-07
9.48509e-11
-1.16053e-07
-1.6161e-10
1.16966e-07
-7.51368e-10
-1.17666e-07
4.29335e-08
-3.25358e-08
-1.1489e-08
9.61539e-08
7.75172e-08
-9.76877e-10
-1.72694e-07
2.63809e-09
-1.67507e-10
-1.68357e-08
7.98971e-08
-1.4316e-07
8.00988e-08
-1.23629e-07
1.25424e-07
6.47266e-08
-6.14649e-09
2.64787e-08
-1.2864e-07
-3.63317e-08
1.38493e-07
4.06376e-08
1.20368e-08
3.51859e-08
-8.78603e-08
6.83497e-08
7.41122e-08
-1.36302e-07
-6.15997e-09
-1.02337e-07
1.00609e-07
1.76803e-09
-4.01402e-11
-6.72031e-08
7.37569e-09
5.49572e-08
-5.29312e-08
1.23394e-07
-1.2542e-07
-1.03095e-07
2.1723e-07
-4.49889e-08
-6.91464e-08
8.46175e-08
-7.16155e-08
-7.38368e-08
6.08349e-08
6.72444e-08
-5.52376e-08
-1.35123e-07
5.2514e-08
8.93244e-09
5.73135e-08
7.89216e-08
7.45155e-08
7.6037e-08
-1.44258e-07
-6.29482e-09
1.33145e-07
7.94105e-09
-6.03698e-09
-1.35049e-07
1.01607e-07
8.5706e-10
-2.96528e-10
9.58935e-08
-9.74983e-08
2.21904e-09
-6.14266e-10
-6.52068e-08
-7.70579e-08
1.3509e-07
7.17418e-09
-1.19604e-07
1.52796e-09
4.09205e-10
-1.05957e-07
3.73483e-11
2.65489e-10
1.11789e-08
1.2175e-07
1.10517e-07
1.90162e-09
-1.04033e-09
6.84712e-11
-1.0212e-07
1.0154e-07
9.6597e-08
1.72058e-08
2.61901e-09
-1.14171e-08
3.57329e-08
-1.19023e-07
9.47069e-08
1.24331e-07
-1.2413e-07
-3.80782e-11
-1.63012e-10
-2.94118e-08
-1.17188e-07
1.7117e-07
-1.18443e-07
-1.91678e-08
1.42444e-07
-4.83353e-09
1.52849e-07
-1.29955e-07
-2.2525e-08
-2.01194e-08
1.27262e-07
1.25129e-07
-1.2588e-07
4.03391e-10
3.48029e-10
1.49503e-07
-4.59166e-08
-1.47021e-07
4.34346e-08
1.23195e-07
-1.23424e-07
1.46267e-07
-1.46039e-07
8.86717e-09
-1.21872e-08
-9.76324e-08
1.00952e-07
2.67031e-08
-1.01972e-07
-4.32908e-08
1.1856e-07
8.58743e-08
7.8306e-08
-1.5727e-07
-6.91061e-09
2.02373e-07
-2.13675e-07
-6.39444e-08
-1.54045e-07
1.02134e-07
-1.29355e-08
1.24086e-08
-1.84158e-07
1.59657e-07
-8.49379e-08
1.32254e-07
-2.25092e-07
1.77777e-07
7.97576e-08
-1.58469e-07
-6.22678e-09
2.02908e-08
8.87756e-08
-1.53374e-08
-9.3729e-08
-1.4105e-09
1.29651e-07
-1.40999e-08
-1.11617e-07
-5.85795e-08
1.52745e-07
-1.06743e-07
1.25774e-08
-2.73112e-08
7.91324e-08
-4.43559e-08
-7.4654e-09
3.43176e-10
-9.93785e-08
9.94096e-08
-3.74259e-10
2.6277e-09
1.23989e-07
-1.25486e-07
-1.13112e-09
-8.73292e-08
-1.25201e-07
1.38e-07
7.98553e-08
-1.07367e-08
1.1073e-07
2.09122e-09
-4.74318e-08
-4.39756e-08
1.25755e-07
-2.31496e-07
3.78978e-08
-1.51485e-07
1.19669e-07
-7.12786e-08
1.22271e-07
-1.19209e-07
-4.34753e-10
-9.68845e-08
1.56529e-09
-2.32742e-09
9.76466e-08
6.13317e-08
-1.88165e-07
-1.44962e-07
-1.71359e-10
1.25815e-07
-1.25481e-07
-1.62555e-10
-1.09935e-07
-3.87942e-08
1.40998e-07
5.61004e-09
-9.05452e-09
1.09757e-07
-9.82472e-08
-1.10886e-08
1.43151e-07
-1.16427e-07
4.1424e-10
-3.9743e-11
6.34911e-08
-1.51886e-07
8.23805e-08
6.01445e-09
-1.4897e-09
-1.10846e-07
-1.51518e-09
1.27136e-07
5.94067e-09
-1.0464e-07
5.32186e-08
4.95623e-08
1.85935e-09
-1.05252e-07
2.90637e-08
1.43432e-07
2.08681e-10
1.3482e-07
-6.68481e-10
-1.3436e-07
6.6584e-09
1.19122e-07
-2.54052e-08
-1.00375e-07
1.42248e-07
-1.61904e-07
8.43379e-08
-6.46826e-08
4.56196e-08
1.14664e-07
-5.62054e-08
-6.67235e-09
8.24026e-08
8.7075e-08
-1.57013e-07
-1.4244e-08
-6.40904e-09
1.08103e-07
-1.30319e-07
1.15405e-07
2.52815e-10
-1.15803e-07
1.4585e-10
7.03873e-09
9.94535e-08
-3.8982e-09
7.80861e-08
-1.94465e-07
3.093e-08
-1.31406e-07
2.48731e-09
-7.42788e-08
-6.35195e-08
1.31095e-07
6.70294e-09
-1.06972e-07
-4.9528e-08
3.34589e-08
1.23041e-07
-1.18299e-07
-6.33038e-10
-6.7135e-10
-6.92167e-08
1.46486e-07
-8.31384e-08
5.86902e-09
7.4748e-08
-1.47933e-07
7.64153e-08
-3.23064e-09
-1.12121e-07
-2.65659e-10
1.01937e-07
-1.04555e-07
4.55053e-09
-1.93186e-09
1.50203e-07
-8.41656e-08
8.71084e-09
-1.14484e-07
1.92499e-08
-1.9156e-08
5.864e-08
-9.69265e-08
-2.18154e-08
1.24314e-07
-1.23501e-07
-2.17152e-10
6.78428e-08
6.04738e-08
-6.0582e-08
-6.77346e-08
7.90558e-08
1.47172e-07
-1.58696e-07
7.85633e-08
6.7324e-08
-1.40922e-07
-4.9649e-09
-1.15806e-07
6.10981e-08
4.7235e-08
7.47243e-09
1.84788e-10
1.248e-07
1.44146e-10
7.93504e-08
7.42155e-08
-1.47854e-07
-5.71152e-09
1.04847e-07
1.16082e-07
-9.48738e-09
-1.02975e-07
-3.62049e-09
9.49301e-08
4.38842e-11
1.45915e-07
-1.47654e-07
-8.04406e-08
8.21792e-08
4.95783e-08
5.91407e-08
7.36345e-09
-6.31127e-09
-1.89195e-07
1.848e-08
1.0916e-07
-3.61522e-09
6.1994e-09
1.50815e-07
1.29572e-07
-2.19754e-07
-1.21932e-07
1.09168e-09
-1.45707e-09
1.22298e-07
6.01256e-10
9.90102e-08
-9.94865e-08
-1.24977e-10
-7.89548e-08
1.79417e-07
-1.76092e-07
5.18303e-08
1.21955e-07
-6.45697e-08
-1.09215e-07
4.5763e-08
5.84813e-08
-1.11618e-07
7.37386e-09
1.47939e-07
-1.10697e-08
2.07061e-08
-1.33046e-07
-5.72641e-09
3.99978e-08
-1.31817e-07
-1.89871e-08
-9.36105e-08
-1.11097e-07
1.04741e-07
2.00614e-08
-5.04699e-09
-2.00745e-08
9.6229e-08
2.85866e-08
7.63876e-08
-7.7346e-08
-2.70117e-09
1.24387e-07
3.27583e-09
1.17647e-10
4.69836e-10
-2.14888e-07
-1.538e-08
-2.66893e-10
1.49486e-07
1.47955e-08
-1.56688e-07
-1.31648e-08
2.70179e-07
-1.19243e-07
-1.37771e-07
-1.66084e-07
1.34791e-07
1.13281e-07
-1.43401e-07
-6.74386e-08
7.32806e-08
-7.5075e-08
6.92329e-08
1.17401e-07
-1.21261e-07
-3.74031e-09
7.60014e-09
-3.80019e-09
-6.31394e-08
7.83153e-08
-1.8126e-07
-7.91649e-08
6.42761e-08
1.54038e-08
-1.18795e-07
2.57137e-07
-4.10807e-08
-9.75908e-08
-1.32145e-08
-7.62373e-08
1.53228e-07
2.06486e-09
-3.26649e-08
-7.02016e-08
8.83266e-08
1.45399e-08
3.89799e-08
-1.75301e-07
7.96154e-08
5.67062e-08
-1.06081e-07
1.05869e-07
-4.76973e-11
2.60054e-10
9.14504e-08
-2.38869e-10
1.35138e-08
1.23898e-07
1.11951e-07
-7.1552e-09
-8.30221e-08
-1.53436e-07
1.82533e-08
7.78031e-10
1.352e-07
-8.80254e-08
1.33564e-07
-4.23541e-08
-5.97297e-09
3.07974e-09
1.24327e-07
-3.01976e-09
1.0326e-07
3.87066e-08
-1.51591e-07
-2.93748e-08
-1.23046e-07
-1.06717e-07
-8.3548e-08
4.30179e-08
-1.11232e-08
1.07696e-07
-8.42024e-09
-9.29496e-08
-1.06868e-07
-3.10143e-09
9.35529e-08
-1.20037e-07
9.77675e-08
-6.2609e-10
-9.66e-08
-5.41406e-10
-2.54096e-08
-1.46366e-07
-1.74919e-07
1.74527e-07
1.13251e-07
-4.73952e-08
1.14322e-08
-7.72877e-08
1.11597e-07
-5.77495e-10
-1.10962e-07
-5.72932e-11
9.5872e-10
1.01339e-07
-1.02532e-07
2.34373e-10
2.85504e-08
1.1799e-07
-3.60228e-08
-7.72766e-08
-8.11492e-08
1.04932e-08
7.59455e-09
1.07893e-07
-1.11437e-07
-4.05086e-09
-1.22726e-07
1.32726e-07
-2.40532e-09
-1.32056e-07
-3.24178e-09
-1.45896e-07
1.47788e-07
-5.49276e-08
-8.34533e-08
1.44538e-07
-6.15753e-09
1.05898e-07
-1.49104e-08
6.24467e-10
-9.63768e-11
4.55969e-08
1.15875e-08
-5.02845e-10
-4.40761e-10
7.42314e-08
8.11033e-08
-5.83198e-09
-3.29691e-08
9.79089e-08
7.67743e-08
-2.74739e-07
-1.06598e-07
2.46317e-07
1.34257e-07
1.26132e-07
-5.3562e-08
-8.02746e-08
6.53964e-09
-5.59653e-10
-1.22889e-07
-3.3474e-10
5.34656e-08
6.20996e-08
-1.14461e-07
-1.10377e-09
-1.1238e-07
1.12228e-07
1.21364e-10
3.07482e-11
1.03311e-07
3.14572e-08
-1.33794e-08
1.61906e-09
1.89813e-07
-4.37994e-09
-5.20017e-08
-7.98524e-08
-3.26877e-09
-9.44304e-08
-2.24225e-08
7.26597e-10
1.04489e-07
-1.04358e-07
7.64007e-08
-1.86447e-07
1.04916e-07
-1.03757e-09
-5.67609e-10
6.88725e-08
6.37266e-08
-1.28764e-07
-3.8354e-09
-1.58303e-07
7.92559e-08
-2.22125e-08
-2.58957e-08
-3.53645e-08
1.23131e-07
-6.18709e-08
-2.857e-08
6.95963e-08
2.97515e-08
-1.36277e-07
-8.74049e-08
9.17238e-08
1.31958e-07
7.49248e-08
-5.94058e-09
6.35712e-08
1.25828e-07
-5.20929e-08
-1.37306e-07
-3.63855e-09
1.1288e-07
1.45454e-08
-1.23787e-07
1.0756e-07
-9.15979e-08
-1.98982e-08
3.93569e-09
1.37999e-07
-1.84896e-07
1.70886e-07
1.38222e-07
-6.71904e-08
-6.4385e-08
-6.64673e-09
4.08332e-08
-1.64345e-07
-1.16653e-07
-1.17978e-07
-4.38652e-11
-1.8209e-07
1.53591e-07
-1.58741e-07
1.8724e-07
8.22019e-08
-1.45798e-07
-2.59827e-08
1.16515e-07
-1.15534e-07
-4.77467e-10
-5.03707e-10
5.86335e-08
-1.16351e-07
-5.42234e-09
-6.12762e-09
8.34215e-08
-1.74016e-07
7.41967e-08
-1.31695e-07
-6.79462e-11
3.09589e-10
1.31453e-07
-1.61177e-07
1.32767e-07
-1.00548e-07
-8.23224e-08
-2.88071e-08
-7.0873e-09
5.80034e-08
6.78331e-08
-6.16777e-09
-5.14578e-08
-5.86836e-08
-5.66412e-09
-3.58919e-09
-9.98343e-08
-9.79764e-08
-9.85643e-10
-5.67818e-09
6.7768e-08
-6.73415e-08
6.08939e-10
-1.03537e-09
1.04108e-07
-1.02137e-07
-1.30328e-09
-6.67708e-10
-1.11297e-09
1.2371e-07
-1.22416e-07
-1.80355e-10
-1.28509e-07
1.35857e-08
1.09153e-07
5.77016e-09
1.23312e-07
-1.17202e-07
-4.23895e-09
-1.87156e-09
-1.043e-07
-1.07346e-09
1.06018e-07
-6.44596e-10
-1.00845e-07
-6.14904e-08
9.34295e-08
3.28683e-08
-9.18789e-09
-1.1711e-07
7.36642e-08
-7.80829e-08
3.60687e-09
8.1186e-10
4.35939e-08
3.61818e-08
-1.23894e-07
1.06067e-07
-1.03284e-07
-7.08211e-09
4.29932e-09
-4.91629e-08
4.97663e-08
1.47824e-07
5.00655e-09
1.2389e-07
-9.27328e-08
1.17764e-08
-2.68177e-08
-1.12391e-08
-9.82202e-08
-3.19906e-08
1.89474e-07
6.00544e-09
-1.64102e-07
1.25874e-07
-3.23578e-08
-1.87168e-08
2.05336e-08
-7.72711e-08
5.58467e-09
-1.20948e-07
1.20809e-07
5.66892e-08
-6.8109e-08
-2.91888e-08
7.52493e-08
2.2629e-09
6.24793e-08
5.55112e-08
-7.73529e-08
-8.02997e-08
1.10843e-07
-1.22937e-08
-6.82203e-08
5.70369e-09
9.07896e-08
1.1023e-08
2.1638e-08
2.36073e-08
-1.03006e-08
4.9816e-08
5.79361e-08
6.91212e-09
-4.74112e-08
1.5528e-07
-1.61197e-07
-1.68343e-07
8.38351e-08
2.13101e-07
-1.43599e-07
1.02756e-07
-3.09241e-08
5.90665e-08
-1.30899e-07
-1.2006e-07
-4.14076e-08
-1.39908e-07
-5.54565e-09
-9.81401e-08
7.78586e-08
-8.55913e-08
1.05873e-07
8.04594e-09
-1.15235e-07
-1.36459e-07
-7.20692e-09
-3.98837e-09
-1.23401e-07
1.11595e-07
1.19366e-07
1.88456e-08
9.97327e-08
2.05311e-09
-1.28558e-07
1.18841e-07
-8.23519e-08
9.20689e-08
-9.88389e-08
1.26999e-08
-1.98176e-08
-3.36752e-08
-3.06001e-08
1.22723e-07
-4.82226e-08
-1.08907e-07
-4.16071e-08
1.21157e-08
-6.87957e-08
-8.25099e-08
7.51336e-09
-6.7352e-08
7.74272e-08
7.75211e-08
2.2556e-08
4.11776e-08
-1.41255e-07
8.01772e-08
-1.62005e-09
-6.69438e-08
-4.60747e-09
-7.7856e-08
-8.66938e-08
6.24645e-09
6.0683e-08
-7.01347e-08
-4.67122e-08
5.61639e-08
-4.80903e-08
-8.60354e-09
1.41476e-07
-1.78626e-07
3.76124e-08
-4.62095e-10
-7.80376e-09
2.61279e-08
7.63813e-08
-9.47054e-08
4.70853e-10
-9.05041e-08
-7.06594e-10
9.07399e-08
-9.75706e-08
9.73039e-08
1.21172e-10
1.45433e-10
1.25788e-07
-6.945e-08
-1.27597e-07
-5.93311e-08
-3.69138e-08
9.78867e-08
-1.64185e-09
1.4866e-07
1.12458e-08
-1.11769e-07
5.53972e-09
-1.34514e-07
1.63932e-08
-5.25492e-10
-1.69661e-07
-1.10991e-07
1.11239e-07
-3.16244e-10
6.39174e-08
8.94923e-08
-1.38534e-07
-1.25444e-08
-1.48914e-08
2.22688e-07
-6.59804e-10
-1.15165e-07
-2.55623e-09
9.45984e-08
-9.35815e-08
-4.63087e-12
-5.22761e-09
1.44668e-08
2.54495e-08
1.17791e-07
-2.0531e-08
1.12162e-07
-9.03738e-09
-3.19719e-09
1.23357e-07
-1.18707e-07
-1.45303e-09
-1.02182e-07
1.11706e-07
-5.95284e-09
1.17252e-07
5.22627e-09
-3.0554e-08
-9.1924e-08
1.14175e-07
1.56291e-09
-1.13667e-07
-2.07118e-09
-6.85096e-08
-5.1778e-08
6.82859e-08
8.64732e-08
1.58551e-09
1.51781e-07
1.87439e-08
-3.4715e-08
-1.4046e-08
3.69175e-09
-7.52299e-08
1.18442e-07