/*--------------------------------*- C++ -*----------------------------------*\
| =========                 |                                                 |
| \\      /  F ield         | OpenFOAM: The Open Source CFD Toolbox           |
|  \\    /   O peration     | Version:  2212                                  |
|   \\  /    A nd           | Website:  www.openfoam.com                      |
|    \\/     M anipulation  |                                                 |
\*---------------------------------------------------------------------------*/
FoamFile
{
    version     2.0;
    format      ascii;
    arch        "LSB;label=32;scalar=64";
    class       volVectorField;
    location    "0.018";
    object      U;
}
// * * * * * * * * * * * * * * * * * * * * * * * * * * * * * * * * * * * * * //

dimensions      [0 1 -1 0 0 0 0];

internalField   nonuniform List<vector> 
31639
(
(0.116276 0.000715903 -0.00052663)
(0.11459 -0.000272452 8.77251e-05)
(0.115732 -0.000195496 0.000606567)
(0.117791 0.000109274 -2.15694e-05)
(0.114916 -0.000586558 -0.000200712)
(0.114967 0.000126224 -0.000114939)
(0.113217 6.05835e-05 -0.000353248)
(0.115615 -9.46816e-05 -0.000119595)
(0.115618 0.000140684 -0.00017402)
(0.116884 -0.000232684 -0.000402453)
(0.117133 0.000439002 -0.000198747)
(0.116648 -0.000430835 -0.000600996)
(0.115085 -0.000226035 1.5733e-05)
(0.116546 7.13954e-05 4.57732e-05)
(0.11395 -0.000378401 1.53149e-05)
(0.113409 -0.000259368 0.000582844)
(0.115139 0.000219831 3.29004e-05)
(0.11316 2.87613e-05 0.00026827)
(0.113692 0.000170718 -0.00038651)
(0.115329 -5.94062e-05 -8.68537e-05)
(0.109872 -0.000239771 -0.000295142)
(0.11675 -0.000112994 -0.000354393)
(0.116778 0.000574711 -8.60093e-05)
(0.113982 0.000171541 -0.000149998)
(0.112807 -8.97372e-05 -0.000128987)
(0.11559 4.95754e-05 -3.4071e-06)
(0.115375 2.15667e-05 -9.82127e-06)
(0.118436 0.000235307 -0.0001281)
(0.11343 0.000371717 0.000608623)
(0.116442 0.000121083 0.000431313)
(0.117092 -9.20253e-05 -9.6709e-05)
(0.113012 -0.000113383 -0.000136687)
(0.117022 0.000288973 -0.000460229)
(0.113823 -5.57523e-05 -0.00013246)
(0.11107 -8.31371e-05 2.87304e-05)
(0.116973 0.000473991 -7.39067e-05)
(0.108882 -0.000200789 -1.73655e-05)
(0.117563 -0.000317726 0.000297758)
(0.116974 -0.000174609 0.000207625)
(0.108929 7.21975e-05 -8.67832e-05)
(0.11182 -7.34872e-05 -0.000267158)
(0.110547 -0.00025371 0.000158822)
(0.116567 0.000177073 -5.38799e-05)
(0.117237 -0.000665127 -0.000676904)
(0.116112 -0.000418419 0.000582745)
(0.117625 -0.000608626 -0.000329846)
(0.113251 0.000275204 -0.00017395)
(0.114485 0.00043628 -0.000365093)
(0.114934 7.92511e-06 0.000191578)
(0.117397 -0.000337115 -0.000197964)
(0.117402 -3.20725e-05 -0.000292933)
(0.109897 0.000249049 -0.000121306)
(0.117088 0.00037997 0.000100277)
(0.109213 -0.000109827 0.000186889)
(0.114881 -0.000178829 -0.000187678)
(0.11469 8.29273e-05 7.37855e-05)
(0.110562 2.55614e-05 -0.000507106)
(0.115288 0.000134352 0.000350754)
(0.115079 -1.06639e-05 0.000334524)
(0.111016 0.000142205 -0.000153094)
(0.11567 -3.4015e-05 -0.000270129)
(0.116144 0.000345213 -0.000199535)
(0.112878 -0.000147459 -0.000315714)
(0.115092 5.46415e-05 -0.000105478)
(0.115547 0.000262159 1.56393e-05)
(0.117593 -8.62138e-05 -0.000498748)
(0.115203 0.00015153 -0.000840877)
(0.115133 -0.000188858 6.04554e-05)
(0.111813 -3.07339e-05 -0.000217591)
(0.117489 0.000344888 -0.000189267)
(0.116612 -6.22309e-06 -0.000141137)
(0.11295 5.07568e-07 -0.000894303)
(0.116784 -0.000333477 -0.000613921)
(0.115463 -5.83034e-05 -0.0001837)
(0.116058 0.000227425 -6.64265e-05)
(0.109738 0.000113763 -0.000593228)
(0.117365 -0.000625034 0.000216843)
(0.114272 0.000284051 -0.000458075)
(0.114723 -0.000133695 0.000328211)
(0.116165 0.00021804 -5.7997e-05)
(0.112951 0.000103717 0.000133813)
(0.107836 2.98644e-05 7.57653e-05)
(0.117162 -0.000109842 2.13922e-05)
(0.115892 -0.00020646 -0.000176558)
(0.115649 -3.87589e-05 -0.000123423)
(0.117201 -0.000291404 -0.00024883)
(0.11759 1.73345e-05 9.64092e-05)
(0.11749 -8.60777e-05 -0.000246301)
(0.110447 0.000859591 -0.00119604)
(0.116877 -0.000149712 -0.000358732)
(0.115783 -0.000130549 0.000206348)
(0.114192 -0.00032428 -0.000131073)
(0.11121 -0.000372567 -0.000264918)
(0.114252 0.000377124 -0.000562631)
(0.112871 -0.000632346 -0.000300395)
(0.114159 0.00085697 0.000193663)
(0.115094 0.000261996 -0.000334261)
(0.115418 -7.6651e-05 0.000251456)
(0.115152 0.000116422 8.29571e-05)
(0.11071 -0.000646267 -0.000111583)
(0.115908 2.32764e-05 -5.9701e-05)
(0.115976 0.000271928 0.000491358)
(0.114111 -0.000193442 -0.000164468)
(0.10974 5.13145e-05 -0.000158939)
(0.110901 5.09191e-05 -0.00032834)
(0.117735 -0.000428699 -0.000245174)
(0.109463 0.000391938 -0.000355142)
(0.11023 -0.000513795 -0.000666333)
(0.112262 0.000421428 5.82484e-05)
(0.109221 -4.557e-06 0.000383074)
(0.11641 -0.00070884 0.000139383)
(0.111236 -1.9624e-05 -0.000224061)
(0.114893 -0.000124196 -0.000293391)
(0.113774 -0.000452399 -0.000504008)
(0.115526 0.000133043 -0.000513469)
(0.10995 -0.000337504 0.000215183)
(0.114017 0.000352085 -0.000116637)
(0.11353 -0.000461522 -4.27346e-05)
(0.115839 -3.87378e-05 -2.38159e-05)
(0.114864 -0.000173824 0.000131586)
(0.115337 -0.000455566 -3.29438e-05)
(0.116771 -0.000450744 0.000349255)
(0.117162 0.000128073 -0.000490742)
(0.115664 0.000323953 -0.000623984)
(0.115501 -1.08035e-05 -0.000686371)
(0.116543 -0.000200023 5.46142e-05)
(0.114903 3.15577e-05 0.000266699)
(0.112871 0.000231709 -0.000166221)
(0.112752 -0.000509872 -0.000187864)
(0.116798 -0.000214935 9.21911e-05)
(0.116561 -2.88856e-05 -0.000226979)
(0.116952 0.000200044 -0.000311549)
(0.116543 -0.000257944 5.81401e-05)
(0.114795 -3.95394e-05 4.74044e-05)
(0.116567 -3.95836e-05 -0.000170971)
(0.115532 -3.63711e-05 4.62602e-06)
(0.110943 -9.26463e-05 -0.000281487)
(0.11035 -0.000680958 -0.000332721)
(0.117195 0.000439814 0.000476993)
(0.11529 -0.000288986 -0.00026754)
(0.115103 -2.03421e-05 -0.000198078)
(0.11744 0.000156687 0.000855616)
(0.116967 0.000431732 0.000144635)
(0.109762 -0.00020019 -0.000344116)
(0.110176 -0.000160339 -0.000585002)
(0.11644 -0.000158652 -6.09732e-06)
(0.116407 -0.000272879 -0.000264702)
(0.110632 -0.000108547 -0.000326534)
(0.111218 -5.05609e-05 7.60462e-05)
(0.11662 -0.000220662 -0.000129629)
(0.11286 -1.51156e-05 -0.000837484)
(0.114596 0.000127649 9.95162e-05)
(0.114284 -0.000128337 -0.000642866)
(0.116305 -0.000115236 -6.61647e-05)
(0.111271 0.000623374 -0.000848772)
(0.117693 3.22907e-06 0.000100824)
(0.115645 -0.000128442 -0.000223897)
(0.11202 -0.001006 -1.90905e-05)
(0.111018 -0.000640088 0.000783408)
(0.113654 -0.00030486 -0.000251882)
(0.117477 -7.01728e-05 -0.000383937)
(0.109948 0.0002517 0.000146967)
(0.111419 5.02363e-05 -0.000863523)
(0.110432 -0.00026872 0.000125616)
(0.110221 -0.000940257 0.000207461)
(0.113884 3.7557e-05 2.27137e-05)
(0.110439 0.000456634 0.000120065)
(0.11698 -0.0005809 0.000143482)
(0.11728 -0.00036499 0.000169961)
(0.110314 0.000154445 -0.000543317)
(0.112074 -0.000423229 0.000293269)
(0.114633 0.000426792 -0.000569659)
(0.110974 -8.98393e-05 -9.01709e-05)
(0.115543 -0.000114707 0.000382825)
(0.117549 -0.00019139 -0.000299485)
(0.116184 -0.000520417 -0.000285851)
(0.1154 0.000532753 9.47435e-05)
(0.116704 0.000192416 0.000318917)
(0.115782 -0.000364065 -4.81319e-05)
(0.114706 -0.000193086 -0.000275961)
(0.115066 8.03484e-05 -0.000127878)
(0.114154 -0.000491806 0.000631481)
(0.114269 0.000193433 0.000160932)
(0.109095 0.000978236 -0.000332364)
(0.115168 2.57691e-05 0.000314715)
(0.116976 0.000512351 -0.000355217)
(0.113986 -0.000128502 0.00034611)
(0.116601 0.000224195 -2.46332e-05)
(0.111097 -0.000245381 5.7869e-05)
(0.109614 -0.000139917 0.000291311)
(0.117256 -9.21959e-05 -0.000220382)
(0.116455 -0.000178516 -7.36196e-05)
(0.114963 -0.000288952 0.000542479)
(0.115017 -4.5105e-05 0.000194189)
(0.115448 2.70557e-06 -0.000154384)
(0.114519 2.96673e-06 -0.000378659)
(0.11428 0.000515936 0.000395926)
(0.116765 0.000234601 -0.00025294)
(0.110786 4.98779e-06 -0.00019345)
(0.113924 0.000275351 -0.000189095)
(0.117259 0.000129484 1.15565e-05)
(0.116796 -0.000229393 -0.000166896)
(0.116041 -0.000432252 -7.09318e-06)
(0.115574 -0.001052 -0.000183174)
(0.114817 -0.000419814 -0.000286169)
(0.114706 -8.36987e-05 -0.000287689)
(0.115213 -0.00011354 -0.000282555)
(0.114564 0.000354096 -0.000316273)
(0.116456 -2.11694e-05 -0.000297884)
(0.109829 -0.000130479 -9.05399e-05)
(0.115228 1.09146e-05 -0.000122616)
(0.11417 0.000452997 -9.94148e-05)
(0.115364 -3.80866e-05 -0.000369078)
(0.116437 -1.58532e-06 -0.000428313)
(0.115869 -0.000345463 -0.000375768)
(0.116945 -9.53196e-05 -0.000225509)
(0.111204 -0.000930606 -0.00030843)
(0.11291 -0.000301489 0.000282389)
(0.116457 -0.000274903 -0.000268651)
(0.11727 -0.000175716 0.000204906)
(0.116623 2.67412e-05 0.00017174)
(0.114532 -0.000278529 -0.000472112)
(0.108675 -6.24261e-05 0.000653836)
(0.115096 -0.000603079 0.000390171)
(0.110219 -0.000270518 -0.000249898)
(0.113241 0.000270131 -2.90539e-05)
(0.116504 -0.000347782 0.000407515)
(0.112976 0.000358757 0.000418684)
(0.110107 0.000326986 -0.000196879)
(0.11512 8.72065e-05 0.000185523)
(0.115908 0.000220564 -0.000183975)
(0.117182 -0.000130369 -6.15773e-05)
(0.110521 -0.000105345 -7.95883e-05)
(0.109548 -0.000410288 0.000124509)
(0.115472 -0.000310458 0.00019933)
(0.116492 0.000112084 -0.000525504)
(0.110675 7.87128e-05 0.000394367)
(0.116872 -0.000741501 0.000199079)
(0.112466 7.68254e-05 -0.000371486)
(0.110998 -0.000239605 0.000113782)
(0.114993 0.000174212 -0.000175491)
(0.115809 -0.000176157 -2.86758e-05)
(0.114159 -0.000710508 5.13306e-05)
(0.112544 0.00026685 0.000754913)
(0.113094 0.000134957 0.00020675)
(0.11484 -0.000116677 -9.07562e-05)
(0.114699 0.000458312 -0.000223409)
(0.113466 0.00014776 -0.000638638)
(0.110257 -0.000419052 0.000403513)
(0.114911 0.000263888 -0.000318471)
(0.115002 5.50075e-05 -0.000375532)
(0.111803 -0.000207853 -6.16022e-05)
(0.11301 -0.000806252 6.04065e-05)
(0.11679 -3.18997e-05 -8.9565e-05)
(0.117157 0.00051172 5.16362e-05)
(0.114672 0.000543864 -0.000128998)
(0.111029 3.83074e-05 -3.56193e-05)
(0.11697 0.000238742 -0.000228113)
(0.116231 0.000314927 -0.000496524)
(0.114259 -0.000277203 -0.000411575)
(0.117694 0.000229226 0.000677782)
(0.117472 0.000143586 -0.000306428)
(0.115921 0.000155638 -0.000437497)
(0.117174 0.00010491 9.89061e-05)
(0.114334 0.000341182 5.16186e-05)
(0.114398 -0.000246583 -0.000585552)
(0.109701 0.00031237 -0.0013437)
(0.113086 -0.000180838 -0.000198293)
(0.116858 -0.000585323 0.000111228)
(0.114014 3.32081e-05 0.00032922)
(0.116134 0.000257586 3.33457e-05)
(0.114202 0.000433456 -0.000528454)
(0.114945 -0.000194573 6.37311e-05)
(0.115654 0.000282743 0.000263893)
(0.117482 0.000146849 -0.000470127)
(0.115491 0.000497575 0.000171544)
(0.110405 0.00012159 2.98556e-06)
(0.114 5.30239e-05 4.6497e-05)
(0.111854 0.00123306 -0.000293854)
(0.117377 -5.19874e-05 -0.000673239)
(0.11409 -0.000514573 -0.000218621)
(0.116353 -4.78878e-05 -0.000411048)
(0.115424 -2.72073e-06 -0.000350313)
(0.112961 -6.06568e-05 -0.00044504)
(0.110244 3.6934e-05 -1.73729e-05)
(0.111312 0.000182749 -0.000503707)
(0.111095 0.000179059 9.77558e-05)
(0.109823 -0.000228212 8.63923e-05)
(0.117592 -0.000348764 -0.000220008)
(0.110721 -0.000336073 -0.000480119)
(0.115761 -0.000231159 0.000253935)
(0.115676 0.00045067 -0.000147984)
(0.113822 -4.55591e-05 -0.000174331)
(0.111508 -7.28397e-05 -7.3322e-05)
(0.116903 -0.000645365 0.000100235)
(0.114114 9.83523e-05 -0.000650341)
(0.112379 0.000121559 0.000493203)
(0.116657 0.000267568 -0.000336772)
(0.11521 -0.000169718 -0.000118417)
(0.111259 0.000330554 0.000281813)
(0.114338 3.10091e-05 -0.000127887)
(0.111005 0.000199259 -8.57189e-06)
(0.115448 0.000336406 -0.000174176)
(0.11479 0.000165137 -0.000132991)
(0.111342 0.000283323 0.000642409)
(0.114425 2.37828e-06 -0.000245058)
(0.114264 0.00072285 0.000248878)
(0.108705 0.00011182 -0.000969942)
(0.108973 0.000335136 0.000318062)
(0.116384 -0.000504295 0.000212224)
(0.11721 0.000154516 -2.02264e-05)
(0.117487 0.000109522 -8.97785e-05)
(0.110124 0.000135827 7.32226e-05)
(0.111297 4.93644e-05 0.000272452)
(0.116838 0.000233909 0.000245419)
(0.112482 -0.000206259 -0.000200588)
(0.112037 0.000574195 -0.000661463)
(0.116564 0.000197287 0.000451624)
(0.116848 -0.000296763 -0.000128363)
(0.11405 -0.000621788 1.20237e-05)
(0.116662 -0.000758637 -0.000294768)
(0.117557 -2.38168e-05 -0.000221574)
(0.110687 -0.000107298 -0.000171766)
(0.117605 -0.000649837 -0.000420171)
(0.109003 0.000353301 -0.000109812)
(0.109852 -3.58585e-05 -7.25419e-05)
(0.117091 -0.000391909 -0.00020093)
(0.116523 -0.00049113 -0.000113935)
(0.117556 0.000156836 -0.000442869)
(0.117426 0.000551029 -0.000698455)
(0.116091 1.53426e-06 -0.000465825)
(0.111873 0.00093492 -0.000428205)
(0.113661 -0.000733311 0.000530916)
(0.114882 -5.79729e-05 1.98443e-05)
(0.116187 -0.000749847 0.000161426)
(0.117075 0.000736627 0.000418408)
(0.117058 -0.00052282 0.000188037)
(0.115047 0.000155961 -0.000139949)
(0.113493 -0.000663867 0.00046018)
(0.114725 -0.000195156 7.80335e-06)
(0.117021 9.80206e-05 -0.000203247)
(0.115955 -6.74453e-05 -0.000792713)
(0.113805 0.000107087 -0.000305441)
(0.115173 -0.000273128 -2.17213e-05)
(0.114856 0.000523322 -0.000367586)
(0.114068 -0.000286455 -0.00024584)
(0.116068 -0.000138646 -7.80832e-05)
(0.11392 -0.000609576 0.000585311)
(0.110914 -0.000100911 7.2063e-05)
(0.114834 0.000420609 -0.000523302)
(0.116594 -0.00011547 -0.000135981)
(0.113571 6.40479e-05 -0.000165259)
(0.115901 0.000242549 0.000151326)
(0.116878 -0.000549575 0.00012456)
(0.115548 4.0833e-05 -0.000100379)
(0.111552 0.000428779 -0.000231596)
(0.114971 0.000229736 -0.000349703)
(0.114321 0.000233926 0.000103029)
(0.109949 0.000258716 -0.00038018)
(0.116327 -0.000689249 0.00011875)
(0.110147 0.000391167 0.000331321)
(0.115449 -9.68603e-05 -0.000369287)
(0.117096 -0.000643393 -6.22102e-05)
(0.110551 -0.000202684 8.39011e-05)
(0.11527 0.000245549 2.00526e-05)
(0.114641 0.000247818 0.000453762)
(0.110385 -0.000192245 0.000175996)
(0.115354 -0.000105371 -7.08673e-05)
(0.111531 2.671e-06 -0.000257703)
(0.114287 -6.47081e-05 0.000482259)
(0.116705 0.000476586 0.000114583)
(0.11542 -1.08047e-05 0.000205197)
(0.10969 0.000297385 -0.00015482)
(0.115918 0.000128149 5.99258e-07)
(0.11126 0.00019652 -0.00040245)
(0.115903 -0.00014915 -3.77593e-05)
(0.116104 0.000226751 3.27679e-05)
(0.116334 -0.000380579 -0.000304239)
(0.116904 -0.000245719 -0.00041976)
(0.110634 -4.86392e-05 -0.000340829)
(0.11646 -0.00079254 0.000214091)
(0.110236 -3.73492e-05 -0.000455936)
(0.114647 8.28212e-05 -0.000250148)
(0.110589 0.000171878 -9.71024e-05)
(0.117591 -4.6742e-05 -0.000124574)
(0.117295 6.49391e-05 -0.000172159)
(0.11766 -0.000142252 3.80491e-05)
(0.117237 -0.000405819 -0.000448163)
(0.114683 -0.000155992 -0.000163919)
(0.116232 -6.10619e-06 0.000113955)
(0.115107 0.000188253 7.04203e-06)
(0.11517 3.98541e-05 -0.000163781)
(0.115144 0.000152911 -0.000322687)
(0.111258 8.11815e-05 3.12972e-05)
(0.11586 -0.000195485 -0.000250873)
(0.114939 -0.000284402 -0.000140396)
(0.115419 -0.000265183 -0.00023914)
(0.116663 0.000111749 1.16325e-05)
(0.116019 -2.67842e-05 -0.000441877)
(0.116082 2.62072e-05 8.61175e-05)
(0.114171 -0.000464092 8.84428e-05)
(0.109945 -1.21238e-05 0.000543963)
(0.114111 0.000128089 0.000356344)
(0.116206 6.68442e-05 4.55182e-05)
(0.11599 -0.000214284 0.000192108)
(0.110469 -0.000410102 -0.000345496)
(0.1173 2.97286e-05 -0.000321758)
(0.117064 1.29936e-05 -0.000532319)
(0.114254 7.47686e-05 -0.000549923)
(0.116551 -0.000259164 -0.000459246)
(0.11689 -8.70722e-05 -0.000769798)
(0.115618 -0.00010202 -0.000398631)
(0.116291 -0.000185117 -4.61597e-05)
(0.110169 -0.000218628 -0.000105715)
(0.115602 -0.000155504 8.57879e-05)
(0.116333 -0.000291651 0.000231604)
(0.108944 0.000131748 -0.000115287)
(0.114924 -0.000438879 8.82774e-05)
(0.115892 -0.000323942 -0.000235387)
(0.11231 0.000156557 8.92914e-05)
(0.109966 -0.000210653 -8.15891e-05)
(0.110111 -0.000141268 0.000515788)
(0.113669 -0.00071409 7.83516e-05)
(0.109815 7.47737e-05 -7.48486e-05)
(0.114672 -5.85144e-06 0.000166539)
(0.115345 -0.000175444 8.13607e-05)
(0.11263 0.000455252 0.000297854)
(0.11597 0.000494846 -0.000237761)
(0.110921 -0.000115486 6.71067e-05)
(0.11622 0.000356505 0.000232004)
(0.11772 0.000100095 1.59308e-05)
(0.115002 -0.000122697 -3.28315e-06)
(0.115836 -2.6133e-05 0.000378484)
(0.114037 -3.29957e-05 -6.2842e-06)
(0.117151 0.000565014 -0.000289889)
(0.115544 0.000442949 -0.000110674)
(0.1147 1.4095e-06 -0.000486442)
(0.117732 -2.72899e-05 -0.00034771)
(0.115359 -0.000112486 -0.000277154)
(0.110557 -0.000113103 0.000162962)
(0.115129 -3.55835e-05 -0.000100969)
(0.117659 0.000109983 -0.000678437)
(0.117193 0.000237224 -0.000384312)
(0.116139 -7.31353e-05 0.000352287)
(0.116952 0.000247559 -0.00013017)
(0.115099 -0.000507724 0.000196603)
(0.115864 -0.000193919 9.48034e-05)
(0.115622 0.00015653 0.000256452)
(0.116573 0.000149656 -0.000271363)
(0.116716 -0.000572422 -7.16957e-05)
(0.109787 -0.000261681 -0.000149518)
(0.114426 -0.000361906 0.000139049)
(0.108665 -0.000188435 0.000100597)
(0.113593 0.000369032 0.000508472)
(0.114263 0.000105103 -0.000397688)
(0.110428 -0.000467119 0.00049191)
(0.109731 -0.000301847 -0.000435103)
(0.114333 0.000245209 -0.000226503)
(0.115674 -0.000316919 -2.30021e-05)
(0.116644 9.70499e-05 -0.000380302)
(0.110649 1.74388e-05 0.000293304)
(0.115572 -0.000213685 0.000206136)
(0.114058 -0.000130046 7.53166e-05)
(0.115127 -0.000100711 -0.000494347)
(0.115518 0.00010194 -0.000369142)
(0.113018 0.0016982 0.00204166)
(0.115159 6.69941e-05 -0.000495345)
(0.11041 3.42302e-05 0.000313637)
(0.11418 -0.000203424 -0.000166413)
(0.116493 -9.96307e-05 -5.64596e-07)
(0.117706 0.000915353 0.000431066)
(0.116971 0.00013851 -0.000635745)
(0.114815 0.000661163 -0.000407116)
(0.109878 0.000218255 0.000559273)
(0.115759 -0.000246048 2.70217e-05)
(0.115779 -1.453e-05 -0.000228643)
(0.116687 -0.000264469 -0.000314075)
(0.109729 4.84989e-05 4.30304e-05)
(0.1115 -6.95834e-05 0.000173615)
(0.114467 0.000272762 0.000264329)
(0.111421 0.000340852 -0.000276976)
(0.109705 -0.00036063 -9.77723e-05)
(0.116059 9.72627e-05 -0.000352637)
(0.111037 -1.03903e-06 -8.52345e-05)
(0.113474 0.000649255 0.000131026)
(0.110546 -0.00045213 -0.00063788)
(0.11586 0.000126281 -2.3236e-05)
(0.111157 0.000119107 -0.000159996)
(0.117232 -8.07272e-05 0.000263412)
(0.116598 0.000114245 -0.000209739)
(0.117472 -0.000166419 0.000463552)
(0.11741 -9.10401e-05 -0.000131691)
(0.110765 -5.7942e-05 0.000143243)
(0.117035 0.000162397 0.00021818)
(0.117503 -6.31575e-05 -0.000227164)
(0.11493 -0.000315006 0.000177373)
(0.116001 0.000343721 -0.000185063)
(0.115872 -0.00028197 -0.000186229)
(0.117337 0.000247534 2.99588e-05)
(0.116468 0.000275287 0.000529358)
(0.112673 2.35334e-05 -0.000359346)
(0.117916 -1.74854e-05 -6.08815e-05)
(0.11749 -0.000157285 0.000219957)
(0.115451 -8.15595e-05 0.000120615)
(0.113632 -0.000365405 -0.000623455)
(0.11685 -0.000411719 -0.000167692)
(0.115455 0.00026405 -0.000176063)
(0.109062 0.000504405 -0.000277996)
(0.109101 0.000351675 -9.12299e-05)
(0.114863 2.3724e-05 0.000118278)
(0.116698 4.90703e-05 7.61194e-05)
(0.117523 -0.00010289 -0.000164728)
(0.113383 -0.000218892 -9.39672e-05)
(0.116489 0.000341828 0.000200081)
(0.11571 -0.000122865 0.0003607)
(0.117489 0.00093483 0.000833577)
(0.115044 -2.35229e-05 -2.11193e-05)
(0.113891 0.000402124 -0.000267787)
(0.114879 -0.00148831 0.000944907)
(0.110388 -0.000101889 -0.000143578)
(0.114491 1.46387e-05 0.000121694)
(0.115106 2.04033e-06 -0.000105092)
(0.116923 5.35095e-05 -0.000110964)
(0.111583 -0.00021937 5.51559e-05)
(0.111673 0.000226058 -0.000361694)
(0.112514 -1.28019e-05 -0.000345325)
(0.113263 -0.000421079 -0.000106147)
(0.11523 -6.66585e-05 -0.000372499)
(0.109896 -7.2311e-05 -0.000466615)
(0.116374 0.000404416 -0.000544679)
(0.113778 0.000135564 -7.39429e-05)
(0.115709 -1.02198e-05 0.000617046)
(0.11405 -0.000143878 -0.00014248)
(0.117666 -0.000285744 -0.000230808)
(0.114698 7.55852e-06 -0.000530622)
(0.110022 8.7087e-05 0.000424104)
(0.115471 0.000694871 0.000175789)
(0.117578 -0.000132569 -0.000731135)
(0.110734 0.000235303 0.000820829)
(0.116429 -3.39005e-05 -0.000518652)
(0.117456 -0.000874224 -0.000250087)
(0.115288 -0.000353773 0.00014345)
(0.114608 0.000224536 0.000154279)
(0.118882 -0.000120353 -0.00021188)
(0.112601 2.10956e-05 -0.000113606)
(0.115235 -0.000316639 -0.00013707)
(0.115043 0.000180838 -3.51878e-05)
(0.111007 -3.1468e-05 -3.6362e-06)
(0.111137 -6.64678e-05 -0.0010185)
(0.114436 0.000235792 0.000170596)
(0.112746 0.000500023 0.000172079)
(0.116127 -4.85719e-05 -0.000217672)
(0.112263 -0.000257333 0.000280573)
(0.113985 0.00030224 0.000359101)
(0.117424 5.08488e-05 0.000250923)
(0.114725 6.65451e-05 -0.000101806)
(0.109901 0.000249211 0.000111922)
(0.112596 0.000210151 -4.63044e-05)
(0.115589 0.000264307 -9.08109e-05)
(0.117422 -0.000123384 6.01667e-05)
(0.109854 0.000526259 0.000424329)
(0.109734 3.43715e-06 0.000194062)
(0.117583 0.000102686 0.000666915)
(0.110098 0.000145069 7.90447e-05)
(0.115944 -0.000152649 -9.93172e-05)
(0.116163 0.000195095 -0.000165127)
(0.111053 -9.95065e-05 -0.000686317)
(0.115535 0.00028623 -2.51855e-05)
(0.116928 9.75827e-05 -0.000118415)
(0.114594 4.93447e-05 0.000623505)
(0.108843 -1.95442e-05 0.000190586)
(0.117358 0.000119837 2.67529e-06)
(0.114612 -8.34666e-05 -0.000278134)
(0.109837 0.000481575 -6.10972e-05)
(0.117419 2.01785e-05 -0.000100202)
(0.11464 -9.63606e-05 -9.09492e-05)
(0.114135 0.000326718 -0.000284433)
(0.116061 -0.000504874 9.77669e-05)
(0.109828 0.000714989 -0.000349909)
(0.113503 -6.6481e-06 -0.000764386)
(0.113822 -0.000382082 1.85428e-05)
(0.114295 0.000178665 -0.000291823)
(0.110974 -5.00336e-05 0.000396189)
(0.112648 1.9222e-05 6.16119e-05)
(0.116195 0.000611347 0.000135805)
(0.11797 -0.000485858 -0.000783393)
(0.117944 -0.000446426 0.000400358)
(0.116966 -4.99479e-05 -1.36907e-05)
(0.117275 -0.000450757 -0.000129497)
(0.115977 4.0139e-05 -0.000904244)
(0.112237 -0.000180944 0.000263362)
(0.11789 7.02378e-05 -0.000698941)
(0.11613 -6.66664e-05 -0.00013249)
(0.116625 0.0006009 0.000391057)
(0.111224 0.000588383 -0.000176875)
(0.11552 -0.000192445 -0.000229343)
(0.11535 0.000163839 0.000343148)
(0.117887 0.000767407 0.00010343)
(0.110324 -8.92885e-05 0.000193315)
(0.109357 -0.000524796 0.000220099)
(0.11711 4.65328e-05 -0.000313346)
(0.11267 -0.000214443 -0.000247193)
(0.116758 0.000157373 -3.14801e-05)
(0.113863 -9.64644e-05 -0.000243116)
(0.111152 -5.5013e-05 -0.000539821)
(0.115222 8.63256e-05 -0.000617415)
(0.117252 0.000405952 -0.000146635)
(0.114504 0.00025252 2.35455e-05)
(0.116378 0.000721945 -0.000151591)
(0.110582 7.30238e-05 -0.00126385)
(0.116506 0.000953022 0.000578631)
(0.11597 -7.00725e-05 -0.00035299)
(0.109385 0.00027346 -4.18568e-05)
(0.116455 -5.06165e-05 -0.000260547)
(0.116763 -0.000317616 9.3925e-05)
(0.117999 0.00061127 0.00115306)
(0.110842 -0.000562335 -0.000771568)
(0.110307 0.000212699 -0.000595759)
(0.113748 0.000322712 -0.000311091)
(0.114903 1.71522e-05 0.000633458)
(0.115097 -0.000163768 0.00011384)
(0.114702 0.000298458 0.000114878)
(0.114557 0.000270991 0.000317828)
(0.117024 0.000116235 -3.3689e-05)
(0.115363 -0.000255794 5.51305e-05)
(0.115645 0.000124946 6.22307e-05)
(0.111187 -0.000175752 0.000493575)
(0.117424 -0.000120692 -0.000794297)
(0.110318 -0.000130654 -0.000133058)
(0.115487 0.000671878 4.23382e-06)
(0.114225 0.000314774 -0.000153164)
(0.113642 -0.000628956 -0.000339499)
(0.116294 0.000257172 -0.000109149)
(0.113861 -0.000453015 -0.000405348)
(0.111325 -0.000577768 -0.000415388)
(0.10976 -2.93081e-05 -0.000370099)
(0.110658 -0.000199202 -0.000145857)
(0.113787 -0.000401192 -0.000292952)
(0.116407 0.00056146 0.000390581)
(0.110648 0.000379078 0.00106619)
(0.116396 -0.000226851 -5.94375e-05)
(0.113847 9.60565e-05 -0.000549922)
(0.117441 -0.000232408 -0.000337613)
(0.110157 -5.15304e-05 -0.000596692)
(0.113832 0.000304705 0.000454487)
(0.116804 -0.000180103 -0.000348938)
(0.116913 -0.000501626 -8.89577e-06)
(0.116555 0.000156105 -0.00023498)
(0.117304 -0.00018272 -6.56123e-05)
(0.115672 4.64127e-05 0.000232767)
(0.114653 0.000516104 0.000131662)
(0.117041 -7.51437e-05 0.000340583)
(0.116818 0.000231359 -9.27729e-06)
(0.117401 0.000174467 0.000119614)
(0.111808 0.00068662 -0.000173309)
(0.117215 -0.000426289 -0.000396024)
(0.109935 -0.000225445 0.000342369)
(0.117492 0.000563493 -0.000107787)
(0.115224 0.000235068 -0.000138406)
(0.114464 -3.98762e-05 -0.00027459)
(0.110686 0.000595964 4.09613e-05)
(0.114749 0.000952059 -0.000587609)
(0.108653 -0.000967212 -0.00019018)
(0.116334 -6.33997e-05 -0.000184949)
(0.114466 0.000114923 -0.000213888)
(0.116981 -5.3521e-05 -0.000195841)
(0.114204 0.000411348 -0.000225854)
(0.114598 0.000833969 -0.000199952)
(0.11048 -0.000240396 0.000416411)
(0.117346 0.000138332 8.22984e-05)
(0.111044 -0.000495896 0.000123658)
(0.109007 -0.000219139 -0.000263746)
(0.110918 -0.000197317 7.77006e-05)
(0.1115 0.000121955 0.000129757)
(0.111139 0.000629831 1.45031e-05)
(0.114901 -0.000267011 5.81687e-05)
(0.110009 0.000146087 -7.83492e-05)
(0.116182 -0.000793853 0.000101695)
(0.115904 5.20237e-05 -0.00043053)
(0.108845 -9.5642e-05 4.80854e-05)
(0.116115 0.000299349 5.03159e-05)
(0.110751 0.000303712 -0.000555746)
(0.113674 0.000704066 9.84687e-05)
(0.115129 0.000184582 0.000118509)
(0.114095 -0.000151292 -0.000784988)
(0.116082 9.73187e-06 -0.000126342)
(0.117839 0.000126454 -0.000617649)
(0.116398 0.00010017 0.000475158)
(0.115666 1.72677e-05 -0.000231203)
(0.115274 -0.000240705 -0.000715451)
(0.116348 0.000409701 0.000218607)
(0.11345 0.000129621 8.27662e-05)
(0.114008 0.000181931 9.78914e-05)
(0.10963 0.000596897 -0.000561821)
(0.110478 0.00225684 0.00303614)
(0.117121 2.62415e-05 6.00624e-05)
(0.115165 -4.99022e-05 -0.000136655)
(0.115941 -0.00022264 -0.000109256)
(0.116547 1.02842e-05 3.56789e-06)
(0.109834 -0.000408412 -0.000116483)
(0.116896 -5.47179e-05 -0.000357603)
(0.117123 0.000448525 -0.000134152)
(0.117135 1.25378e-05 0.000185604)
(0.117062 3.92423e-05 0.000152999)
(0.11614 0.000265416 0.000240298)
(0.115659 -0.000382206 -0.000276693)
(0.117207 -0.000101481 2.66636e-06)
(0.117428 -0.000120528 0.000353738)
(0.115859 0.000230127 0.00029431)
(0.117043 4.92313e-05 -0.000147697)
(0.116197 -0.000329305 -0.000379349)
(0.111709 -0.000257612 -0.000350157)
(0.116858 -7.76093e-05 0.000189221)
(0.112341 6.81741e-05 0.000473706)
(0.115031 -7.69314e-05 -3.60189e-05)
(0.115344 -0.000510949 -0.00018089)
(0.114936 -0.000521737 8.20848e-05)
(0.113453 0.000546145 -3.51896e-05)
(0.11624 0.000240459 -0.000190182)
(0.114067 0.000424986 0.000353516)
(0.115779 0.000131204 -0.000242054)
(0.113884 0.000808947 -0.000333028)
(0.110032 0.000677729 -0.000475374)
(0.117857 0.000306683 -0.000204059)
(0.115703 0.000408783 -0.000142941)
(0.113186 -3.57265e-05 0.000512938)
(0.110083 -0.000514047 -3.53805e-05)
(0.116866 -0.000456085 -9.41946e-05)
(0.109642 -0.000586363 -0.000469789)
(0.117354 -0.000196645 -3.42172e-05)
(0.115741 -4.08044e-05 0.000361229)
(0.114279 0.000802729 -0.000288833)
(0.116124 -0.000283765 0.000343528)
(0.117375 -1.74226e-05 -0.000435726)
(0.11559 -0.000324585 1.40671e-05)
(0.110021 -0.000117927 0.000121371)
(0.114408 -0.000251139 -0.000238233)
(0.112141 0.000264256 -0.000417862)
(0.114896 2.36001e-05 -7.63534e-05)
(0.109872 -0.000513162 -0.00076217)
(0.115833 -0.000132094 -0.000318453)
(0.116269 -0.000392802 0.000406142)
(0.113083 0.000275517 -0.000419387)
(0.114851 3.33287e-05 1.38047e-05)
(0.113024 1.06132e-05 6.37317e-05)
(0.116198 -5.09788e-05 -0.000264356)
(0.113259 -0.000563068 0.00021987)
(0.114669 0.000328296 0.000152336)
(0.110205 -0.00020695 0.000109906)
(0.117186 -8.1418e-05 3.50917e-05)
(0.115189 -0.000436645 -0.000228123)
(0.117064 0.000292588 0.000259031)
(0.112389 0.000418343 -0.000256146)
(0.115405 -7.10704e-05 -0.00017664)
(0.115809 0.000104605 -0.000212551)
(0.114233 8.3811e-05 0.000471755)
(0.114543 -3.6645e-05 5.8749e-05)
(0.1147 8.20299e-05 0.000363348)
(0.117049 -0.000335109 6.93691e-05)
(0.114901 -0.000179056 -0.00011986)
(0.110533 -1.05315e-05 -0.000154476)
(0.109315 -0.000232928 -0.000467648)
(0.116202 -0.000350995 -8.97029e-05)
(0.109827 0.000392857 -0.000571661)
(0.112535 -0.000560965 -0.000872607)
(0.114942 0.000264705 -0.000179383)
(0.115136 0.000216893 -7.02754e-05)
(0.117387 0.000491976 -0.00017317)
(0.109665 -0.000176906 -7.17379e-05)
(0.115205 -8.99757e-05 -0.000537761)
(0.117592 -4.99275e-06 -0.000264994)
(0.110826 0.000732603 -0.00193887)
(0.110962 0.00122055 0.000219914)
(0.114611 -0.000134101 -0.000539186)
(0.111178 -0.000104236 -4.33204e-06)
(0.115385 4.04715e-05 -0.000328484)
(0.110913 -0.000249551 6.67631e-05)
(0.116929 -0.00065849 -0.000296561)
(0.112243 0.000112818 0.000435306)
(0.113135 0.000213819 0.000341062)
(0.117754 0.000209492 0.000549347)
(0.109333 -0.000159736 0.000267335)
(0.113887 9.96104e-05 0.000295542)
(0.113748 -4.34638e-05 0.000453244)
(0.117252 -8.91536e-05 -0.000550531)
(0.117303 3.44431e-05 0.000176053)
(0.116721 3.00243e-05 -0.000196258)
(0.110767 0.000624966 0.000404945)
(0.116077 -0.000122384 -0.000433192)
(0.116641 0.000165735 0.000601003)
(0.112705 -0.000347153 -9.62161e-05)
(0.117062 0.00017221 -0.000190902)
(0.116478 0.000123201 0.000108587)
(0.116033 0.00028135 1.23864e-05)
(0.116627 -0.000119174 -0.000398281)
(0.115448 6.08495e-05 -0.000212123)
(0.117716 0.000160444 0.000209605)
(0.117153 0.000578203 0.000673884)
(0.117291 -0.000207586 1.33594e-06)
(0.115771 0.000367807 0.00025656)
(0.114089 -0.000141227 -0.000435851)
(0.115631 0.000191803 7.73049e-05)
(0.115285 0.000157563 -0.000271124)
(0.110117 -0.000705455 -0.000138097)
(0.114596 -0.00053085 0.000112217)
(0.115698 -3.19271e-05 0.000385929)
(0.117066 -0.000211098 -0.000182068)
(0.116945 -0.000297021 -0.000489907)
(0.114866 -0.000341279 0.000112516)
(0.11806 0.000742771 2.59502e-05)
(0.116791 4.56241e-05 -6.2889e-05)
(0.113716 -0.000585443 0.000627005)
(0.115626 7.42319e-05 -0.000385282)