/*--------------------------------*- C++ -*----------------------------------*\
| =========                 |                                                 |
| \\      /  F ield         | OpenFOAM: The Open Source CFD Toolbox           |
|  \\    /   O peration     | Version:  2212                                  |
|   \\  /    A nd           | Website:  www.openfoam.com                      |
|    \\/     M anipulation  |                                                 |
\*---------------------------------------------------------------------------*/
FoamFile
{
    version     2.0;
    format      ascii;
    arch        "LSB;label=32;scalar=64";
    class       surfaceVectorField;
    location    "0.018";
    object      Uf;
}
// * * * * * * * * * * * * * * * * * * * * * * * * * * * * * * * * * * * * * //

dimensions      [0 1 -1 0 0 0 0];

internalField   nonuniform List<vector> 
68568
(
(0.1157 0.000410355 -0.000176481)
(0.115124 0.000649334 -0.000187734)
(0.114861 0.000445227 -8.44559e-05)
(0.116927 0.000835544 -0.000303265)
(0.115653 -0.00024803 -0.000144974)
(0.115587 -0.000340059 -0.000307907)
(0.114833 -0.000254523 3.24507e-05)
(0.111018 -9.15273e-05 -9.01234e-05)
(0.116318 0.000221253 0.000131739)
(0.116066 -0.000371834 0.000560979)
(0.115284 -0.000201418 0.000108133)
(0.113067 -0.000478987 0.000562734)
(0.117583 -0.000140985 -0.000134763)
(0.116543 6.88923e-05 -0.000217157)
(0.117673 -1.12252e-05 -0.000116137)
(0.117795 -3.6256e-05 -0.000135614)
(0.113368 -0.000178657 -0.000129204)
(0.115662 -0.000384001 -0.000138078)
(0.112883 -0.000148045 -0.000232695)
(0.115303 -0.000408116 -0.000254528)
(0.115932 5.55419e-05 -9.01014e-05)
(0.115022 0.000118028 4.56778e-05)
(0.115979 0.00010815 5.13264e-05)
(0.111884 0.000103726 -0.000299022)
(0.114347 -9.81167e-06 -0.000261374)
(0.110714 -5.17623e-05 -2.03135e-05)
(0.112145 0.000170254 -0.000452804)
(0.114365 3.1766e-05 -0.000324168)
(0.114461 0.000214705 0.000365)
(0.116287 0.000154784 -9.57231e-05)
(0.115151 -6.30264e-05 -6.1169e-05)
(0.115605 -0.00013743 -0.000283404)
(0.114659 6.27825e-05 -0.000223843)
(0.114679 0.000176064 -0.000500156)
(0.11641 -0.000246692 -7.1238e-05)
(0.116025 -0.000279392 -0.000282912)
(0.116967 3.36349e-06 -0.000492105)
(0.117196 -0.000293304 -0.000295257)
(0.117034 0.00047263 -0.000117409)
(0.116294 0.000343353 -0.000182185)
(0.116829 0.000290979 -0.00017916)
(0.114744 -3.50805e-05 -0.000361643)
(0.117367 -0.000339218 -0.000569045)
(0.117064 -0.000378027 -0.000478985)
(0.115689 -7.79479e-05 2.48463e-05)
(0.11499 -0.000251678 1.86702e-05)
(0.111401 6.55599e-05 -0.000235536)
(0.116893 -8.30863e-05 -0.000215624)
(0.116882 -6.98906e-05 0.000145062)
(0.116404 -2.39898e-05 3.85846e-05)
(0.114518 -4.03989e-05 7.33646e-05)
(0.114026 -0.000290076 -7.97596e-05)
(0.115155 -0.00031127 -0.000181189)
(0.114742 -0.000253729 -5.64539e-05)
(0.110864 -0.000320329 -0.000107486)
(0.114368 -0.00027861 0.000605849)
(0.11078 -0.000189083 0.000317523)
(0.112183 -0.000237044 0.000544672)
(0.11448 -0.000183899 0.000237937)
(0.114208 0.000108943 0.000128944)
(0.114869 0.000196992 0.000158506)
(0.114582 0.000114309 4.18261e-05)
(0.115741 -3.24654e-05 1.76903e-05)
(0.111426 0.000334351 0.000313153)
(0.111474 -0.000297327 0.000550521)
(0.114398 -6.50865e-05 0.000186337)
(0.114208 0.000128311 -0.000534743)
(0.112369 -0.000207863 -6.92989e-05)
(0.111227 0.000157592 -0.000599482)
(0.114583 -5.26975e-05 -0.000339283)
(0.115363 1.34163e-07 -4.15308e-05)
(0.116222 -0.000259983 -2.73142e-05)
(0.115967 -0.000371971 7.45744e-05)
(0.112505 -0.000136846 5.62627e-05)
(0.110874 -0.000176917 -0.000281538)
(0.11226 1.23293e-05 -0.000180173)
(0.11111 0.000230221 -0.000219225)
(0.103678 -0.00011756 -0.000336322)
(0.115804 -0.000261915 -0.000347051)
(0.117108 8.55123e-06 -0.000407047)
(0.116128 -8.87283e-05 -0.000390861)
(0.116515 -0.000124997 -0.000496811)
(0.116651 0.000360095 -0.00016409)
(0.11647 0.000343123 1.41305e-05)
(0.114549 0.000424699 5.3969e-05)
(0.117112 0.000506894 -0.000128199)
(0.112238 0.000208927 -0.000186493)
(0.112551 -6.90475e-05 -0.000137579)
(0.114622 0.000224618 -0.000252723)
(0.114961 7.73861e-05 1.00284e-05)
(0.110599 8.72519e-06 5.88293e-05)
(0.113798 -6.56522e-05 -9.23892e-05)
(0.112042 0.000258728 -0.000379186)
(0.113941 -2.50259e-06 0.000148405)
(0.1146 0.000172184 -8.76286e-05)
(0.114599 -0.000128125 9.07426e-05)
(0.116344 -2.91845e-07 0.000565298)
(0.115261 -3.3118e-06 -0.000116879)
(0.116116 -0.000136329 -2.00204e-05)
(0.112347 -6.91583e-05 0.00030041)
(0.118452 0.000175652 0.00020358)
(0.116639 0.000211698 -1.14845e-05)
(0.118707 7.09312e-05 -0.000132602)
(0.117608 -0.000148468 -0.000577347)
(0.115211 0.000283212 0.000365906)
(0.110563 0.000443294 -7.23032e-05)
(0.111963 0.000331565 0.00015735)
(0.116607 0.00023015 0.00018609)
(0.115844 8.01559e-05 0.000338817)
(0.116596 0.000240209 0.000180118)
(0.117244 -0.000216475 -0.000157738)
(0.11626 -2.95003e-07 -1.88136e-05)
(0.117334 -0.000170441 -0.000121259)
(0.115873 -8.7756e-05 -0.000117847)
(0.114094 -0.000266795 -0.000103152)
(0.114092 -0.000112407 -0.000180038)
(0.111413 0.000200228 3.52212e-05)
(0.111052 -0.000297329 0.000282572)
(0.116772 0.000151325 -0.000332719)
(0.116317 3.60579e-05 -0.000263394)
(0.116575 7.8367e-06 -0.000379684)
(0.117014 -1.54275e-05 -0.000338464)
(0.112308 -8.62357e-06 -0.000238371)
(0.111429 -0.000174889 2.18285e-05)
(0.114909 -9.3284e-05 -3.52014e-07)
(0.115002 4.74687e-05 3.86079e-05)
(0.112409 0.000120722 3.37444e-05)
(0.110588 2.25878e-05 4.93475e-05)
(0.110573 -0.000115294 -0.000190386)
(0.104346 -9.41019e-05 3.12082e-05)
(0.116875 0.000421584 -0.000246568)
(0.110437 7.87003e-05 6.49144e-06)
(0.110532 -0.00034713 -0.000116775)
(0.108771 -0.000175057 4.43593e-05)
(0.103713 -0.00020552 -7.74962e-06)
(0.117297 -0.00023807 0.00026889)
(0.117141 -0.000446449 0.000208056)
(0.117334 -0.000101868 0.000409375)
(0.116656 -0.000313262 0.000278869)
(0.116028 -0.000188367 0.000261613)
(0.116009 -0.000124522 0.000403649)
(0.117074 -0.000127531 0.000479864)
(0.109503 0.000443878 -0.000334863)
(0.110562 -0.000232462 3.5727e-06)
(0.104435 8.46876e-05 -0.00011185)
(0.113224 -6.53797e-05 -0.000125886)
(0.111277 -7.21191e-05 -0.000309507)
(0.104694 8.76905e-05 -0.000350512)
(0.111777 -6.63307e-05 0.000159822)
(0.111773 -0.000302469 -2.83765e-05)
(0.112576 -0.000266359 -1.75236e-05)
(0.103907 -0.000180093 0.000154288)
(0.116877 -8.29697e-05 8.52355e-05)
(0.11565 -7.07062e-05 -5.4369e-06)
(0.115884 -0.000186294 -0.000279362)
(0.116825 -0.000682912 -0.000361869)
(0.115726 -0.000661412 -0.000608085)
(0.116933 -0.000463621 -0.000748447)
(0.11636 -0.000405405 0.000495058)
(0.116545 -0.000548403 0.000159229)
(0.115971 -0.000133028 0.000193851)
(0.117414 -0.000461434 -0.000153851)
(0.116623 -0.000471217 -2.56648e-05)
(0.11621 -0.000290488 -0.000294853)
(0.11737 -0.000115015 -0.000403263)
(0.114829 4.06018e-05 -0.000229305)
(0.113784 0.000363157 -0.000353423)
(0.110249 2.92252e-05 -0.000190121)
(0.114889 0.000329715 -0.000439124)
(0.115168 6.83679e-05 -0.00032894)
(0.113179 0.000209319 -0.000665238)
(0.112061 0.000152447 -0.000260222)
(0.114208 -0.000104045 0.000186152)
(0.113916 3.17073e-05 6.33141e-05)
(0.115751 6.32045e-05 -0.000221224)
(0.114853 -0.000110804 0.000130604)
(0.116427 -7.66265e-05 -0.000312555)
(0.116312 -0.000123197 -0.000310601)
(0.116458 0.00016233 -0.000246659)
(0.117411 0.000283631 -0.000538016)
(0.117729 2.23889e-05 -0.000217526)
(0.112191 -1.27545e-05 -0.00039967)
(0.110401 0.00016063 -0.000149985)
(0.110934 8.33363e-05 -6.2473e-05)
(0.103172 0.000151194 -0.000180059)
(0.116312 0.000461089 5.74029e-05)
(0.115505 0.000348912 2.24418e-05)
(0.117049 0.000344003 4.91957e-05)
(0.116595 0.000172143 9.55729e-05)
(0.109683 -0.00017263 9.84869e-06)
(0.103912 -3.88059e-05 0.000167774)
(0.113031 -2.09895e-05 -0.000251416)
(0.112838 -0.00021716 -4.58062e-05)
(0.115392 -5.80271e-05 -0.000250447)
(0.115409 -0.000165673 -8.9132e-05)
(0.113388 0.000119929 0.000201692)
(0.113825 6.75009e-05 0.000165006)
(0.115471 -0.000210201 3.46818e-05)
(0.112105 4.43304e-05 -0.000538808)
(0.111038 1.95447e-05 -0.000256729)
(0.112277 0.00013208 -8.37705e-05)
(0.104152 0.000365649 -0.000215792)
(0.116253 0.00016849 0.000452828)
(0.11603 -7.29132e-05 0.000153337)
(0.115246 0.000101594 0.000365187)
(0.11243 0.000104788 0.000377537)
(0.116228 -0.000328458 0.00015178)
(0.115325 -4.46965e-05 0.000366508)
(0.116161 -0.000156444 2.0256e-05)
(0.111914 -1.0922e-05 0.000221335)
(0.110451 -1.32926e-06 -0.000134503)
(0.110572 0.000355777 -0.000101849)
(0.104812 8.07723e-05 -0.000109063)
(0.114462 -0.000276718 -0.000370526)
(0.114197 5.34377e-05 -0.000217572)
(0.114432 1.86113e-05 -7.14523e-05)
(0.115917 0.000360412 3.3328e-05)
(0.114907 0.000370827 0.00011604)
(0.116668 0.000150435 -0.000147625)
(0.115411 0.000283395 -0.000223466)
(0.11424 -0.000110883 -0.000333187)
(0.112106 -0.000155152 -0.000449423)
(0.112178 -0.000138447 -0.000252197)
(0.104696 -0.000243991 -0.000229079)
(0.116103 -8.73912e-06 -5.5554e-05)
(0.116174 0.000149366 8.56444e-05)
(0.111515 0.000114594 -0.000130727)
(0.114257 -1.43717e-05 -0.000113133)
(0.114498 0.000238102 -2.74861e-05)
(0.115968 0.000263043 1.92205e-05)
(0.114667 0.000228852 0.000155968)
(0.117413 1.9715e-05 -0.000519038)
(0.117533 -8.91303e-05 -0.000437486)
(0.117438 -0.000173206 -0.000365037)
(0.116795 -7.06656e-05 -0.000352395)
(0.113674 0.00029673 -0.000852639)
(0.115551 0.0001686 -0.000729476)
(0.116098 -0.000178628 -0.000603843)
(0.115034 -0.000251339 6.73184e-05)
(0.115929 -0.000222591 6.09942e-06)
(0.115033 -8.92834e-05 0.000135631)
(0.112016 -2.06893e-05 -0.000174537)
(0.11235 -0.000745727 -0.000260365)
(0.112729 0.00018936 -0.00019778)
(0.104127 -4.11249e-05 -0.000301384)
(0.117264 0.00033658 2.44902e-05)
(0.117487 0.000249988 -0.000251501)
(0.116921 0.000115607 -0.000103376)
(0.117473 0.000165111 -0.000376002)
(0.116744 0.000273014 -5.94447e-05)
(0.115523 0.000155828 -5.95716e-05)
(0.116334 -7.08214e-05 -0.000186335)
(0.115991 0.000160049 -0.000299825)
(0.113259 -0.000239621 -0.000710113)
(0.113016 0.000115337 -0.000227958)
(0.114161 -0.000129078 -0.000608625)
(0.108013 -0.00059548 -0.000558757)
(0.115766 -0.00020035 -0.000442619)
(0.115795 -0.00029978 -0.000654479)
(0.11696 -0.000236209 -0.000351056)
(0.116868 -0.00018372 -0.00039908)
(0.116389 -0.000102401 -0.000207041)
(0.115374 -0.000156279 -0.000248664)
(0.115276 7.00738e-05 -0.00011803)
(0.112261 0.000123042 -0.000445028)
(0.116424 0.000260924 0.000186705)
(0.11609 0.000268432 -6.23797e-05)
(0.114634 6.4049e-05 -0.000183357)
(0.110739 -8.04614e-05 -0.000605661)
(0.110359 -3.15485e-05 -0.000416266)
(0.111629 0.000120306 -0.000625545)
(0.10365 0.000258333 -0.00031381)
(0.116751 -0.00046839 -6.0671e-05)
(0.116689 -0.000522426 0.000120099)
(0.117503 -0.000494411 6.9091e-05)
(0.112804 0.000865579 -0.00050843)
(0.115377 8.57147e-05 -0.000315196)
(0.115058 0.000239272 -0.000295187)
(0.115181 -0.000209537 0.000391631)
(0.115539 6.34431e-06 0.000180785)
(0.115916 9.80815e-05 0.000305438)
(0.111572 -8.68946e-05 0.000299543)
(0.112385 -0.00023147 -9.90556e-05)
(0.116596 -9.63255e-06 3.13556e-05)
(0.114765 0.000201913 -2.87367e-05)
(0.116663 0.000341638 -8.85409e-06)
(0.110793 0.000380701 -0.000247859)
(0.113787 -5.55566e-05 -4.01513e-05)
(0.113986 3.18958e-05 7.2205e-05)
(0.108599 9.05149e-05 -0.000218198)
(0.109544 0.00022317 0.00023843)
(0.109158 -4.94799e-05 0.000112857)
(0.104015 4.93222e-05 0.000108216)
(0.117256 8.49298e-05 0.000103993)
(0.116078 5.26587e-05 -0.000162353)
(0.117272 -6.21452e-05 4.22252e-05)
(0.116776 -0.000307201 0.000124186)
(0.116963 -0.000344116 -0.00023302)
(0.116636 3.81654e-06 -8.33572e-05)
(0.116618 -0.000106179 -0.000242265)
(0.111983 -0.000136789 4.36846e-05)
(0.114779 -0.000184351 -0.000117076)
(0.116041 -0.000216562 -0.000117202)
(0.116292 -7.04433e-05 -0.000162026)
(0.114777 1.51e-05 0.000107566)
(0.11724 -8.53201e-05 -0.000135743)
(0.115996 -7.5384e-06 -0.000293501)
(0.116202 7.96808e-05 5.11901e-05)
(0.11725 -8.3694e-05 -8.93065e-05)
(0.117365 -2.55031e-05 0.000145156)
(0.116725 -0.000114468 -7.66628e-06)
(0.11742 -7.83286e-05 -0.000195436)
(0.116408 -7.24282e-05 -0.000175861)
(0.116282 -0.00016378 -0.000256049)
(0.117251 1.34198e-06 -0.00046466)
(0.110698 0.00113613 -0.000759416)
(0.113059 0.000265295 -0.0010545)
(0.112169 0.000582783 -0.000759477)
(0.102413 0.000219749 -0.000433161)
(0.116437 -0.000103944 -0.000164136)
(0.116601 -0.000234792 -0.000142196)
(0.117368 -0.000103473 -0.000380533)
(0.115591 -0.000117487 0.000215756)
(0.116667 -4.435e-05 7.46031e-05)
(0.111805 4.34491e-05 -3.23879e-05)
(0.11268 -8.56431e-05 -1.45839e-05)
(0.112387 -8.48362e-06 -7.04701e-06)
(0.114977 -0.000179617 0.000144403)
(0.114734 -0.000233217 -5.29668e-05)
(0.111651 -0.000281952 -0.000745905)
(0.112116 -0.000376473 -5.02871e-05)
(0.103561 -0.000295207 -8.59455e-05)
(0.11411 0.000375501 -0.000553993)
(0.115327 0.000179114 -0.000674931)
(0.11109 -0.000196681 -0.00033575)
(0.111436 -0.000401781 -7.01059e-05)
(0.113946 -0.000492094 -0.000134572)
(0.111045 -0.000326166 -0.000292635)
(0.113776 -0.000361914 -0.000150365)
(0.115334 0.000579585 -1.96328e-05)
(0.115241 0.000711642 -9.38463e-05)
(0.114228 0.000797955 0.000238439)
(0.111875 0.000619994 0.000199474)
(0.113699 0.000320759 -0.000135818)
(0.11434 5.27654e-06 -0.000254414)
(0.116117 0.000298475 -1.69906e-05)
(0.116728 -0.000143776 4.85628e-05)
(0.116478 -0.000101422 0.000123079)
(0.111611 -5.43511e-05 0.0001572)
(0.115014 9.88542e-05 0.00015568)
(0.114775 0.00026258 7.76959e-05)
(0.115757 6.9108e-05 3.99852e-05)
(0.111466 2.43128e-05 -0.000217763)
(0.111598 -0.000510321 6.0833e-05)
(0.112109 -0.000133915 -4.74461e-05)
(0.111139 -0.000654455 -0.000260858)
(0.103974 -0.000418828 8.36217e-05)
(0.115937 0.000178064 0.000116881)
(0.116007 -8.65231e-05 0.000106489)
(0.114129 7.21517e-06 -0.000278067)
(0.116107 -0.000184849 -0.000159692)
(0.115894 9.17484e-05 0.000186965)
(0.114844 -5.13625e-05 0.000241552)
(0.114843 0.000372681 6.87088e-05)
(0.11397 -0.000263894 -0.000313769)
(0.111001 -6.43308e-06 -0.000169275)
(0.110357 -2.10051e-05 -0.000217398)
(0.111778 -0.000308808 -0.000253453)
(0.111033 6.21342e-05 -0.000316986)
(0.103877 -6.72439e-05 2.55438e-05)
(0.112367 3.60456e-05 -0.000277738)
(0.103698 4.86847e-05 -0.000308716)
(0.11648 -0.000265134 -2.18301e-05)
(0.117673 -4.26464e-05 0.000239696)
(0.117756 -0.000170217 -6.09999e-05)
(0.10478 0.000113155 0.000205366)
(0.111052 -0.000344676 -0.000544708)
(0.111932 -0.000229792 -0.000202781)
(0.111551 -0.000480401 -0.000476133)
(0.103199 -0.000182517 -0.000738319)
(0.111047 0.000543591 -7.98228e-05)
(0.11387 0.000437842 -6.28758e-06)
(0.110585 -7.61196e-05 0.000422957)
(0.109744 0.000169591 0.000161562)
(0.111095 0.000429269 0.000392758)
(0.103914 -3.06139e-05 0.000181155)
(0.116681 -0.000631472 0.000134569)
(0.115206 -0.000639926 0.000332563)
(0.115473 -0.000476144 0.000234191)
(0.116728 -0.000576225 9.3463e-05)
(0.113248 -0.000162275 -0.000532212)
(0.112394 -0.000216387 -0.000242549)
(0.111856 -0.000114939 -0.000213497)
(0.103636 0.000120289 -0.000226407)
(0.115908 0.000132762 -0.000262961)
(0.115192 0.000157209 -0.000248933)
(0.115555 -0.000420441 -0.00021373)
(0.112452 -1.18224e-06 -0.000385411)
(0.112271 -0.000322523 -0.000387506)
(0.112235 -0.000286981 -0.000466698)
(0.114423 -0.000344547 -0.000471437)
(0.116358 6.97981e-05 -0.000323419)
(0.11627 0.000139219 -0.00036223)
(0.115541 0.000199476 -0.000287337)
(0.111569 0.000338505 -0.000455193)
(0.112018 6.48363e-05 3.88024e-05)
(0.110528 -0.0002704 0.000124141)
(0.111346 -0.000330105 0.000378387)
(0.10389 -0.000259629 -1.96267e-05)
(0.115517 0.000292796 2.86909e-05)
(0.112198 0.000265945 -0.00039479)
(0.111958 -3.34546e-05 1.17208e-05)
(0.115041 -0.000541718 1.30295e-05)
(0.112192 -0.000349681 0.000100444)
(0.114827 -0.000381702 0.000281197)
(0.116329 -5.42764e-05 -9.99222e-05)
(0.114645 -0.000120937 -0.000215668)
(0.116208 -9.79768e-05 -0.000187607)
(0.115907 0.000180815 0.000194821)
(0.115953 -0.000125075 4.42021e-05)
(0.111903 -0.000161226 0.000113856)
(0.11457 -0.000388302 -0.000123273)
(0.114914 -0.000164353 -0.00030078)
(0.115968 -6.53119e-05 -0.000175503)
(0.115662 -0.000283309 -4.75537e-05)
(0.115907 -0.00029698 0.000234098)
(0.116959 -0.000168543 0.000160572)
(0.117369 -0.000303917 0.000192286)
(0.11613 5.70038e-05 -0.000410032)
(0.116083 1.62436e-05 -0.000477265)
(0.117446 9.79289e-05 -0.000495642)
(0.11419 0.000278756 -0.000369692)
(0.115584 0.000206866 -0.000274182)
(0.115869 -2.11483e-05 -0.000567261)
(0.113215 -0.000580147 -0.000191484)
(0.116601 0.000301277 -0.000553402)
(0.115062 -0.00020468 0.000143293)
(0.116468 0.000202922 0.000308603)
(0.11644 8.15203e-05 0.000101653)
(0.116606 -0.000141717 0.000131604)
(0.115572 0.000107393 6.51618e-05)
(0.116139 -6.12851e-05 0.000170026)
(0.111278 -8.51366e-06 3.68921e-05)
(0.110858 5.34733e-06 -0.00042271)
(0.110908 -0.000167078 -0.000232823)
(0.111529 -0.000613597 -0.000236311)
(0.114171 -0.000502791 -0.000202431)
(0.114331 -0.00046558 -0.000266981)
(0.11578 -0.000386173 8.69998e-05)
(0.115578 -0.000257778 -6.9636e-05)
(0.117027 -0.000214509 -0.000286754)
(0.117065 -0.000199877 -8.89406e-07)
(0.116563 -0.000185073 -0.000242436)
(0.115393 -0.000329533 -0.000324411)
(0.11525 4.57255e-05 -0.000215864)
(0.116477 0.00011084 -7.74204e-05)
(0.116426 0.000288405 -0.000264083)
(0.117237 5.63661e-05 -0.000489141)
(0.116663 0.000154076 -0.00011641)
(0.117222 -8.26337e-05 -0.000410833)
(0.116411 -0.000226188 9.53743e-06)
(0.115915 -3.09059e-06 3.82676e-05)
(0.115117 -0.000528627 0.00017174)
(0.116817 -0.000351587 6.39803e-05)
(0.115638 -3.68399e-05 3.50611e-05)
(0.112872 -6.62965e-05 -0.000355156)
(0.116346 -2.33788e-05 1.35193e-06)
(0.112667 0.000132136 -0.00058686)
(0.116373 -1.6009e-05 -0.00010839)
(0.117147 -7.02387e-05 -0.000383114)
(0.116154 4.13298e-05 -0.000299776)
(0.116439 1.89444e-05 0.000242054)
(0.111564 1.45406e-05 -7.32646e-05)
(0.110469 -0.000137665 -0.000373958)
(0.104583 -5.87541e-05 -0.000270385)
(0.111003 -0.000593196 -0.000668142)
(0.103602 -0.000396229 -0.000160507)
(0.117401 0.000270635 0.000595408)
(0.11614 0.000278643 0.000164719)
(0.115357 -0.000280062 -0.000277444)
(0.111574 -0.0002021 -0.000185367)
(0.116295 4.97271e-05 -0.000525741)
(0.116108 -1.46337e-05 -0.000330426)
(0.115265 -0.000118939 -0.000202555)
(0.111294 -8.82094e-05 -0.00019562)
(0.117176 0.000256546 0.000505367)
(0.117238 5.2507e-05 0.000538056)
(0.117274 8.58285e-05 0.000494213)
(0.116358 0.000182495 0.000526399)
(0.116134 0.000525055 0.000153629)
(0.116116 0.000377872 0.000100746)
(0.116928 0.000460264 4.34778e-05)
(0.110225 -6.7212e-05 -0.000269159)
(0.111639 3.64665e-05 -0.000119236)
(0.103198 -0.000192735 -0.000329246)
(0.112454 0.000252052 -0.000330791)
(0.111624 -0.000131715 -0.000290028)
(0.110945 0.000137731 -0.000395844)
(0.103906 -0.000115561 -0.000627651)
(0.116777 -6.49379e-05 1.05371e-05)
(0.115352 -0.000202302 -0.000348752)
(0.116874 -0.000308795 -0.000118006)
(0.114353 -0.000199647 -0.000240363)
(0.116011 -0.000289019 -0.00031032)
(0.111294 -0.000139635 -0.000392766)
(0.111804 -8.77672e-05 -0.000492233)
(0.103859 -0.000216209 -0.000287498)
(0.112527 -0.00022815 -0.000154461)
(0.110828 4.33272e-07 -3.64965e-05)
(0.110545 -7.19305e-06 0.000149748)
(0.104804 -9.15379e-05 6.09505e-05)
(0.116869 -0.000391554 4.04983e-05)
(0.11591 -0.000251915 0.000192027)
(0.115774 -0.000197833 -0.000117998)
(0.116873 -0.000138993 -0.000157661)
(0.112291 -4.00827e-05 -0.000905485)
(0.112107 0.00017147 -0.000544373)
(0.11431 -6.5734e-05 -0.000576908)
(0.104321 -0.000128449 -0.000805401)
(0.114935 0.000233718 0.000125028)
(0.11532 -0.000277413 0.000114523)
(0.115115 -6.48849e-05 0.000163034)
(0.111492 -4.33934e-05 0.000223924)
(0.112456 -0.000320433 -0.0002834)
(0.114906 -7.497e-05 -0.000467069)
(0.114745 8.00965e-05 -0.000596987)
(0.115369 -5.66608e-05 -0.000155199)
(0.116859 -0.000117287 -3.51502e-05)
(0.116006 7.72625e-05 0.000217665)
(0.112895 0.000288162 -0.000755555)
(0.111064 0.00043786 -0.000483781)
(0.112486 0.000817734 -0.000553726)
(0.103001 -0.000153469 -0.000574579)
(0.117734 -5.01498e-05 7.05897e-05)
(0.117681 -0.000134101 9.12441e-05)
(0.116117 1.47284e-05 1.66667e-05)
(0.117682 5.01987e-05 5.71606e-05)
(0.116081 6.48171e-06 -0.000374508)
(0.113945 -4.45256e-05 -0.000295288)
(0.113549 7.93351e-05 -0.000538479)
(0.115883 -0.000105692 -0.000172051)
(0.113217 -0.000805224 -0.000200861)
(0.113507 -0.000689525 6.10707e-05)
(0.10418 -0.000239785 -0.00029489)
(0.112529 -0.000565046 0.00076984)
(0.111526 -0.000226403 0.000703375)
(0.112937 -0.000513134 0.000471347)
(0.103287 1.19151e-05 0.00014582)
(0.114624 -0.000257843 -9.86782e-05)
(0.110878 -0.000246123 -5.11236e-05)
(0.112613 -0.000245014 -0.000672069)
(0.117678 -0.000102708 -0.000172486)
(0.116738 -8.04687e-05 -0.000264214)
(0.111307 0.000292853 0.000267412)
(0.110632 0.000142681 0.00020004)
(0.112067 -8.09454e-05 -7.57404e-05)
(0.103333 -3.37919e-05 0.000208947)
(0.113079 -0.000142118 -0.000627119)
(0.112999 0.000324039 -0.0003424)
(0.104217 -0.000321736 -0.000690432)
(0.110638 -0.000112841 0.000252904)
(0.112635 4.71573e-05 0.000224164)
(0.110912 -0.000286409 7.86542e-05)
(0.104323 -0.000147373 7.76734e-05)
(0.110827 -0.000705424 -0.000113504)
(0.112788 -0.000594808 0.000428256)
(0.111811 -0.000850594 -8.62452e-05)
(0.103025 -0.000399127 -0.000179073)
(0.113678 0.00015864 -0.000249711)
(0.114659 0.000111841 0.000120218)
(0.114924 -0.000142616 -1.96503e-05)
(0.110625 -2.43878e-05 1.97453e-05)
(0.111435 0.000471947 0.000150774)
(0.110809 0.000264745 0.000259275)
(0.10424 0.000188063 0.000209612)
(0.116782 -0.000504392 -1.54188e-05)
(0.116367 -0.000375008 7.65078e-05)
(0.116934 -0.000413307 -6.36605e-05)
(0.116635 -0.000444658 7.83326e-05)
(0.116166 -0.000216694 0.000175483)
(0.116238 -0.000140439 -5.84901e-06)
(0.117389 -0.000241352 0.000141319)
(0.117626 -0.000222951 0.000229919)
(0.109568 0.000136695 -0.000809681)
(0.109681 9.46858e-05 -0.000283986)
(0.111301 0.00013433 -0.00039552)
(0.104644 -0.000246646 -0.000362263)
(0.112806 -0.000309023 0.000314319)
(0.113546 -0.00084603 4.8672e-05)
(0.11347 -0.00035911 0.000104492)
(0.107433 -0.000305268 0.000139825)
(0.114442 0.000617056 -0.000257231)
(0.115647 0.000377394 -0.000428622)
(0.115707 0.000315419 -0.000547656)
(0.112122 0.000127591 -0.000672868)
(0.112435 -2.60336e-05 4.21779e-06)
(0.110408 -6.55941e-05 -8.33103e-05)
(0.109972 -0.000208956 -0.000199379)
(0.104395 9.46501e-05 -8.56944e-05)
(0.116276 -0.000104935 0.000370284)
(0.112215 -7.324e-06 2.27683e-05)
(0.115848 -0.000356967 -0.000359397)
(0.117151 -5.33177e-05 -0.000364179)
(0.116562 -0.00012369 -0.000110828)
(0.116313 -3.44491e-05 -0.000157132)
(0.115486 0.000323399 -1.31955e-05)
(0.114558 0.000303224 1.53197e-05)
(0.11198 0.000418953 0.000217359)
(0.116579 8.77218e-05 8.48613e-06)
(0.115868 0.000145556 0.000272992)
(0.116567 8.02998e-05 0.000349198)
(0.116554 0.000153721 0.000232605)
(0.116605 -7.69126e-05 -2.97685e-05)
(0.116486 -0.000266613 -6.31226e-05)
(0.11182 -0.000211034 -9.57595e-05)
(0.11551 -7.78225e-05 -0.000267611)
(0.114665 -0.00016925 -6.91027e-05)
(0.115498 -0.000168125 -1.97795e-05)
(0.110651 6.15213e-06 -0.000337223)
(0.115654 -5.15044e-05 -9.41696e-05)
(0.115899 0.00021986 1.08373e-05)
(0.111709 0.000116948 6.33288e-05)
(0.112169 -0.000428422 0.000515433)
(0.114971 -0.000407467 0.000406378)
(0.115118 -0.000615621 0.000463756)
(0.114091 6.75773e-05 0.000170911)
(0.115313 -0.000197916 -0.000114199)
(0.115393 -9.07875e-05 2.71538e-05)
(0.111462 8.98109e-05 0.000204953)
(0.111931 0.00043827 7.20319e-05)
(0.109719 0.000383072 -0.0003238)
(0.10343 0.000835431 -0.000295246)
(0.115734 1.23645e-05 9.27403e-05)
(0.116845 0.000151797 -0.00019328)
(0.117216 0.000603706 -0.000223047)
(0.115022 -0.000274108 0.000137579)
(0.115157 -0.000237083 0.000326628)
(0.110201 -0.000490138 0.000426764)
(0.115918 0.000297476 0.000114528)
(0.116723 2.04121e-06 9.59625e-05)
(0.116621 0.000226206 -6.60076e-05)
(0.116721 0.000291382 -2.37035e-05)
(0.111879 -5.61239e-05 -9.79081e-05)
(0.112582 -0.00017394 9.21299e-05)
(0.112097 -0.00034267 -2.69928e-05)
(0.10334 8.96517e-05 4.01466e-05)
(0.110648 6.27315e-05 0.000298163)
(0.110476 -0.000144263 0.000269874)
(0.111701 -7.21685e-05 0.000475248)
(0.103788 -0.000220461 0.000276429)
(0.115378 -0.000151293 -0.000367625)
(0.11621 -5.82658e-05 9.08182e-05)
(0.117007 -0.000202616 -9.69816e-05)
(0.116704 8.3849e-05 6.12285e-05)
(0.115653 -0.000265251 -0.000158256)
(0.116777 -7.85255e-08 -0.000203764)
(0.115356 0.000136487 -0.000151189)
(0.113749 -0.000147448 0.000630578)
(0.115564 -0.000168864 0.000162413)
(0.115226 -0.000138567 0.000354273)
(0.114214 -0.000190381 0.000610478)
(0.115002 -9.88739e-05 9.77798e-05)
(0.116093 -0.000259303 -1.23533e-06)
(0.11181 -4.13422e-05 0.000204574)
(0.116402 -8.5169e-05 -0.000414068)
(0.116508 8.45513e-05 -0.000297945)
(0.115166 -2.90337e-05 -7.89909e-05)
(0.111694 0.000203232 -0.000267286)
(0.115078 2.97287e-05 -0.000450943)
(0.112395 -3.68185e-05 -0.000448024)
(0.114999 0.000167379 -0.000306289)
(0.112304 0.000281078 0.000229286)
(0.114982 0.000401103 0.000361848)
(0.112954 0.00016677 0.000546803)
(0.115261 0.000289044 0.000300688)
(0.117004 0.000109053 -0.000279817)
(0.115297 0.000292126 -0.000355021)
(0.115698 -0.000146428 -0.000552685)
(0.112239 7.3507e-05 1.57233e-05)
(0.103947 -2.30585e-05 -0.000202265)
(0.112293 0.00013153 -7.3539e-05)
(0.114698 -3.44922e-06 -7.16744e-05)
(0.1172 0.00028668 -4.56205e-05)
(0.117054 6.00474e-05 -4.14358e-05)
(0.116467 0.000123073 7.89405e-05)
(0.11714 0.00010354 0.00015266)
(0.116511 -0.000378559 -1.58581e-05)
(0.116438 -0.000470351 -0.000194623)
(0.11644 -0.000431987 -0.000164931)
(0.11654 -0.000428876 -0.000320289)
(0.116516 -0.000490861 4.47154e-05)
(0.116382 -0.000503053 2.14716e-05)
(0.115039 -0.000450606 0.000149431)
(0.114512 -0.000841995 0.000215422)
(0.11601 -0.000808312 -6.84207e-05)
(0.115602 -0.00081447 -0.000252279)
(0.114577 -0.00013815 -0.000244356)
(0.11452 5.37916e-05 -0.000459976)
(0.11181 -1.91374e-05 0.00014381)
(0.11646 0.000175892 -0.000274261)
(0.112213 -7.10511e-05 -0.000221148)
(0.114648 0.000422872 -0.000237619)
(0.114726 0.000445956 -0.000379611)
(0.115536 -1.91644e-05 -0.000265093)
(0.111439 -0.000107638 -0.000222831)
(0.116663 8.95801e-05 -0.000203621)
(0.115489 0.000187259 -0.000240454)
(0.116033 -9.09776e-06 -0.000335067)
(0.104125 2.24958e-05 -0.000200859)
(0.115291 0.000118919 -0.000181576)
(0.111983 -2.63892e-05 -9.91804e-05)
(0.112722 0.000148696 -0.000195456)
(0.114995 0.000213607 8.5968e-05)
(0.112506 0.000229652 -0.000193799)
(0.115224 0.00045151 -0.000113137)
(0.115581 -4.40235e-05 -0.000229292)
(0.115175 -1.71412e-05 -0.000284822)
(0.114991 8.033e-05 -3.01666e-05)
(0.112246 0.000135069 -0.000305036)
(0.116708 -2.72073e-05 -0.00032617)
(0.11533 -0.000114177 -0.000495085)
(0.116231 -0.000215663 -0.000465148)
(0.115025 -0.000293442 -0.000438149)
(0.114844 -0.000420189 -0.000352581)
(0.116477 -0.000279547 -0.000233894)
(0.115727 -0.000327748 -0.000102571)
(0.116515 0.000160402 -0.000361674)
(0.116727 -8.44291e-05 -0.000280887)
(0.111472 -0.000593022 -0.000327442)
(0.112257 -0.000756206 -0.000388398)
(0.103527 -0.000100628 -0.000320227)
(0.114186 -0.000434515 0.000135803)
(0.115673 -0.000367197 -1.69353e-05)
(0.116792 -0.000258017 -0.000199694)
(0.115373 -9.86405e-05 -0.000217744)
(0.116943 -0.000317139 -0.000154152)
(0.116924 -6.28402e-05 9.79389e-05)
(0.116623 3.05327e-05 -0.000123462)
(0.115973 0.00015482 0.000185275)
(0.112886 -0.00016862 -0.000413421)
(0.116036 -0.000204999 -0.000468593)
(0.10888 0.000272396 0.000203308)
(0.110484 -0.000128577 0.000643633)
(0.110268 -0.000233926 0.000368001)
(0.102298 -0.000283339 0.000429766)
(0.11597 -0.000410293 -8.18697e-06)
(0.115446 -0.000483815 0.000153039)
(0.112417 -0.000433794 0.000589898)
(0.11021 -0.000702177 -0.000294951)
(0.104289 -0.000299279 -0.00018162)
(0.114528 0.000231419 -0.000212277)
(0.114668 0.0003235 7.34718e-05)
(0.10179 3.57304e-05 -0.000229102)
(0.115531 -0.000180431 0.000260013)
(0.116906 -0.000289393 0.000263424)
(0.110945 -0.000101682 0.00023531)
(0.11309 0.00036874 0.000298954)
(0.113631 -7.64752e-05 6.37744e-05)
(0.111703 0.000356128 -0.000172636)
(0.111789 0.000162878 -0.000239551)
(0.112124 0.000292854 -0.000457469)
(0.103368 3.70043e-05 -9.16895e-05)
(0.115205 -0.000128107 8.61054e-05)
(0.114771 -7.06643e-05 0.000118845)
(0.114239 -5.54816e-05 0.00017787)
(0.11586 0.000495124 -0.000192092)
(0.116628 0.000468811 -0.000212659)
(0.114276 -2.27961e-05 -0.000153987)
(0.115021 -9.80425e-05 -0.000273523)
(0.116648 -0.000425017 -0.000194097)
(0.116228 0.000138853 0.000237115)
(0.11249 -0.000310467 -6.44809e-05)
(0.112332 -0.000124015 -0.000139081)
(0.102976 -0.000113635 2.3501e-05)
(0.111033 -0.000591558 6.31981e-05)
(0.109961 -0.000353604 0.000365818)
(0.104019 -0.000324948 9.31815e-05)
(0.116203 -0.000579792 0.000220275)
(0.114766 -0.000140521 0.000375371)
(0.115665 -0.000390388 0.000430942)
(0.114631 -0.000279307 2.17047e-05)
(0.116292 0.000197904 -0.000481648)
(0.117085 8.19194e-05 -0.00047816)
(0.115168 0.000224613 -0.000388543)
(0.111666 0.000457163 0.000108501)
(0.112333 0.000191384 3.56566e-05)
(0.102637 0.000300641 -0.000392191)
(0.116713 -0.000622044 6.80884e-05)
(0.116734 -0.000639732 0.000221669)
(0.116529 -0.000535615 0.000210518)
(0.113633 -5.57097e-05 -0.000158491)
(0.111821 0.000149778 -0.000400318)
(0.104227 1.58048e-05 -0.000315473)
(0.110411 -9.64147e-05 0.000159738)
(0.110408 -0.000318798 7.43739e-05)
(0.104624 -0.00014959 -5.06378e-05)
(0.115055 0.000176454 -0.000229115)
(0.114847 0.000157664 -0.000172669)
(0.115886 0.000269573 2.37379e-05)
(0.111847 -0.000145841 -0.000178545)
(0.114729 -0.000191703 -0.000275104)
(0.116327 -0.000296114 2.51939e-05)
(0.114599 -0.000191935 0.000339192)
(0.115807 -0.00015442 2.04588e-08)
(0.113875 -0.000787331 0.000286301)
(0.115103 -0.00058495 8.6382e-05)
(0.115177 -0.000611402 6.5344e-06)
(0.110219 -0.00053235 -2.17762e-05)
(0.110842 -0.000188212 0.000460784)
(0.113854 0.000128705 0.000400413)