/*--------------------------------*- C++ -*----------------------------------*\
| =========                 |                                                 |
| \\      /  F ield         | OpenFOAM: The Open Source CFD Toolbox           |
|  \\    /   O peration     | Version:  2212                                  |
|   \\  /    A nd           | Website:  www.openfoam.com                      |
|    \\/     M anipulation  |                                                 |
\*---------------------------------------------------------------------------*/
FoamFile
{
    version     2.0;
    format      ascii;
    arch        "LSB;label=32;scalar=64";
    class       volScalarField;
    location    "0.046";
    object      epsilon;
}
// * * * * * * * * * * * * * * * * * * * * * * * * * * * * * * * * * * * * * //

dimensions      [0 2 -3 0 0 0 0];

internalField   nonuniform List<scalar> 
31639
(
0.372908
0.371874
0.374114
0.367752
0.381267
0.3769
0.387873
0.375729
0.375686
0.368212
0.371522
0.36869
0.369615
0.366953
0.37078
0.390389
0.374895
0.383314
0.383819
0.374541
0.405805
0.372142
0.368059
0.384327
0.38936
0.37627
0.372597
0.306839
0.385015
0.370582
0.367812
0.386085
0.366626
0.389366
0.402147
0.370376
0.407582
0.369757
0.368884
0.418973
0.396898
0.403114
0.365943
0.373115
0.373969
0.368436
0.37383
0.381038
0.373527
0.368249
0.368407
0.411061
0.371059
0.412745
0.382233
0.377716
0.407093
0.373488
0.371206
0.4051
0.376232
0.375972
0.393612
0.373763
0.37407
0.367069
0.373742
0.371664
0.399739
0.367689
0.368655
0.373943
0.367802
0.372031
0.370608
0.404322
0.367174
0.382317
0.370899
0.3731
0.389167
0.419658
0.367648
0.371497
0.36651
0.368066
0.367584
0.367592
0.395552
0.367643
0.37193
0.378157
0.401763
0.372022
0.38832
0.373934
0.37757
0.372003
0.371854
0.404586
0.369432
0.369191
0.369776
0.405394
0.402762
0.368476
0.406853
0.412462
0.390331
0.411315
0.365414
0.403045
0.375389
0.384205
0.370227
0.410153
0.385189
0.385076
0.375021
0.37257
0.373924
0.369405
0.368117
0.375228
0.378945
0.370287
0.373659
0.389143
0.389952
0.366941
0.366378
0.366095
0.366723
0.385621
0.372482
0.371079
0.402755
0.407678
0.368721
0.372349
0.372602
0.368873
0.368695
0.407738
0.415076
0.367495
0.371331
0.402945
0.400239
0.368631
0.397901
0.378264
0.384484
0.373343
0.40324
0.367945
0.377855
0.400529
0.39855
0.385962
0.367868
0.405237
0.397208
0.407649
0.408102
0.373116
0.404726
0.369363
0.369097
0.402917
0.373291
0.374241
0.402702
0.370375
0.367457
0.370969
0.3718
0.36987
0.370475
0.368317
0.371905
0.379925
0.369877
0.415563
0.378923
0.368619
0.370604
0.369179
0.407407
0.407172
0.374725
0.373328
0.373639
0.372827
0.371962
0.38386
0.386284
0.367364
0.404085
0.382151
0.370203
0.369791
0.365674
0.365886
0.381584
0.373276
0.373022
0.370426
0.37116
0.417339
0.373406
0.383982
0.372826
0.371586
0.378807
0.366619
0.400581
0.388044
0.373685
0.370137
0.367859
0.381093
0.40502
0.379724
0.406223
0.3841
0.371266
0.39158
0.403233
0.375017
0.372776
0.369377
0.398587
0.410801
0.373316
0.372245
0.402083
0.366979
0.397592
0.406628
0.371995
0.372865
0.373187
0.392
0.396173
0.376029
0.370606
0.373302
0.400887
0.37228
0.370902
0.405934
0.392466
0.369812
0.371714
0.386243
0.401594
0.368076
0.369018
0.387513
0.36761
0.367893
0.377752
0.368508
0.372834
0.381855
0.402537
0.387387
0.364725
0.370577
0.359808
0.386087
0.380982
0.378008
0.367927
0.377615
0.404851
0.383117
0.39399
0.368565
0.38231
0.370776
0.369021
0.386173
0.400499
0.400716
0.40082
0.412595
0.367098
0.397079
0.374833
0.371311
0.385552
0.398135
0.37124
0.385837
0.399543
0.371879
0.381168
0.399464
0.373918
0.396389
0.372492
0.37155
0.403514
0.38248
0.372458
0.413664
0.410961
0.368431
0.367585
0.358937
0.406354
0.403817
0.368838
0.394976
0.388687
0.369853
0.372547
0.373778
0.369715
0.367626
0.401537
0.366102
0.412124
0.412558
0.372218
0.368926
0.368033
0.368021
0.373418
0.397568
0.370193
0.371369
0.370147
0.372399
0.368415
0.372983
0.37226
0.374847
0.36761
0.37114
0.372806
0.377327
0.370881
0.37954
0.371435
0.370288
0.402646
0.379028
0.368398
0.382595
0.373503
0.366019
0.372553
0.403915
0.372413
0.372876
0.40679
0.372156
0.400208
0.378555
0.363168
0.411941
0.372887
0.37375
0.402844
0.37641
0.400433
0.378899
0.37162
0.37787
0.411697
0.374013
0.399738
0.374178
0.368674
0.370974
0.373121
0.401294
0.367084
0.404032
0.372407
0.411194
0.367528
0.366951
0.3676
0.367192
0.385979
0.374437
0.372431
0.37397
0.372894
0.408175
0.377507
0.371145
0.369011
0.369413
0.377164
0.372624
0.380339
0.40484
0.382812
0.372191
0.368847
0.412281
0.369103
0.368601
0.374153
0.366219
0.367355
0.381441
0.3673
0.392462
0.374011
0.369889
0.409975
0.37702
0.372729
0.401102
0.404133
0.403737
0.388603
0.409198
0.374715
0.362564
0.388266
0.373554
0.403151
0.368127
0.367668
0.37301
0.371305
0.381715
0.370634
0.375557
0.384279
0.367273
0.370785
0.404179
0.372539
0.370556
0.36808
0.373947
0.368397
0.372879
0.373477
0.372413
0.369977
0.373208
0.401749
0.375159
0.413773
0.391087
0.3725
0.406203
0.415434
0.384894
0.371319
0.370681
0.404407
0.373609
0.390524
0.371861
0.374194
0.329118
0.372184
0.413388
0.372245
0.367635
0.369099
0.368932
0.382212
0.402018
0.375185
0.370264
0.367671
0.409382
0.406277
0.372806
0.405691
0.398888
0.374809
0.409576
0.382343
0.394331
0.376157
0.402487
0.367588
0.36891
0.368139
0.368205
0.397932
0.367824
0.369061
0.376204
0.373155
0.3712
0.36692
0.375023
0.388613
0.370567
0.367904
0.371322
0.385832
0.368252
0.372133
0.412124
0.414944
0.373887
0.373585
0.367533
0.376072
0.375194
0.377649
0.367825
0.374207
0.384978
0.377422
0.400091
0.373183
0.378417
0.369672
0.401139
0.3947
0.396653
0.374642
0.371546
0.410306
0.374585
0.389836
0.373105
0.379107
0.367471
0.381719
0.403466
0.371079
0.365953
0.396367
0.370338
0.364256
0.36292
0.373754
0.307981
0.397548
0.371776
0.37262
0.401114
0.402209
0.372668
0.372412
0.373349
0.397932
0.381749
0.368638
0.372622
0.401585
0.39544
0.372822
0.36813
0.406625
0.412714
0.371036
0.406704
0.371026
0.370691
0.406105
0.370976
0.375806
0.383712
0.412428
0.367886
0.384404
0.398623
0.366822
0.371227
0.374309
0.368918
0.411184
0.385616
0.37723
0.384063
0.401152
0.387614
0.378499
0.366178
0.369447
0.371154
0.366922
0.369924
0.391084
0.367998
0.371836
0.372944
0.394844
0.372245
0.377696
0.371192
0.401896
0.41197
0.367338
0.39152
0.36833
0.374694
0.400193
0.377252
0.36826
0.38316
0.37446
0.402209
0.36845
0.373341
0.412773
0.368798
0.370226
0.313679
0.402546
0.40542
0.386359
0.371457
0.373752
0.375179
0.371521
0.369049
0.373379
0.375035
0.40427
0.366742
0.410703
0.371837
0.383098
0.378573
0.367738
0.371665
0.394093
0.406775
0.408175
0.381922
0.367877
0.391419
0.368195
0.386248
0.367635
0.403903
0.373512
0.371223
0.367505
0.368739
0.366069
0.37077
0.380872
0.369504
0.370253
0.370693
0.396512
0.368485
0.400798
0.369633
0.381302
0.374449
0.399819
0.373596
0.410169
0.367972
0.382003
0.37152
0.374817
0.37339
0.39853
0.356583
0.404286
0.419644
0.404385
0.40263
0.401811
0.376529
0.412068
0.365029
0.376772
0.415193
0.370582
0.403584
0.383957
0.371466
0.382756
0.374209
0.367016
0.365473
0.371241
0.379673
0.369612
0.386072
0.382447
0.406729
0.347871
0.368861
0.373003
0.372831
0.368923
0.404278
0.369341
0.370885
0.368927
0.367698
0.368045
0.371404
0.368538
0.368595
0.375498
0.370703
0.370958
0.400483
0.369352
0.384277
0.374553
0.370944
0.370532
0.387279
0.371091
0.375789
0.374214
0.384356
0.40491
0.368166
0.376901
0.388007
0.407627
0.367871
0.405327
0.36472
0.375669
0.372707
0.376182
0.368725
0.373943
0.406812
0.371841
0.387258
0.379347
0.398582
0.367834
0.369166
0.375043
0.374439
0.372898
0.375704
0.386725
0.377767
0.409809
0.367049
0.374828
0.365274
0.398633
0.370533
0.370378
0.374164
0.39006
0.37205
0.367733
0.374939
0.407
0.409023
0.372566
0.405977
0.391977
0.37516
0.372598
0.36604
0.408077
0.37043
0.367875
0.39752
0.402852
0.369309
0.398491
0.380231
0.400219
0.372431
0.392312
0.386704
0.369309
0.407224
0.373131
0.373227
0.368959
0.371163
0.366242
0.40345
0.36703
0.373099
0.386295
0.367838
0.370566
0.375697
0.363982
0.370986
0.371832
0.369735
0.37158
0.369186
0.382646
0.373029
0.370893
0.399632
0.370628
0.375883
0.367962
0.37503
0.376913
0.367986
0.370508
0.369779
0.374003
0.369276
0.37239
0.375758
0.403243
0.379918
0.368029
0.415203
0.378928
0.374288
0.383918
0.374752
0.367999
0.369998
0.366672
0.37619
0.372702
0.37412
0.373003
0.372508
0.385813
0.403875
0.36932
0.409071
0.376299
0.382328
0.375412
0.374877
0.367812
0.405582
0.370456
0.400612
0.371417
0.388879
0.373194
0.373916
0.367271
0.403054
0.368998
0.369453
0.377566
0.376566
0.378253
0.411543
0.369338
0.371377
0.372054
0.36637
0.367542
0.370523
0.383272
0.369784
0.396884
0.382299
0.368585
0.401745
0.394747
0.372506
0.367419
0.386919
0.382409
0.378769
0.388135
0.372586
0.392768
0.370018
0.373372
0.416226
0.37766
0.365447
0.375146
0.378277
0.370592
0.368474
0.399737
0.400392
0.367697
0.369571
0.369287
0.395449
0.369207
0.369248
0.398016
0.371283
0.368301
0.368471
0.375788
0.367886
0.376561
0.368949
0.369402
0.383464
0.402134
0.373723
0.371226
0.395504
0.367196
0.409176
0.37452
0.379444
0.403494
0.376205
0.384348
0.370113
0.379008
0.373014
0.407819
0.408501
0.38084
0.40197
0.373208
0.367578
0.373533
0.368674
0.386866
0.372505
0.37305
0.384992
0.382063
0.370375
0.373479
0.376945
0.402456
0.374739
0.371963
0.365846
0.368537
0.410826
0.403129
0.374349
0.367148
0.391694
0.374892
0.38007
0.371917
0.371351
0.380079
0.372799
0.378876
0.402827
0.368356
0.377885
0.40135
0.390208
0.371049
0.386169
0.370713
0.371647
0.380981
0.40301
0.368006
0.402746
0.378025
0.377416
0.393725
0.374273
0.407039
0.373718
0.374714
0.375583
0.413821
0.403289
0.365721
0.37053
0.385002
0.367008
0.375153
0.371354
0.406552
0.400919
0.37692
0.377099
0.375045
0.370471
0.366107
0.374019
0.367026
0.37669
0.379078
0.368131
0.409686
0.373995
0.369832
0.371857
0.376051
0.372967
0.385509
0.367553
0.375174
0.410324
0.369428
0.393867
0.369121
0.383493
0.366317
0.404562
0.368874
0.369603
0.376722
0.371721
0.408862
0.367
0.370216
0.367474
0.403569
0.36768
0.377612
0.365635
0.373375
0.37128
0.369709
0.372943
0.386829
0.373982
0.404046
0.405028
0.404947
0.393435
0.373052
0.40764
0.369049
0.369263
0.377288
0.376135
0.37474
0.373641
0.36915
0.373937
0.385546
0.369756
0.379134
0.38903
0.366688
0.371158
0.374018
0.369473
0.387427
0.373156
0.371093
0.367115
0.37258
0.371069
0.38738
0.370472
0.379401
0.376194
0.371792
0.372389
0.367118
0.372135
0.369276
0.382938
0.374669
0.373327
0.402792
0.411675
0.369657
0.389784
0.37598
0.386387
0.406085
0.376992
0.370676
0.396801
0.385584
0.371729
0.368635
0.369282
0.373502
0.400913
0.373875
0.379046
0.383989
0.375121
0.375082
0.412402
0.390541
0.390402
0.376778
0.373163
0.374911
0.373396
0.376184
0.372616
0.376614
0.39447
0.389165
0.416698
0.377997
0.374556
0.37353
0.372708
0.369703
0.404308
0.374134
0.38419
0.377678
0.374757
0.368465
0.407452
0.367776
0.403669
0.371116
0.376067
0.380622
0.373669
0.380357
0.375187
0.394949
0.375879
0.382949
0.378115
0.383651
0.405451
0.366437
0.371604
0.376498
0.368333
0.370784
0.402148
0.387536
0.378574
0.399455
0.368341
0.373722
0.368357
0.366655
0.368426
0.403125
0.407771
0.401316
0.369876
0.410198
0.367877
0.374113
0.399355
0.384462
0.370039
0.37057
0.390323
0.386454
0.373532
0.373153
0.372269
0.377044
0.396366
0.373737
0.374817
0.372614
0.376318
0.368981
0.371372
0.369233
0.376554
0.405246
0.409446
0.374739
0.387566
0.37508
0.412868
0.3717
0.377993
0.367592
0.403736
0.378498
0.370302
0.376339
0.388142
0.404495
0.371578
0.39508
0.376129
0.379048
0.366755
0.367637
0.372779
0.411067
0.406737
0.374088
0.382238
0.385134
0.374132
0.409528
0.360622
0.369544
0.388614
0.369513
0.366049
0.372293
0.367851
0.371147
0.374093
0.373807
0.409052
0.384146
0.369097
0.405597
0.373686
0.37573
0.394727
0.371798
0.339319
0.373127
0.368357
0.369366
0.40883
0.374345
0.374672
0.40587
0.383881
0.372996
0.386428
0.372701
0.401141
0.401471
0.374788
0.383865
0.367464
0.36951
0.367577
0.370379
0.373001
0.371102
0.371082
0.371161
0.397465
0.372347
0.380817
0.369984
0.376599
0.387629
0.382945
0.373276
0.406158
0.376509
0.371759
0.37743
0.420708
0.377262
0.410344
0.373867
0.414155
0.372244
0.371398
0.375962
0.37208
0.397935
0.401836
0.370768
0.37337
0.376179
0.373888
0.386334
0.366407
0.372509
0.369373
0.403681
0.390457
0.369566
0.369283
0.380058
0.377828
0.402205
0.372417
0.368917
0.371259
0.372327
0.373369
0.372715
0.36873
0.370567
0.401224
0.372468
0.373642
0.372734
0.375962
0.374963
0.414158
0.391958
0.369724
0.374011
0.372499
0.373358
0.371118
0.367419
0.373836
0.375527
0.369078
0.369008
0.386909
0.383165
0.371315
0.37235
0.37052
0.409998
0.375935
0.403414
0.369187
0.404561
0.401281
0.370306
0.408144
0.389139
0.373021
0.368059
0.368722
0.386708
0.37651
0.369807
0.398503
0.403128
0.387999
0.390187
0.369388
0.374273
0.376767
0.408009
0.374135
0.368662
0.368601
0.402525
0.400362
0.377056
0.374171
0.375205
0.390965
0.403538
0.381882
0.387618
0.36892
0.370472
0.407873
0.374785
0.37223
0.399381
0.412267
0.368657
0.39126
0.392996
0.366241
0.374156
0.36704
0.370039
0.369565
0.386038
0.370519
0.387979
0.367704
0.387286
0.370054
0.371614
0.371478
0.399829
0.365718
0.364478
0.37875
0.373191
0.376122
0.395934
0.326789
0.373721
0.383155
0.368032
0.383079
0.363381
0.404249
0.369736
0.37123
0.408728
0.372585
0.375231
0.414471
0.401341
0.372853
0.371512
0.370374
0.386764
0.401424
0.368018
0.372443
0.371114
0.375364
0.366686
0.405327
0.370512
0.373737
0.40345
0.401962
0.420043
0.395094
0.366758
0.386202
0.374711
0.370674
0.386396
0.384961
0.409626
0.411001
0.37106
0.371106
0.402745
0.372069
0.377528
0.404989
0.376736
0.381889
0.400049
0.380049
0.364909
0.400984
0.412771
0.367491
0.370948
0.393768
0.372849
0.389642
0.395503
0.402885
0.374128
0.399441
0.407171
0.374399
0.365465
0.376173
0.377743
0.371023
0.375281
0.367555
0.315293
0.375531
0.400785
0.366645
0.373177
0.371276
0.385514
0.370964
0.397032
0.369999
0.373012
0.381748
0.406503
0.405165
0.414434
0.385496
0.403524
0.379571
0.396113
0.382778
0.368011
0.373658
0.38385
0.372964
0.375534
0.375264
0.367897
0.408745
0.37517
0.368085
0.367843
0.372423
0.369274
0.394878
0.377102
0.374146
0.405058
0.377394
0.367041
0.368737
0.363089
0.372744
0.377011
0.411817
0.403381
0.373083
0.369126
0.377024
0.367324
0.386961
0.382569
0.397566
0.408015
0.407151
0.412121
0.370479
0.372423
0.365082
0.372365
0.38355
0.372202
0.41611
0.369744
0.37429
0.370959
0.371832
0.375673
0.368795
0.368931
0.371867
0.32807
0.382549
0.372393
0.370229
0.370001
0.371524
0.373912
0.368753
0.370915
0.389448
0.370171
0.374345
0.368266
0.369394
0.407575
0.367501
0.371266
0.374772
0.366918
0.4007
0.412598
0.372835
0.372064
0.388132
0.368338
0.366805
0.366396
0.365135
0.385083
0.374023
0.376265
0.371438
0.412309
0.412875
0.376744
0.377979
0.398399
0.368411
0.402426
0.380752
0.373868
0.377122
0.383975
0.365703
0.379028
0.374477
0.373628
0.375498
0.371774
0.385876
0.41154
0.369755
0.41843
0.418964
0.330895
0.399761
0.40892
0.379428
0.374609
0.401664
0.38561
0.417209
0.401427
0.369765
0.372859
0.407258
0.408163
0.367792
0.40722
0.373951
0.370857
0.381916
0.368047
0.400212
0.402968
0.379053
0.372603
0.398546
0.401762
0.382038
0.388661
0.373564
0.371905
0.407185
0.371085
0.407183
0.410719
0.384723
0.374846
0.389544
0.384052
0.384803
0.368825
0.41044
0.398562
0.37446
0.363012
0.371233
0.41201
0.414477
0.382227
0.365945
0.371173
0.375181
0.378969
0.370132
0.370355
0.399392
0.367894
0.3876
0.401073
0.413889
0.366534
0.37205
0.369581
0.371676
0.36937
0.404369
0.382318
0.410559
0.423257
0.37903
0.404224
0.38846
0.372532
0.34206
0.40252
0.368586
0.369332
0.368267
0.373735
0.426944
0.372037
0.402751
0.371147
0.406777
0.369057
0.414204
0.374322
0.380872
0.389614
0.384184
0.413607
0.389904
0.371093
0.369164
0.372489
0.371204
0.371403
0.405419
0.369757
0.322846
0.372036
0.373042
0.370318
0.375807
0.35836
0.37327
0.382193
0.386228
0.386166
0.37025
0.370948
0.385968
0.392924
0.374494
0.380451
0.369856
0.364753
0.371934
0.380002
0.378581
0.366487
0.371528
0.367747
0.375027
0.371522
0.376018
0.346644
0.37066
0.386183
0.372084
0.375726
0.366232
0.399484
0.395695
0.373627
0.363148
0.366785
0.360428
0.368458
0.373786
0.371504
0.398545
0.388904
0.369101
0.370596
0.369679
0.367881
0.388128
0.366133
0.404343
0.367714
0.384549
0.37077
0.382165
0.373412
0.370364
0.368216
0.401501
0.369732
0.36707
0.380037
0.398024
0.370584
0.368014
0.36975
0.371818
0.371899
0.374487
0.402471
0.367156
0.385699
0.374004
0.389811
0.387858
0.39873
0.407598
0.386092
0.369898
0.376004
0.397037
0.380576
0.404017
0.37812
0.375071
0.412912
0.399961
0.390861
0.376372
0.374355
0.383863
0.345982
0.381553
0.338819
0.39322
0.366839
0.368313
0.371053
0.35401
0.376135
0.410309
0.39739
0.373931
0.38967
0.383933
0.36959
0.369481
0.373362
0.363013
0.408415
0.360177
0.368334
0.38254
0.367369
0.364466
0.373251
0.360615
0.370019
0.386606
0.398988
0.374649
0.40889
0.412297
0.382321
0.375539
0.377904
0.3763
0.373712
0.376156
0.414299
0.384941
0.367625
0.372954
0.407774
0.383952
0.3918
0.369705
0.367906
0.384356
0.372487
0.372042
0.373018
0.405483
0.368982
0.406867
0.365718
0.366175
0.369247
0.365304
0.371522
0.365588
0.40157
0.363064
0.367677
0.392582
0.36964
0.374287
0.384745
0.371678
0.380864
0.369327
0.370547
0.365229
0.372268
0.368535
0.375634
0.36773
0.399461
0.371205
0.405247
0.400938
0.376896
0.373488
0.372896
0.371411
0.357993
0.368989
0.40608
0.37371
0.368886
0.374578
0.367071
0.403152
0.409663
0.373062
0.413551
0.367222
0.372256
0.413573
0.378579
0.373518
0.378563
0.404236
0.393317
0.409331
0.371243
0.410351
0.371561
0.369906
0.411402
0.373497
0.371068
0.368801
0.366139
0.393109
0.369913
0.371623
0.395795
0.373692
0.369242
0.376737
0.398386
0.362789
0.377276
0.36983
0.385586
0.369001
0.381454
0.383618
0.386577
0.383325
0.359587
0.368495
0.37022
0.393918
0.373612
0.371775
0.366887
0.374138
0.416138
0.365903
0.394739
0.369843
0.367286
0.367078
0.385722
0.374513
0.372408
0.37587
0.369374
0.379613
0.403178
0.399549
0.374393
0.368617
0.344645
0.386314
0.368644
0.400383
0.371558
0.406837
0.371249
0.369332
0.370643
0.404045
0.369112
0.402085
0.373369
0.376919
0.390525
0.375832
0.395073
0.386757
0.373984
0.403187
0.388271
0.37151
0.416284
0.376648
0.370409
0.414817
0.387889
0.360055
0.379251
0.375569
0.369689
0.371618
0.364221
0.387747
0.40703
0.411476
0.310295
0.368558
0.357093
0.369112
0.370644
0.398979
0.398342
0.371495
0.374965
0.409575
0.372472
0.369224
0.3871
0.365876
0.372802
0.364934
0.397354
0.380955
0.371825
0.418955
0.364941
0.357606
0.369079
0.367957
0.369377
0.373956
0.406813
0.370994
0.377348
0.370489
0.36771
0.356521
0.36432
0.370447
0.377036
0.366358
0.373029
0.368511
0.402029
0.380399
0.367665
0.354872
0.370658
0.373982
0.378344
0.370328
0.402619
0.36951
0.401095
0.373314
0.372617
0.380944
0.374344
0.383065
0.37974
0.370003
0.380783
0.358642
0.348447
0.370216
0.408074
0.372843
0.371755
0.390557
0.367307
0.368953
0.366692
0.369627
0.406161
0.368956
0.368661
0.368305
0.378644
0.37487
0.409621
0.398965
0.363572
0.402777
0.369566
0.371091
0.396974
0.379099
0.366152
0.387661
0.390626
0.391565
0.384456
0.37829
0.362849
0.385705
0.368068
0.356778
0.370608
0.407305
0.370058
0.370689
0.364946
0.400675
0.390499
0.377502
0.307173
0.397963
0.371528
0.375575
0.370479
0.356494
0.369056
0.372261
0.380126
0.369443
0.378861
0.381539
0.379712
0.367195
0.368503
0.371329
0.36248
0.364925
0.395258
0.405074
0.377457
0.327466
0.375741
0.367084
0.369283
0.365014
0.370624
0.359088
0.374108
0.364653
0.396805
0.376349
0.382037
0.365541
0.368507
0.364142
0.372368
0.377819
0.381289
0.37041
0.375621
0.375146
0.370901
0.37744
0.388071
0.387705
0.399411
0.382482
0.373112
0.400564
0.36963
0.373543
0.367065
0.369924
0.369993
0.369301
0.359697
0.354276
0.374679
0.371759
0.365991
0.381897
0.408476
0.36982
0.382613
0.371283
0.373698
0.372481
0.368279
0.37548
0.409649
0.387904
0.404712
0.372601
0.375409
0.399481
0.371519
0.376493
0.38459
0.374328
0.39146
0.398258
0.367544
0.396253
0.400278
0.320597
0.330925
0.367077
0.393454
0.371848
0.369601
0.390993
0.370526
0.365085
0.3587
0.368532
0.40604
0.368206
0.320709
0.365205
0.393142
0.395437
0.365531
0.406789
0.386848
0.380053
0.368672
0.363793
0.365062
0.382429
0.374129
0.344329
0.377014
0.374926
0.36903
0.378166
0.398088
0.358407
0.372601
0.366166
0.315915
0.399036
0.370592
0.405262
0.401855
0.371499
0.369412
0.385278
0.3812
0.372389
0.364298
0.375009
0.336217
0.411709
0.366725
0.406339
0.372286
0.400565
0.374012
0.367323
0.368522
0.400086
0.382608
0.369634
0.369881
0.376605
0.364957
0.375695
0.372063
0.372505
0.399225
0.374346
0.388928
0.356952
0.361626
0.366381
0.376211
0.366066
0.38025
0.38354
0.402622
0.365267
0.364863
0.412564
0.369764
0.372748
0.374864
0.401189
0.373078
0.382562
0.378916
0.326882
0.38514
0.371625
0.420043
0.372273
0.410281
0.400271
0.376983
0.370532
0.410694
0.372679
0.370597
0.324376
0.411901
0.36389
0.367955
0.420127
0.374413
0.4199
0.413406
0.371768
0.370151
0.378672
0.360018
0.37094
0.371211
0.384653
0.355812
0.38095
0.376042
0.379146
0.362396
0.39838
0.34846
0.38268
0.38409
0.369378
0.36391
0.376499
0.371688
0.375802
0.364425
0.370241
0.378325
0.376825
0.36841
0.374831
0.371295
0.366275
0.37182
0.373619
0.343022
0.346925
0.363641
0.379475
0.387809
0.355474
0.359901
0.388675
0.374013
0.346301
0.400657
0.396846
0.363665
0.359192
0.375288
0.370574
0.370371
0.395855
0.373354
0.378707
0.395141
0.382633
0.404586
0.361668
0.371795
0.371327
0.367014
0.403438
0.376797
0.371365
0.369921
0.368086
0.3138
0.373462
0.373479
0.371944
0.356441
0.370025
0.320757
0.36526
0.366073
0.390144
0.41285
0.388288
0.362715
0.367584
0.393862
0.392241
0.36973
0.371203
0.372896
0.389462
0.416001
0.389727
0.389648
0.372757
0.375755
0.377878
0.370899
0.366167
0.336026
0.370369
0.366699
0.37493
0.385251
0.369864
0.352493
0.399506
0.385337
0.373593
0.336709
0.338752
0.372277
0.377176
0.364542
0.409613
0.373522
0.36815
0.357855
0.357148
0.359284
0.367231
0.371086
0.367604
0.370743
0.380055
0.362508
0.367866
0.369041
0.371382
0.363566
0.363883
0.399255
0.388503
0.409005
0.378966
0.346978
0.37917
0.39934
0.372279
0.387399
0.391544
0.379397
0.365902
0.37259
0.35847
0.371698
0.376223
0.363539
0.400436
0.365468
0.395748
0.372985
0.359289
0.374381
0.372366
0.365993
0.357665
0.392614
0.393852
0.383478
0.38608
0.377757
0.324117
0.370882
0.381509
0.364233
0.377843
0.386563
0.387209
0.326364
0.36945
0.373813
0.383717
0.40097
0.388255
0.361301
0.366209
0.396455
0.314965
0.364817
0.405925
0.368633
0.372587
0.370296
0.406384
0.368653
0.396705
0.39158
0.39955
0.363468
0.373386
0.378424
0.371698
0.372914
0.373465
0.402564
0.416963
0.372581
0.37575
0.373663
0.362648
0.398992
0.363558
0.384925
0.338601
0.373709
0.386732
0.391394
0.373681
0.364808
0.393477
0.397012
0.353784
0.3578
0.365779
0.382759
0.394811
0.401979
0.367686
0.374749
0.349753
0.362437
0.380872
0.371482
0.362634
0.347936
0.3636
0.364558
0.38419
0.373035
0.360529
0.366367
0.38167
0.340457
0.360378
0.35774
0.338581
0.361962
0.363683
0.379874
0.358769
0.366767
0.336728
0.365092
0.401066
0.368661
0.362207
0.386563
0.375739
0.351194
0.369489
0.342756
0.400815
0.399841
0.369671
0.319139
0.371743
0.406043
0.380735
0.371046
0.398994
0.371495
0.364853
0.412269
0.377365
0.367233
0.369812
0.370859
0.366054
0.36558
0.365486
0.365306
0.367113
0.373878
0.358993
0.372213
0.365708
0.358291
0.367688
0.370544
0.37653
0.348753
0.367853
0.370139
0.37508
0.384854
0.377995
0.407312
0.362956
0.37517
0.370323
0.369439
0.353643
0.373998
0.406379
0.373718
0.38493
0.389425
0.342253
0.400647
0.356139
0.375484
0.370231
0.3701
0.351493
0.401555
0.373543
0.355006
0.395545
0.360621
0.361073
0.329905
0.362637
0.38597
0.388111
0.351907
0.340388
0.345954
0.39701
0.371106
0.344831
0.366612
0.402087
0.377051
0.353284
0.3635
0.345069
0.371725
0.358303
0.377512
0.375712
0.35644
0.351992
0.388063
0.391881
0.370636
0.383691
0.407636
0.33071
0.367837
0.394826
0.381395
0.399517
0.368461
0.363661
0.369793
0.315047
0.369356
0.372303
0.372605
0.365166
0.370612
0.370417
0.359979
0.38175
0.375631
0.366466
0.374493
0.384378
0.384354
0.374005
0.33396
0.389843
0.340352
0.355845
0.364879
0.34575
0.37015
0.37535
0.372465
0.375591
0.367713
0.346911
0.345549
0.310686
0.373637
0.360217
0.383127
0.383418
0.40264
0.360994
0.370102
0.359321
0.350329
0.351789
0.350316
0.367482
0.382848
0.371691
0.370969
0.349174
0.402611
0.391114
0.402073
0.34075
0.365405
0.321752
0.310047
0.378035
0.33705
0.407669
0.372029
0.405209
0.396532
0.349071
0.393107
0.390243
0.34556
0.328937
0.368312
0.404855
0.367787
0.374984
0.36874
0.363893
0.362099
0.345443
0.346475
0.400712
0.38509
0.370491
0.380603
0.365804
0.379775
0.356091
0.380771
0.37215
0.376997
0.358893
0.308093
0.305251
0.346988
0.366247
0.361841
0.374012
0.348053
0.402865
0.37018
0.380181
0.347779
0.407401
0.357892
0.352002
0.379523
0.4086
0.343209
0.371378
0.312111
0.343341
0.320667
0.368265
0.400129
0.389624
0.360368
0.3902
0.3508
0.396915
0.319759
0.369231
0.380486
0.37161
0.336813
0.413968
0.340541
0.367378
0.334995
0.359618
0.371583
0.351554
0.414275
0.354552
0.375695
0.360225
0.367232
0.373171
0.345677
0.388428
0.404547
0.358664
0.405738
0.32649
0.404967
0.389942
0.350154
0.368628
0.369887
0.375614
0.338065
0.395585
0.366493
0.337372
0.363073
0.396116
0.356485
0.367065
0.326202
0.365106
0.376859
0.368887
0.359567
0.365268
0.367674
0.397607
0.367894
0.373052
0.390437
0.317909
0.35227
0.361058
0.382663
0.374899
0.330389
0.364968
0.347565
0.346961
0.320536
0.304886
0.308542
0.374947
0.372547
0.374944
0.364453
0.38669
0.378043
0.371688
0.366712
0.3362
0.357311
0.371041
0.358129
0.3699
0.371345
0.403481
0.35517
0.370369
0.369472
0.35048
0.366195
0.366037
0.382021
0.347012
0.375171
0.352268
0.352362
0.346837
0.395412
0.337233
0.359223
0.341725
0.360138
0.33658
0.333993
0.35659
0.39546
0.335318
0.407319
0.381556
0.38912
0.322755
0.372514
0.356459
0.344033
0.355419
0.376322
0.367748
0.30627
0.361323
0.334287
0.3717
0.386247
0.376574
0.344177
0.372991
0.369506
0.364305
0.337986
0.346087
0.367032
0.360588
0.32198
0.31752
0.36999
0.328015
0.328072
0.346929
0.351911
0.369444
0.344619
0.335251
0.33913
0.370254
0.349235
0.332693
0.31495
0.36304
0.342423
0.384997
0.386949
0.370297
0.377207
0.350795
0.34164
0.34172
0.313832
0.312321
0.371265
0.382573
0.354685
0.373198
0.364738
0.36487
0.358171
0.324773
0.34115
0.400537
0.361244
0.385742
0.326872
0.374619
0.370837
0.397175
0.397378
0.354438
0.335162
0.337828
0.368109
0.362768
0.372116
0.370891
0.337482
0.333415
0.410183
0.336528
0.310234
0.332141
0.35796
0.341603
0.357854
0.336875
0.354363
0.356294
0.314412
0.390951
0.386382
0.350144
0.365622
0.341161
0.351255
0.368406
0.338663
0.401295
0.346562
0.359352
0.38178
0.341818
0.342982
0.372159
0.355754
0.344932
0.367773
0.378503
0.356122
0.366112
0.340358
0.353264
0.329729
0.347383
0.367031
0.353684
0.350429
0.360006
0.368557
0.333752
0.326116
0.324403
0.370127
0.386069
0.320956
0.360643
0.383425
0.363111
0.363905
0.395242
0.324226
0.346921
0.334763
0.332302
0.374914
0.374762
0.386824
0.384557
0.354084
0.357463
0.353381
0.363837
0.336039
0.331915
0.353631
0.323859
0.399426
0.346752
0.356552
0.338181
0.347784
0.390331
0.335774
0.323652
0.34041
0.330498
0.372063
0.365222
0.343204
0.318744
0.339337
0.323975
0.37009
0.379353
0.380931
0.372365
0.351913
0.375043
0.371418
0.398958
0.358296
0.370351
0.335813
0.367907
0.352552
0.342038
0.322678
0.398113
0.342159
0.367308
0.338416
0.365732
0.302651
0.315975
0.332459
0.363599
0.337603
0.330313
0.353042
0.368242
0.373088
0.346628
0.359478
0.379772
0.369211
0.368152
0.311023
0.339992
0.373071
0.331281
0.37113
0.336524
0.32047
0.36399
0.338821
0.351259
0.342453
0.336792
0.329381
0.326398
0.380636
0.375952
0.369993
0.350055
0.336177
0.339247
0.335872
0.359161
0.341086
0.367185
0.33271
0.364796
0.320891
0.37526
0.335175
0.332596
0.375293
0.369895
0.344719
0.35524
0.306926
0.334423
0.342381
0.32188
0.344941
0.363883
0.383667
0.372416
0.377528
0.354569
0.347849
0.338161
0.330743
0.347989
0.350246
0.394446
0.346946
0.357765
0.36293
0.329808
0.341349
0.391159
0.386259
0.401885
0.373904
0.305242
0.325684
0.403691
0.361121
0.335266
0.37038
0.392458
0.398353
0.345311
0.339838
0.360007
0.317106
0.304574
0.36718
0.310416
0.367346
0.337133
0.323041
0.349396
0.337027
0.366357
0.375352
0.317096
0.31563
0.354683
0.326865
0.342625
0.320461
0.332823
0.342115
0.369407
0.32773
0.352416
0.380462
0.354138
0.347024
0.328699
0.35798
0.34936
0.349703
0.326593
0.341712
0.356607
0.364654
0.341788
0.380996
0.337915
0.368294
0.312549
0.339072
0.328815
0.378298
0.353187
0.371592
0.392453
0.347153
0.370225
0.371294
0.352245
0.35895
0.326974
0.335202
0.356899
0.342622
0.367096
0.347925
0.319617
0.355275
0.335743
0.329003
0.309862
0.340961
0.342828
0.375355
0.318301
0.352767
0.365419
0.31477
0.324979
0.374391
0.32642
0.345383
0.341648
0.345339
0.305995
0.316529
0.340235
0.331998
0.349907
0.336988
0.347061
0.318172
0.356261
0.359006
0.339069
0.32542
0.347441
0.376581
0.345348
0.3484
0.373073
0.307711
0.314496
0.348732
0.303968
0.390093
0.356646
0.336425
0.352223
0.349015
0.321069
0.384581
0.369683
0.311964
0.373411
0.361153
0.342371
0.329794
0.330328
0.324093
0.33772
0.366011
0.387977
0.322236
0.346864
0.347114
0.324125
0.396912
0.330059
0.319239
0.312671
0.335294
0.337512
0.338408
0.350233
0.353824
0.355223
0.32938
0.331288
0.321388
0.376519
0.331671
0.302977
0.330673
0.329673
0.319548
0.357099
0.332279
0.365698
0.3589
0.351629
0.376206
0.349043
0.357654
0.350005
0.346159
0.386661
0.358431
0.326537
0.318243
0.353545
0.312354
0.302493
0.315601
0.359184
0.30868
0.307296
0.343888
0.361218
0.357848
0.363544
0.322408
0.310466
0.338157
0.336891
0.323795
0.366677
0.327986
0.369904
0.312794
0.305989
0.324386
0.321423
0.384228
0.33656
0.356737
0.353447
0.345187
0.337928
0.328736
0.359948
0.322311
0.332746
0.367756
0.324145
0.36477
0.307139
0.307559
0.344994
0.331446
0.334924
0.327959
0.349643
0.35846
0.3854
0.399038
0.377002
0.310776
0.307457
0.330727
0.337437
0.308464
0.305952
0.316884
0.319596
0.353675
0.371295
0.346301
0.34602
0.367881
0.306137
0.332308
0.33544
0.354193
0.359371
0.316772
0.340628
0.341638
0.36088
0.374739
0.327051
0.327682
0.365323
0.387062
0.367402
0.322197
0.367985
0.357263
0.352399
0.372738