/*--------------------------------*- C++ -*----------------------------------*\
| =========                 |                                                 |
| \\      /  F ield         | OpenFOAM: The Open Source CFD Toolbox           |
|  \\    /   O peration     | Version:  2212                                  |
|   \\  /    A nd           | Website:  www.openfoam.com                      |
|    \\/     M anipulation  |                                                 |
\*---------------------------------------------------------------------------*/
FoamFile
{
    version     2.0;
    format      ascii;
    arch        "LSB;label=32;scalar=64";
    class       volScalarField;
    location    "0.046";
    object      k;
}
// * * * * * * * * * * * * * * * * * * * * * * * * * * * * * * * * * * * * * //

dimensions      [0 2 -2 0 0 0 0];

internalField   nonuniform List<scalar> 
31639
(
0.012724
0.0124681
0.0126326
0.0130699
0.0126163
0.0123818
0.0124216
0.0128234
0.0126891
0.0128903
0.0128826
0.0128724
0.0125545
0.012956
0.0122897
0.0122372
0.0127973
0.0124571
0.0121332
0.0125693
0.0115622
0.0129636
0.0129747
0.0121715
0.0121036
0.0126298
0.0125204
0.0105379
0.0124023
0.013044
0.0128982
0.0123332
0.0129644
0.0121142
0.0118534
0.0130119
0.0112806
0.0131733
0.012954
0.0112085
0.0117613
0.0118106
0.0128107
0.0129334
0.0129123
0.0129068
0.0123376
0.0124356
0.0127765
0.01303
0.0128826
0.0112721
0.0130741
0.0115348
0.0123339
0.0127159
0.0116224
0.0125664
0.0124301
0.0116144
0.0125956
0.0129284
0.0121753
0.0125018
0.0126861
0.013041
0.0125437
0.0125349
0.0120269
0.0130154
0.0129277
0.0120435
0.0127753
0.0125552
0.0129791
0.0118744
0.0128399
0.0124414
0.0122975
0.0128219
0.0121391
0.0111468
0.0129567
0.0126644
0.0126283
0.0128613
0.0129933
0.012938
0.0119297
0.013065
0.012618
0.0126635
0.0116754
0.0123688
0.0119456
0.0123899
0.0124338
0.012534
0.0125921
0.0116639
0.0130154
0.0128629
0.0123343
0.0115254
0.0116212
0.012939
0.0115407
0.0114029
0.0119835
0.0115451
0.012733
0.0116956
0.0124251
0.0122968
0.0125257
0.0115002
0.0125296
0.0125612
0.0128438
0.0124402
0.0128741
0.0128537
0.0128032
0.0126789
0.0126608
0.0129738
0.0125392
0.0120399
0.0118873
0.0127821
0.0128712
0.0128092
0.0128836
0.012413
0.0128608
0.0125275
0.0116166
0.011435
0.0128242
0.0125375
0.0125208
0.0128702
0.0129007
0.0114589
0.011302
0.01297
0.0128158
0.0117593
0.0117064
0.0128818
0.0121294
0.0127738
0.0121683
0.0127975
0.0119429
0.0130341
0.0125758
0.0119706
0.011868
0.0121708
0.0129338
0.0120168
0.0121403
0.0115931
0.0117731
0.012391
0.0119065
0.013048
0.012861
0.0114677
0.01218
0.0122068
0.0118198
0.0125303
0.0130626
0.0127882
0.012611
0.0130627
0.0125581
0.0124971
0.012333
0.0124455
0.0122008
0.0112921
0.0126956
0.0131161
0.0123927
0.0130163
0.0117645
0.0117074
0.0133223
0.0128772
0.0127969
0.0124529
0.0125475
0.0124115
0.0124003
0.0127797
0.0115623
0.0123722
0.0129727
0.0130976
0.0127189
0.0127021
0.0126137
0.0124653
0.0123879
0.0122191
0.0129193
0.0113185
0.0124737
0.0124395
0.0127219
0.0128999
0.0129342
0.0129421
0.0118369
0.0122035
0.0129423
0.0128221
0.0126868
0.0125244
0.0115646
0.0125179
0.0116105
0.0124967
0.012847
0.012247
0.0117949
0.0127998
0.0126997
0.0131099
0.0119264
0.0117425
0.0127521
0.0127857
0.0115791
0.0129744
0.012172
0.0115362
0.0123441
0.0127354
0.0124892
0.0123068
0.0122507
0.0128414
0.0123085
0.0122371
0.0117832
0.012431
0.0122512
0.0118976
0.0123155
0.0130522
0.0128811
0.0123394
0.0118806
0.0127643
0.0127719
0.0127164
0.0130461
0.0129148
0.0126609
0.0129348
0.0123256
0.0124957
0.0114134
0.0121325
0.0128713
0.0122381
0.0125096
0.0123016
0.0126445
0.0132132
0.0130623
0.0127075
0.0116771
0.0124719
0.0120924
0.0129067
0.0125235
0.0130284
0.0130513
0.0123968
0.0117541
0.0121808
0.0119058
0.0116742
0.0128714
0.0119681
0.0129618
0.0123754
0.0122371
0.0118947
0.0131648
0.0123539
0.0124644
0.0129588
0.012694
0.0122244
0.0124267
0.0119805
0.0125167
0.0123587
0.0118258
0.0123491
0.0122596
0.0110681
0.0114111
0.0128803
0.0129772
0.0125615
0.0115665
0.0119814
0.0127702
0.0119746
0.0118699
0.0129922
0.013165
0.0123407
0.012907
0.0130107
0.0118413
0.0128961
0.011521
0.0115765
0.0130137
0.0128754
0.0128999
0.0130422
0.0128426
0.0118991
0.0124281
0.0123841
0.0129763
0.0131321
0.0131161
0.0123957
0.0122119
0.0127936
0.0127613
0.0126672
0.0122964
0.0124618
0.0123055
0.0125423
0.0127258
0.0123173
0.0118366
0.0127564
0.0130865
0.0123541
0.0129988
0.0129561
0.0124559
0.0118331
0.0124345
0.0124257
0.0115534
0.0131827
0.0119767
0.0127037
0.0127546
0.0114609
0.0124943
0.0124648
0.0116533
0.012619
0.0118896
0.0125431
0.0130589
0.0128125
0.0114052
0.0126677
0.0119015
0.0126849
0.0129018
0.0130013
0.0129795
0.0119859
0.0128021
0.0115585
0.0123277
0.0115605
0.0129775
0.0128034
0.0129161
0.0128522
0.0119934
0.013124
0.0124479
0.0127764
0.0124121
0.0121485
0.0125063
0.0127675
0.0126784
0.0127775
0.0126436
0.0128312
0.0124667
0.011864
0.0125695
0.0127489
0.0127251
0.0114394
0.0129474
0.0128763
0.01245
0.0126127
0.0127024
0.0126754
0.0129978
0.0114349
0.0127027
0.0129499
0.0114445
0.0125755
0.0126842
0.0119142
0.0116406
0.0116504
0.012352
0.0116756
0.0124366
0.0122122
0.0123204
0.0130704
0.0117612
0.012834
0.0129753
0.0124852
0.0128557
0.0123623
0.0129674
0.012484
0.0127221
0.0130401
0.0124325
0.0117153
0.0125187
0.0129712
0.012878
0.0128056
0.0129965
0.0123169
0.0126716
0.0128818
0.013082
0.0130165
0.0118522
0.0124234
0.0112519
0.0126317
0.0123641
0.0117956
0.0116837
0.0123445
0.0128124
0.0128827
0.0116652
0.0128094
0.0122704
0.0124222
0.0128616
0.0102152
0.0123771
0.0115702
0.0122769
0.0128901
0.0130744
0.0127933
0.0125462
0.0113874
0.0127986
0.0124993
0.0127221
0.0116129
0.0118571
0.0124247
0.0117174
0.0118741
0.012641
0.0115677
0.0123732
0.0114219
0.0128102
0.0117615
0.0130201
0.0128647
0.0128361
0.0129345
0.0122536
0.0128203
0.0129309
0.0126146
0.012898
0.0125096
0.0128229
0.013153
0.0122998
0.0129356
0.0129791
0.0124274
0.0120816
0.0130499
0.0125075
0.0113862
0.0115542
0.0125184
0.013054
0.012978
0.0124696
0.0132549
0.0132208
0.0127459
0.0125886
0.0124493
0.0123846
0.0118854
0.0124541
0.0127656
0.013031
0.012174
0.0120085
0.0119718
0.0122557
0.0123874
0.0112923
0.0127921
0.0122589
0.0127516
0.0125406
0.0128611
0.0125541
0.0118789
0.0126837
0.0129378
0.0120539
0.0128729
0.0129713
0.0122489
0.0124253
0.0105443
0.012024
0.0124387
0.0125095
0.0119042
0.0118226
0.012534
0.0117684
0.0127651
0.0121829
0.0124526
0.012922
0.0124656
0.0115419
0.0123246
0.0125369
0.0129682
0.011746
0.011209
0.0129063
0.0116165
0.0125859
0.0131243
0.0117925
0.0124529
0.0130137
0.0126309
0.0117387
0.0128871
0.0126324
0.0116388
0.0128184
0.0125784
0.0123834
0.0127339
0.0114246
0.0121465
0.0126453
0.0123635
0.0125087
0.0126606
0.0131412
0.0128539
0.0127054
0.0129533
0.0129163
0.0128202
0.0121021
0.0127855
0.0130084
0.0131526
0.0120319
0.0125373
0.0126368
0.0132935
0.0119261
0.0113812
0.0129851
0.0119107
0.0131549
0.0123099
0.0118148
0.0126071
0.0129027
0.012741
0.0127201
0.0114526
0.0127785
0.0125649
0.0115103
0.0129833
0.0128743
0.0104963
0.0117923
0.0120551
0.0123526
0.0125929
0.0125663
0.0124736
0.0124987
0.0128913
0.0125033
0.0124694
0.0118497
0.0130435
0.0116084
0.0124582
0.0124689
0.0121953
0.0130742
0.0124577
0.0120842
0.0115713
0.0118264
0.0124366
0.0129246
0.011942
0.0130557
0.0126453
0.0128504
0.0118216
0.0122941
0.0127976
0.013075
0.012967
0.0127676
0.012517
0.0125817
0.01306
0.0130629
0.0129673
0.0121444
0.0128933
0.0118076
0.0129921
0.0128785
0.0124437
0.011954
0.0123436
0.0111557
0.0129585
0.0127044
0.0131465
0.0124193
0.0121434
0.0116985
0.0126906
0.0115684
0.0114163
0.0119398
0.0122709
0.0117994
0.0124814
0.0116984
0.0127547
0.0127343
0.011382
0.0130601
0.0119111
0.0120573
0.0122708
0.012227
0.0128245
0.0129727
0.0130559
0.0129314
0.0125015
0.0125433
0.0123991
0.0123778
0.0115918
0.00936815
0.0130116
0.0123797
0.0128215
0.0128884
0.0116913
0.0129431
0.0129928
0.0127936
0.0128179
0.0127545
0.012617
0.0130483
0.0130917
0.0125753
0.0129092
0.0129063
0.0119501
0.012916
0.0122417
0.0127478
0.0121578
0.0123922
0.0121385
0.0131331
0.0123974
0.0125518
0.0125328
0.0119703
0.0130581
0.0126574
0.0123416
0.0118935
0.0127634
0.0114928
0.0128607
0.0128433
0.0121584
0.0130518
0.0131296
0.0130245
0.0116472
0.0125461
0.0125799
0.0126412
0.0119095
0.0128369
0.0129061
0.012227
0.012517
0.0121918
0.0128099
0.0123214
0.0124397
0.0115116
0.0127896
0.0126925
0.0128073
0.0122772
0.0124576
0.0126373
0.0124947
0.0122638
0.0127414
0.0128127
0.0123835
0.011495
0.0114988
0.0123987
0.0112711
0.0116782
0.0126313
0.0126219
0.0128414
0.0114554
0.0123565
0.0129702
0.0119898
0.0115747
0.0125326
0.0118751
0.0128383
0.0120832
0.0129567
0.0121465
0.01227
0.0130586
0.0114847
0.0122675
0.0123486
0.0128599
0.0130214
0.0129324
0.0119584
0.0127086
0.013005
0.0122638
0.0130279
0.0128814
0.0127407
0.012809
0.012525
0.0131283
0.0131315
0.0131141
0.0127207
0.0122611
0.0126656
0.0124622
0.0115587
0.0122916
0.0128389
0.0129027
0.0130994
0.012455
0.0130121
0.012911
0.0122083
0.0129291
0.0128888
0.0127558
0.0129141
0.0117543
0.0123233
0.0127968
0.0114085
0.012586
0.0124102
0.0125091
0.0123659
0.0130507
0.0127846
0.0128588
0.0123902
0.0127985
0.0125681
0.0129956
0.012595
0.0124374
0.0118819
0.0129153
0.0120366
0.012331
0.0125247
0.0123055
0.0126576
0.0130226
0.0118121
0.012999
0.0118463
0.012639
0.0124391
0.0123314
0.0124287
0.0129771
0.0116892
0.0127435
0.0129238
0.0130684
0.0126506
0.0125758
0.0112869
0.0128892
0.012891
0.012694
0.0127654
0.012884
0.0125652
0.0128555
0.0125015
0.0119348
0.0124756
0.0130172
0.0114794
0.011988
0.0132665
0.0128447
0.0121952
0.0123992
0.012647
0.0121701
0.0124083
0.0120164
0.0128649
0.0130458
0.0113927
0.0126499
0.0129261
0.0129385
0.0132194
0.0123227
0.0128901
0.0119713
0.0119402
0.0129957
0.0128888
0.0124394
0.0119492
0.0128297
0.0128825
0.0121886
0.0130262
0.0129176
0.012949
0.0127679
0.0128411
0.0126432
0.0125926
0.0123401
0.0122068
0.0116486
0.0126182
0.0125476
0.0119038
0.0129403
0.0116241
0.0123037
0.0124818
0.0118524
0.0124175
0.0122798
0.0126558
0.0125938
0.0128959
0.0118293
0.0118439
0.0123978
0.0116955
0.0121651
0.0128767
0.0123993
0.0129286
0.0126999
0.0123978
0.013039
0.0123117
0.0126796
0.0123835
0.0124027
0.0127013
0.0120066
0.0125549
0.0128529
0.0129572
0.0130837
0.0118833
0.0116663
0.0125108
0.0128996
0.0119649
0.0122896
0.0128483
0.012432
0.0132715
0.0124504
0.0123135
0.012901
0.0117554
0.0129015
0.0131568
0.0119042
0.0121851
0.0124216
0.0123241
0.0130608
0.0130459
0.0128424
0.0120131
0.0128503
0.0117267
0.0123844
0.0130082
0.0123667
0.0132508
0.0114952
0.0125118
0.0127333
0.0125893
0.0116246
0.0116231
0.0128512
0.0130512
0.0123386
0.0130044
0.0127333
0.0124347
0.0117879
0.0121706
0.0127227
0.0124971
0.0124932
0.0130952
0.0129444
0.0132149
0.0130033
0.0127154
0.0127227
0.0127687
0.0119765
0.0129508
0.0127402
0.0125921
0.0126783
0.0130672
0.0125218
0.0130045
0.0123778
0.0113553
0.0131133
0.0122454
0.0129102
0.0122538
0.0128875
0.0119924
0.0127356
0.0131893
0.0124655
0.0124921
0.0116362
0.0128113
0.0129389
0.0126424
0.0117111
0.0132332
0.0124983
0.0125996
0.0129969
0.0129752
0.0128389
0.0124241
0.0126248
0.0132042
0.0119757
0.0120705
0.0119058
0.0121014
0.0126394
0.0116608
0.0130405
0.0129437
0.0132109
0.0123726
0.0123805
0.0125442
0.0128809
0.0125478
0.0126875
0.0129768
0.0131013
0.0126379
0.0129016
0.0125804
0.0123192
0.0127005
0.0122795
0.0130958
0.0130325
0.0130695
0.0131648
0.0129391
0.0122035
0.0131753
0.0126701
0.012632
0.0123201
0.0126717
0.0130357
0.0124737
0.0128536
0.0123632
0.0125094
0.0127655
0.0120523
0.0117096
0.012333
0.0124875
0.0131136
0.0122444
0.0116313
0.0126771
0.0129087
0.0121776
0.0122592
0.0125394
0.0130465
0.012932
0.0123345
0.0122908
0.0125257
0.0129678
0.0123197
0.0125434
0.0125663
0.0116497
0.012375
0.012402
0.0128273
0.0129338
0.0125115
0.0130034
0.0128485
0.0124697
0.0126056
0.0117886
0.0120299
0.0116761
0.013052
0.0126832
0.0131424
0.0134418
0.0127725
0.0116501
0.012929
0.0123487
0.0127792
0.0127452
0.0128595
0.0116986
0.013035
0.0118634
0.0125467
0.012593
0.0125477
0.0132529
0.0124367
0.012843
0.01197
0.0124127
0.0125819
0.0130198
0.0121319
0.0122202
0.0127533
0.0129044
0.0128012
0.0127677
0.013023
0.0119074
0.0125966
0.0124107
0.0122045
0.0128198
0.0131293
0.013055
0.0128793
0.0131227
0.0119267
0.0118874
0.011943
0.013056
0.0117117
0.0128529
0.012724
0.0118134
0.0123229
0.0128569
0.0129903
0.0121755
0.0122964
0.0122605
0.0126077
0.0130895
0.0125578
0.0118435
0.0125733
0.0131892
0.0129438
0.0132238
0.013037
0.0133425
0.0130729
0.0129989
0.0120532
0.0116955
0.0125773
0.0121855
0.0130938
0.0118901
0.0126627
0.0124705
0.0130802
0.0120886
0.0128691
0.0128314
0.0127176
0.0124782
0.0118621
0.0129518
0.0123585
0.0131943
0.0125714
0.0131346
0.013062
0.0125768
0.0117029
0.0118252
0.0124143
0.0128154
0.0122026
0.0133077
0.011968
0.012854
0.0127964
0.01235
0.0127218
0.0128462
0.0130479
0.013021
0.0130442
0.0126365
0.0127159
0.0116661
0.0122359
0.013073
0.0120627
0.0128044
0.0124256
0.0119266
0.0124476
0.0121732
0.0124413
0.0127415
0.0128831
0.0119754
0.0124069
0.0125996
0.0118966
0.0122351
0.012448
0.0125827
0.0128081
0.0118784
0.011838
0.0124822
0.0123929
0.0130809
0.0131986
0.0130219
0.0122346
0.0123412
0.0126019
0.0121886
0.0129221
0.0118074
0.0125334
0.0125134
0.0131139
0.0129136
0.0125952
0.0127097
0.0130252
0.0118782
0.0126527
0.0130879
0.0122828
0.0111508
0.0125411
0.0119758
0.0126589
0.0115796
0.0130524
0.0131797
0.0130836
0.0126027
0.0118332
0.011795
0.0129323
0.0130957
0.013068
0.0126284
0.0126812
0.0127439
0.0131015
0.0129153
0.0115791
0.0125919
0.0127118
0.0127138
0.0122883
0.0127844
0.0115373
0.013099
0.0129233
0.012566
0.0126279
0.0127972
0.0124906
0.0131009
0.0127764
0.0119694
0.0124135
0.0128925
0.0123657
0.0125785
0.0127625
0.0116058
0.011912
0.0130295
0.0131649
0.0129754
0.0131694
0.0127556
0.012933
0.0126901
0.0126345
0.0127106
0.0129545
0.0123148
0.0125519
0.0121883
0.0124953
0.0129278
0.0114826
0.0126514
0.0116076
0.0129309
0.0116492
0.0116271
0.0123814
0.0114958
0.0127209
0.012691
0.0129146
0.0129535
0.0122571
0.0121023
0.0131983
0.0123007
0.011949
0.0126176
0.0121503
0.0130353
0.0127994
0.0126786
0.0119276
0.0129386
0.0128854
0.013032
0.0117015
0.0122374
0.0126522
0.0128556
0.013261
0.011819
0.0117399
0.0129857
0.0127702
0.0130817
0.0125228
0.0114699
0.0127684
0.0129321
0.0117139
0.0115764
0.0129623
0.0119272
0.0119294
0.0129557
0.0131696
0.0128011
0.0132564
0.0124333
0.0124205
0.0130217
0.0121502
0.0130003
0.0122879
0.0126452
0.0129658
0.0123896
0.0117172
0.0128374
0.0128718
0.0123099
0.0124639
0.0125829
0.0121826
0.0114114
0.0126234
0.012771
0.0129532
0.0123127
0.012668
0.0117082
0.0128286
0.0131461
0.0115979
0.0129188
0.0126435
0.0112941
0.0117236
0.0125878
0.012482
0.0128924
0.0123994
0.0119577
0.0128788
0.013109
0.0130146
0.012773
0.0130193
0.0117839
0.0130277
0.0125139
0.0118479
0.0118103
0.0111749
0.0118389
0.0126875
0.0124453
0.012728
0.0125136
0.0119974
0.0121725
0.0115411
0.0115208
0.0132168
0.0131493
0.0119888
0.0130721
0.0130533
0.0119651
0.0124943
0.0126862
0.012203
0.0122756
0.0129931
0.0121219
0.0114958
0.0130247
0.0131123
0.0123053
0.0130809
0.0124043
0.0120828
0.0119206
0.0124365
0.0116591
0.011903
0.012661
0.0126638
0.0124284
0.013048
0.0130439
0.0124792
0.0129344
0.00899991
0.0124554
0.0117585
0.01244
0.0130085
0.012419
0.0121857
0.0123949
0.0119233
0.012676
0.0124529
0.0121795
0.0117969
0.0113813
0.0114049
0.0123829
0.0118259
0.0125002
0.0117926
0.0123861
0.0129732
0.0126677
0.0124157
0.0125814
0.0128205
0.0124822
0.0128304
0.0116164
0.012621
0.013024
0.0130457
0.0123374
0.0132338
0.0120946
0.0128705
0.0124152
0.0116876
0.0129821
0.0130291
0.0127231
0.0126754
0.0129578
0.0127054
0.011407
0.0114879
0.0123501
0.013122
0.0126212
0.0129168
0.0122721
0.0124058
0.0120293
0.011714
0.011722
0.0116988
0.0127777
0.0126386
0.0129441
0.0122643
0.012313
0.0132364
0.0118494
0.0124909
0.0131406
0.0129808
0.0120798
0.0123655
0.0128203
0.0130247
0.0130208
0.0107275
0.0127475
0.0129169
0.0126525
0.012497
0.0131643
0.0128911
0.0130216
0.0126479
0.0121686
0.0125729
0.0130431
0.0127379
0.0124108
0.0118084
0.0129601
0.012971
0.0129602
0.0128593
0.0115434
0.0112177
0.0123607
0.0128304
0.0124842
0.0126287
0.0128122
0.0128551
0.0128584
0.0123199
0.0128686
0.0125531
0.0129368
0.0119309
0.0119191
0.0123333
0.0131638
0.0118947
0.0128838
0.011821
0.0124559
0.0125267
0.0131909
0.0125172
0.0129149
0.0131362
0.0129285
0.0126387
0.012908
0.0125149
0.0123067
0.0114653
0.013142
0.0111197
0.0117618
0.0109315
0.011428
0.0115885
0.0124115
0.0126378
0.0118575
0.0122647
0.0112549
0.0119326
0.0121793
0.0130543
0.0116204
0.0117421
0.0128349
0.0116368
0.0123464
0.01276
0.0128421
0.0123639
0.0118076
0.0115091
0.0122269
0.0131707
0.0121298
0.0116841
0.0127838
0.0122882
0.0126288
0.0124556
0.0119249
0.0129951
0.0114423
0.0117344
0.0124404
0.0130237
0.0123243
0.012462
0.0125236
0.0125104
0.0113868
0.0119847
0.0123254
0.012922
0.0128107
0.0117213
0.011295
0.0124248
0.0130963
0.0124027
0.0125187
0.0121088
0.0123203
0.0124444
0.0117164
0.0130085
0.0122345
0.0116967
0.0112825
0.012761
0.0124989
0.0130394
0.0125858
0.0129015
0.0117792
0.0124079
0.0114546
0.0113037
0.0129926
0.0119344
0.0125397
0.0125293
0.012149
0.0117155
0.0130349
0.0128799
0.0130621
0.0126997
0.0110362
0.0124654
0.0114048
0.013062
0.0118725
0.0129947
0.0112589
0.0127209
0.0128707
0.0122511
0.0122968
0.0114194
0.0121543
0.0124623
0.0128342
0.012754
0.0130597
0.0129507
0.0118366
0.0130573
0.0113996
0.012619
0.012733
0.0129501
0.012962
0.0122505
0.013124
0.0124593
0.0122261
0.0121955
0.0125995
0.0129362
0.0121345
0.0118593
0.0130422
0.0128161
0.0123719
0.013092
0.012674
0.0127446
0.0128591
0.0128789
0.0129512
0.0123854
0.0123166
0.0129467
0.0128705
0.0112988
0.0124404
0.0120401
0.0130886
0.0126926
0.0129303
0.0117591
0.0117029
0.0125641
0.012702
0.0127627
0.0128794
0.0129002
0.0125323
0.0127846
0.0118495
0.0127363
0.0124081
0.0130126
0.0129495
0.0129844
0.0126581
0.0130142
0.0121287
0.0129878
0.0120555
0.0123298
0.0123256
0.0125662
0.0123313
0.0127773
0.0116148
0.0129458
0.0128154
0.0124462
0.0117688
0.0130619
0.0127215
0.0129252
0.0124016
0.0125084
0.0129092
0.0116832
0.0129816
0.0125412
0.0125868
0.0120605
0.0121596
0.0122372
0.0116729
0.0123
0.0131701
0.0126279
0.0113141
0.0126986
0.0116041
0.0127005
0.0127025
0.0114879
0.0115417
0.0122231
0.0126168
0.0129085
0.0122848
0.0124093
0.0125025
0.0113552
0.0123311
0.0129898
0.0129544
0.0129884
0.0125389
0.0127746
0.0118401
0.0118436
0.0131605
0.0125222
0.0127388
0.0128181
0.0131598
0.0125809
0.0125876
0.0114544
0.0126897
0.0129307
0.0122379
0.0129825
0.0128656
0.0126766
0.011929
0.0127517
0.0123694
0.0112506
0.012603
0.0120233
0.0117416
0.0127204
0.0125516
0.0129474
0.0129197
0.012642
0.0131536
0.0112187
0.0122748
0.0130086
0.0130781
0.0114843
0.0127435
0.0118967
0.0120796
0.0130114
0.0121389
0.0127232
0.0131862
0.0128093
0.0113779
0.0128254
0.011823
0.0129146
0.0127308
0.0126433
0.0129302
0.0126044
0.0128928
0.0117303
0.0128205
0.0129677
0.011856
0.0126637
0.012509
0.0123635
0.012901
0.0123874
0.0129159
0.0130747
0.0130335
0.0124465
0.0129406
0.0125579
0.012756
0.0121273
0.0120457
0.0116684
0.0114877
0.0127151
0.0127857
0.0124793
0.0130849
0.0120534
0.0130482
0.0114959
0.0131644
0.0130937
0.0128093
0.0130399
0.0121114
0.0114536
0.0124083
0.0117735
0.0129292
0.0125126
0.0115205
0.0123768
0.0132002
0.0127958
0.0116529
0.0121089
0.011419
0.0132132
0.0116925
0.0129145
0.0119747
0.0119202
0.0130436
0.0130281
0.0129829
0.0127567
0.0115688
0.0126366
0.0130621
0.0118977
0.0130889
0.0125785
0.013183
0.0112844
0.0127027
0.0121575
0.01266
0.0122778
0.0123075
0.0123075
0.0121905
0.0124275
0.0124485
0.0125718
0.0123361
0.0131131
0.0118747
0.0124381
0.0124912
0.01277
0.0131034
0.0119183
0.0128279
0.0117978
0.0123554
0.0129569
0.0129355
0.0124641
0.0127238
0.0127745
0.012153
0.0124402
0.012418
0.0116395
0.0115862
0.0127307
0.0128501
0.0119538
0.0123784
0.0128608
0.0118083
0.0126214
0.011924
0.0127776
0.0130581
0.0124911
0.0117012
0.012872
0.0115652
0.0126958
0.0131198
0.0112167
0.0132699
0.0118635
0.0123222
0.0122538
0.0117032
0.0123151
0.0121592
0.011464
0.0130333
0.0130027
0.0111225
0.0122894
0.0125819
0.0126048
0.0127167
0.0131395
0.012934
0.012196
0.0120733
0.0115073
0.0113583
0.0107251
0.0130817
0.0126634
0.01274
0.012789
0.0116928
0.011617
0.012381
0.0129705
0.0114553
0.012769
0.0124412
0.012518
0.0126946
0.01213
0.0127481
0.0122872
0.0125367
0.0130882
0.0110493
0.0125147
0.0126796
0.0129164
0.0126883
0.0128954
0.0125773
0.0117573
0.0131375
0.013413
0.0124952
0.0124207
0.011821
0.0122951
0.0127263
0.0129677
0.012414
0.0123644
0.0122508
0.0114636
0.0122686
0.0130368
0.0124343
0.0132772
0.0125469
0.0124033
0.0130761
0.0117485
0.0128155
0.0116727
0.0130783
0.0127597
0.0122845
0.0132918
0.0122361
0.0125211
0.0130689
0.0123791
0.0128635
0.0124245
0.0128078
0.0117311
0.0124878
0.012418
0.0119557
0.0128494
0.0121952
0.0121592
0.0130548
0.0118176
0.0130091
0.0124225
0.0129452
0.0121519
0.0126604
0.011781
0.011835
0.0130356
0.0118128
0.012407
0.0128574
0.0115106
0.0124411
0.0128291
0.0122667
0.0117036
0.012163
0.0124442
0.0122948
0.0127155
0.0124956
0.0128966
0.0123252
0.0129314
0.0113449
0.0116679
0.0130732
0.0122362
0.0115043
0.0117181
0.0125382
0.0103577
0.0116112
0.0124799
0.0124375
0.0131628
0.0119334
0.0129032
0.0129557
0.0130445
0.0129237
0.013096
0.0123288
0.012145
0.01286
0.0122865
0.012169
0.0128516
0.012327
0.0113608
0.0116243
0.0123949
0.0108725
0.0128017
0.0128112
0.0121941
0.0128512
0.0129009
0.0126232
0.0133179
0.0121893
0.0116173
0.01226
0.0123753
0.012788
0.0121843
0.0126299
0.0130459
0.0123794
0.0122087
0.0125164
0.0131478
0.0128562
0.0133253
0.0129561
0.0125053
0.0126407
0.0120075
0.0122324
0.0131095
0.0121242
0.0130999
0.0121798
0.0128495
0.0111314
0.0127556
0.0124459
0.0126847
0.0120852
0.0127615
0.0124183
0.0128586
0.0111665
0.0120891
0.0124584
0.0122629
0.0125825
0.0125126
0.0125294
0.0129691
0.0126149
0.0115162
0.0121103
0.0116972
0.0125853
0.0124846
0.0117616
0.0132895
0.0125691
0.0125602
0.0129219
0.0120421
0.0118018
0.0130545
0.0117706
0.0115359
0.0114537
0.011488
0.0113496
0.0122365
0.0130882
0.0129218
0.0124417
0.0125478
0.0127943
0.0122228
0.0127816
0.0115113
0.0129455
0.00915226
0.0127918
0.0116109
0.0115295
0.0128321
0.0116421
0.0126321
0.012767
0.012872
0.0119094
0.0126324
0.0124125
0.0124515
0.0116769
0.0128804
0.0126542
0.012931
0.012611
0.0117509
0.0125601
0.0124404
0.0122558
0.0114537
0.0120155
0.0119417
0.0114903
0.0116372
0.0124702
0.0122108
0.0117107
0.0122129
0.0129174
0.01295
0.0130911
0.00925478
0.0115657
0.0129403
0.01166
0.0128009
0.0114692
0.0130532
0.0128263
0.0128679
0.0117394
0.0124757
0.0130407
0.0130244
0.0126935
0.0129419
0.0124874
0.0125713
0.0124193
0.0116317
0.0126077
0.0122057
0.0122022
0.0122275
0.0115133
0.0124195
0.0129483
0.0119712
0.0120951
0.0116445
0.0127734
0.0127386
0.0113974
0.012365
0.0124725
0.0127307
0.0117278
0.0125195
0.0125979
0.0133515
0.0103776
0.0125845
0.012354
0.0115731
0.0129878
0.0119908
0.0118889
0.0127043
0.0130708
0.0115597
0.0129678
0.012651
0.011671
0.0115374
0.0129328
0.0130293
0.0116296
0.0125378
0.0114863
0.0120688
0.0130709
0.0121093
0.0127018
0.0126917
0.0131172
0.0122459
0.0122535
0.0120637
0.0124308
0.0126192
0.0121693
0.0128687
0.0117402
0.0117232
0.0126115
0.0124127
0.0127921
0.0122154
0.0128302
0.0127783
0.0125723
0.0129484
0.0127506
0.0123117
0.0119283
0.0127798
0.0123369
0.0121125
0.0126342
0.0131145
0.0128408
0.0123147
0.0116249
0.0126426
0.0120243
0.0114513
0.0121321
0.0124252
0.0114234
0.0127205
0.0119011
0.0109778
0.0115713
0.012665
0.010935
0.0123112
0.0128218
0.0126138
0.0115525
0.0126435
0.0133506
0.0117403
0.0113876
0.0118322
0.0128235
0.0124419
0.0123091
0.0128797
0.0116323
0.0128595
0.0124959
0.0130663
0.0130516
0.0093301
0.0125368
0.0127509
0.0128227
0.012232
0.0123392
0.0106477
0.012492
0.0130258
0.0122039
0.0115105
0.0124115
0.012815
0.01266
0.0114223
0.0126198
0.0128556
0.0130152
0.0123976
0.0126023
0.0114378
0.0115467
0.0115119
0.012494
0.0123274
0.0126947
0.0131364
0.0128896
0.0111876
0.0129333
0.012919
0.0127973
0.0122759
0.0129231
0.0119175
0.0118744
0.0122626
0.0124812
0.0120123
0.0113665
0.0127018
0.0121942
0.0128394
0.0119733
0.0109319
0.0121713
0.0128153
0.0125646
0.0118404
0.0121019
0.0128527
0.0129258
0.0120863
0.0123408
0.0127989
0.0130697
0.0127509
0.0130982
0.0127042
0.0126916
0.0114001
0.0125031
0.0117871
0.0128681
0.0125512
0.0121388
0.0116071
0.01311
0.0113855
0.0122191
0.0115784
0.0122645
0.0110742
0.0124486
0.012419
0.0124416
0.0123078
0.0120405
0.012929
0.011709
0.0127534
0.0122227
0.012356
0.0111664
0.0127893
0.0124454
0.011808
0.0120545
0.0124432
0.0123952
0.0125463
0.0104019
0.0125919
0.0123042
0.0123828
0.0120124
0.0121432
0.0121212
0.0105191
0.0128579
0.0124723
0.00759681
0.0118426
0.0128065
0.0128264
0.0127669
0.0119014
0.0105275
0.0128924
0.0117758
0.0128374
0.013101
0.0125334
0.0119328
0.0129445
0.0114937
0.0111219
0.011226
0.0125826
0.012374
0.0121159
0.0131098
0.0128017
0.0125909
0.011934
0.0112757
0.0131808
0.0125654
0.0132216
0.012822
0.0116147
0.0121859
0.0124826
0.0116435
0.0124361
0.0122316
0.0125353
0.0134129
0.0124146
0.0124695
0.0116848
0.0123037
0.0121029
0.0126447
0.0123099
0.0114984
0.011813
0.0125892
0.0127799
0.0116466
0.0126829
0.0120214
0.0127552
0.0117855
0.0117475
0.0104813
0.0129763
0.012897
0.0126875
0.0128334
0.0122241
0.0117134
0.0114016
0.0106609
0.0124455
0.0114569
0.0123082
0.0121642
0.0128453
0.012225
0.0128017
0.011885
0.00791681
0.0117429
0.012844
0.00850492
0.0125132
0.013184
0.0124092
0.0130933
0.0115647
0.0117947
0.0118905
0.0130646
0.0102648
0.0130319
0.0117541
0.0108159
0.0128459
0.011829
0.0129329
0.00832016
0.0112368
0.0125385
0.0128156
0.0130438
0.0127295
0.0129589
0.0127047
0.0126953
0.0129083
0.012766
0.0123989
0.0120685
0.0104351
0.0127989
0.012046
0.0121224
0.012952
0.0129687
0.0125062
0.0114569
0.0130178
0.0127614
0.0123281
0.0116724
0.0114905
0.0127072
0.0129391
0.0129215
0.0128836
0.012443
0.0125557
0.0115766
0.0128142
0.0124517
0.0126836
0.0121421
0.0115042
0.0108203
0.0122447
0.013283
0.0127182
0.0123222
0.0118546
0.0122036
0.0117679
0.0115539
0.0128065
0.0121239
0.00978254
0.0102505
0.0109746
0.0116318
0.0125518
0.0122062
0.0123556
0.0121834
0.0110843
0.012394
0.012857
0.0111518
0.0132777
0.0113325
0.0129358
0.0118275
0.0128681
0.0127147
0.0125749
0.0127269
0.012086
0.0116663
0.011921
0.0120906
0.0127147
0.0124959
0.0118848
0.0118687
0.0125061
0.0114348
0.0124357
0.0119094
0.0127975
0.0119919
0.0122906
0.00984173
0.0129126
0.0130854
0.0125186
0.0127769
0.0122708
0.012327
0.0126713
0.0126701
0.0126411
0.0130117
0.0125961
0.0114169
0.0113167
0.0133154
0.0115677
0.011407
0.0112949
0.0125263
0.0129901
0.0123489
0.0131195
0.0132892
0.012951
0.0127547
0.0121789
0.011532
0.0123227
0.0109303
0.0126415
0.0123945
0.012236
0.0122332
0.0119319
0.012308
0.0130535
0.0111269
0.0119364
0.0123378
0.0112235
0.0128618
0.0107598
0.01107
0.0114106
0.0126414
0.0118089
0.0114979
0.01185
0.0113964
0.01238
0.0103736
0.0104113
0.012347
0.0115387
0.0111625
0.0123478
0.0116025
0.0120479
0.0122798
0.0119325
0.0114563
0.0124007
0.0117492
0.0119684
0.011445
0.0120825
0.0120584
0.010717
0.0129038
0.0122674
0.0123811
0.0118839
0.0116932
0.0114247
0.0123356
0.0123039
0.0129353
0.0125031
0.0126608
0.0121081
0.0124841
0.0128467
0.0127232
0.0101433
0.010398
0.0112619
0.0127882
0.0113519
0.0125104
0.010241
0.011991
0.0125003
0.01197
0.0121686
0.012016
0.0120584
0.0120909
0.0130813
0.0117837
0.0120514
0.0130674
0.0112472
0.0121209
0.0115659
0.0127809
0.0118961
0.011356
0.0123057
0.0115108
0.0105061
0.0107743
0.0115588
0.0118838
0.0106921
0.0130143
0.0118363
0.0112384
0.0120417
0.0128135
0.0120772
0.0109415
0.0130782
0.0123894
0.0114618
0.0120113
0.0123756
0.0114895
0.0122622
0.012365
0.0120679
0.0114021
0.0111976
0.0122305
0.0117636
0.0109119
0.0110883
0.0111039
0.0122549
0.0112112
0.0128131
0.012299
0.0122219
0.0119598
0.0128485
0.0114947
0.0123064
0.011986
0.00826577
0.0128876
0.0109925
0.0122978
0.0127338
0.0128579
0.0105452
0.012578
0.0129864
0.011619
0.0124035
0.0120867
0.0118148
0.0104735
0.0122203
0.011655
0.012881
0.0132204
0.0119064
0.012935
0.0115852
0.0116551
0.0113021
0.0102111
0.0106083
0.012957
0.0107943
0.0127198
0.0116138
0.0109533
0.0120682
0.0130302
0.010653
0.00862634
0.0115565
0.0125755
0.012677
0.0124959
0.00796465
0.0120441
0.0125836
0.0125637
0.0130027
0.0119244
0.0107479
0.0128493
0.0107307
0.0123038
0.0119877
0.011811
0.0117837
0.0124015
0.011542
0.0115018
0.0106685
0.0115892
0.0125861
0.0121524
0.0121257
0.0112003
0.011819
0.0118484
0.0115817
0.0126292
0.0111054
0.0114647
0.0124494
0.0127035
0.0111669
0.0126449
0.0117223
0.0131828
0.0108366
0.0128367
0.0120246
0.0124732
0.0124371
0.0117581
0.0114749
0.0131252
0.0121862
0.0123123
0.0120657
0.0113507
0.0125866
0.0127565
0.011307
0.0114964
0.0117808
0.0109774
0.0118243
0.0122807
0.0106782
0.0130473
0.0106966
0.0118549
0.0121885
0.0107766
0.0117465
0.0120215
0.0114399
0.0120866
0.0114971
0.0122731
0.0108795
0.0125289
0.0109235
0.0118091
0.00981398
0.0121305
0.0110544
0.0113148
0.0124943
0.0112578
0.0116542
0.0130793
0.012432
0.0124341
0.0127775
0.0108232
0.012216
0.0117522
0.012248
0.012329
0.011901
0.0129097
0.0124786
0.0113116
0.0112218
0.0125372
0.0121624
0.012198
0.0105022
0.0127841
0.013106
0.0126467
0.0121329
0.0114577
0.0116296
0.0119701
0.0111486
0.0114814
0.0125001
0.011953
0.011713
0.0119392
0.0118511
0.0120622
0.0109063
0.0116843
0.0113305
0.0105873
0.0129122
0.0120563
0.0114393
0.0127765
0.0120364
0.0119334
0.0123069
0.0106577
0.0112733
0.0110631
0.0110381
0.0130937
0.0123734
0.0103867
0.0128339
0.0108164
0.0120559
0.0123187
0.0119994
0.0126523
0.0118556
0.012161
0.0118809
0.0117665
0.0117188
0.012619
0.0109969
0.0112936
0.0117996
0.0106238
0.0117649
0.0106743
0.0116013
0.0127649
0.012248
0.0103591
0.010427
0.0112917
0.0110589
0.0116322
0.0114104
0.0118976
0.0124382
0.0103441
0.012384
0.0121056
0.0117465
0.0109209
0.0119861
0.0108163
0.00996725
0.0114503
0.0111538
0.0112895
0.0116983
0.011642
0.0118816
0.0111596
0.0125035
0.0112091
0.0119315
0.0114147
0.0120095
0.0117244
0.0109446
0.0122291
0.011877
0.0104705
0.0113639
0.0117896
0.0130297