/*--------------------------------*- C++ -*----------------------------------*\
| =========                 |                                                 |
| \\      /  F ield         | OpenFOAM: The Open Source CFD Toolbox           |
|  \\    /   O peration     | Version:  2212                                  |
|   \\  /    A nd           | Website:  www.openfoam.com                      |
|    \\/     M anipulation  |                                                 |
\*---------------------------------------------------------------------------*/
FoamFile
{
    version     2.0;
    format      ascii;
    arch        "LSB;label=32;scalar=64";
    class       volScalarField;
    location    "0.046";
    object      nut;
}
// * * * * * * * * * * * * * * * * * * * * * * * * * * * * * * * * * * * * * //

dimensions      [0 2 -1 0 0 0 0];

internalField   nonuniform List<scalar> 
31639
(
3.90742e-05
3.76224e-05
3.83902e-05
4.18052e-05
3.75732e-05
3.66085e-05
3.58022e-05
3.93891e-05
3.85726e-05
4.06138e-05
4.02037e-05
4.0448e-05
3.83786e-05
4.11694e-05
3.66611e-05
3.45233e-05
3.93159e-05
3.64351e-05
3.45196e-05
3.79634e-05
2.96489e-05
4.06428e-05
4.11644e-05
3.46919e-05
3.38624e-05
3.81538e-05
3.78655e-05
3.25715e-05
3.59557e-05
4.13217e-05
4.07079e-05
3.54576e-05
4.12596e-05
3.39214e-05
3.14446e-05
4.11418e-05
2.80993e-05
4.22389e-05
4.0941e-05
2.69868e-05
3.13671e-05
3.11429e-05
4.03623e-05
4.03482e-05
4.01247e-05
4.06927e-05
3.66465e-05
3.65267e-05
3.9332e-05
4.14942e-05
4.05438e-05
2.78193e-05
4.14592e-05
2.90124e-05
3.58191e-05
3.85274e-05
2.98636e-05
3.80531e-05
3.74606e-05
2.9969e-05
3.79511e-05
4.00105e-05
3.3895e-05
3.76352e-05
3.87212e-05
4.16979e-05
3.78899e-05
3.80482e-05
3.25668e-05
4.14643e-05
4.08002e-05
3.49093e-05
3.99364e-05
3.81337e-05
4.09086e-05
3.1386e-05
4.04106e-05
3.64384e-05
3.66963e-05
3.96572e-05
3.40786e-05
2.6647e-05
4.10959e-05
3.88556e-05
3.91602e-05
4.04471e-05
4.13357e-05
4.09836e-05
3.23815e-05
4.17867e-05
3.85267e-05
3.8166e-05
3.05363e-05
3.70107e-05
3.30726e-05
3.69471e-05
3.68515e-05
3.80083e-05
3.83767e-05
3.02636e-05
4.12689e-05
4.03337e-05
3.70281e-05
2.949e-05
3.01786e-05
4.08916e-05
2.94624e-05
2.83721e-05
3.31116e-05
2.91653e-05
3.99317e-05
3.05443e-05
3.70137e-05
3.54212e-05
3.81397e-05
2.90209e-05
3.66809e-05
3.68773e-05
3.95892e-05
3.73844e-05
3.98926e-05
4.02529e-05
4.00768e-05
3.85576e-05
3.80707e-05
4.09107e-05
3.7871e-05
3.35255e-05
3.26138e-05
4.00727e-05
4.06961e-05
4.03357e-05
4.07363e-05
3.59614e-05
3.99646e-05
3.80634e-05
3.0155e-05
2.88665e-05
4.01426e-05
3.7994e-05
3.78669e-05
4.04141e-05
4.0626e-05
2.8983e-05
2.76966e-05
4.11977e-05
3.98085e-05
3.08861e-05
3.08153e-05
4.05137e-05
3.32769e-05
3.88231e-05
3.46597e-05
3.94806e-05
3.18348e-05
4.1555e-05
3.76692e-05
3.21986e-05
3.18067e-05
3.45411e-05
4.09261e-05
3.2071e-05
3.33951e-05
2.96727e-05
3.05673e-05
3.70351e-05
3.15249e-05
4.14838e-05
4.03322e-05
2.93751e-05
3.57677e-05
3.5834e-05
3.12232e-05
3.81527e-05
4.1792e-05
3.96759e-05
3.84975e-05
4.15201e-05
3.83117e-05
3.81628e-05
3.68084e-05
3.66919e-05
3.62213e-05
2.76155e-05
3.82823e-05
4.20026e-05
3.72962e-05
4.13028e-05
3.05743e-05
3.02961e-05
4.26276e-05
3.99757e-05
3.94457e-05
3.74346e-05
3.80942e-05
3.61174e-05
3.58261e-05
4.00118e-05
2.97754e-05
3.60494e-05
4.09135e-05
4.17511e-05
3.98153e-05
3.96867e-05
3.75263e-05
3.74643e-05
3.70259e-05
3.62758e-05
4.04727e-05
2.76271e-05
3.75018e-05
3.62691e-05
3.90695e-05
4.03049e-05
3.97467e-05
4.11182e-05
3.14794e-05
3.45404e-05
4.0342e-05
3.99758e-05
3.9379e-05
3.70443e-05
2.97187e-05
3.71398e-05
2.98663e-05
3.65925e-05
4.00095e-05
3.44732e-05
3.10509e-05
3.93185e-05
3.89387e-05
4.18767e-05
3.2117e-05
3.02085e-05
3.92037e-05
3.95241e-05
3.00105e-05
4.12836e-05
3.35374e-05
2.94559e-05
3.68661e-05
3.91485e-05
3.76169e-05
3.47733e-05
3.40942e-05
3.94683e-05
3.67912e-05
3.61027e-05
3.11709e-05
3.73583e-05
3.64202e-05
3.13836e-05
3.47813e-05
4.14597e-05
4.01733e-05
3.54787e-05
3.16322e-05
3.98382e-05
3.97835e-05
3.75567e-05
4.16691e-05
4.08032e-05
3.81914e-05
4.08619e-05
3.66726e-05
3.68017e-05
2.91252e-05
3.4198e-05
4.08812e-05
3.63742e-05
3.91434e-05
3.52762e-05
3.77698e-05
4.15677e-05
4.1737e-05
3.8487e-05
3.0312e-05
3.65406e-05
3.34026e-05
4.0678e-05
3.69212e-05
4.12015e-05
4.15431e-05
3.58163e-05
3.10469e-05
3.33242e-05
3.18283e-05
2.97286e-05
4.06176e-05
3.24649e-05
4.03399e-05
3.71211e-05
3.49557e-05
3.19832e-05
4.20162e-05
3.55997e-05
3.4996e-05
4.06413e-05
3.8047e-05
3.36682e-05
3.71687e-05
3.25888e-05
3.78531e-05
3.69973e-05
3.11923e-05
3.58841e-05
3.63177e-05
2.66526e-05
2.85164e-05
4.05265e-05
4.12329e-05
3.95649e-05
2.96306e-05
3.19946e-05
3.97926e-05
3.26733e-05
3.26241e-05
4.10751e-05
4.18699e-05
3.66696e-05
4.05529e-05
4.14417e-05
3.14278e-05
4.08843e-05
2.89864e-05
2.92356e-05
4.09491e-05
4.04413e-05
4.06936e-05
4.15977e-05
3.97517e-05
3.20523e-05
3.75514e-05
3.71675e-05
4.09419e-05
4.16774e-05
4.20258e-05
3.70762e-05
3.60548e-05
3.92984e-05
3.98702e-05
3.89105e-05
3.65017e-05
3.70413e-05
3.67457e-05
3.73026e-05
3.92401e-05
3.68753e-05
3.13165e-05
3.86392e-05
4.18379e-05
3.59024e-05
4.0715e-05
4.12753e-05
3.74807e-05
3.11999e-05
3.73656e-05
3.72666e-05
2.9532e-05
4.20266e-05
3.22577e-05
3.83685e-05
4.03153e-05
2.86975e-05
3.76783e-05
3.74137e-05
3.03391e-05
3.80743e-05
3.17724e-05
3.73707e-05
4.13004e-05
3.9099e-05
2.84362e-05
3.86146e-05
3.18911e-05
3.87021e-05
4.06349e-05
4.10083e-05
4.06361e-05
3.22195e-05
4.01826e-05
2.97596e-05
3.6727e-05
2.92515e-05
4.12414e-05
4.02057e-05
4.08444e-05
4.04857e-05
3.354e-05
4.13993e-05
3.74444e-05
3.92845e-05
3.71831e-05
3.25417e-05
3.72884e-05
3.95284e-05
3.92043e-05
3.97761e-05
3.81464e-05
3.97653e-05
3.67767e-05
3.12914e-05
3.71441e-05
3.93027e-05
3.9511e-05
2.85665e-05
4.08749e-05
4.04825e-05
3.72845e-05
3.90947e-05
3.95301e-05
3.79084e-05
4.1396e-05
2.99856e-05
3.88286e-05
4.08041e-05
2.87529e-05
3.7751e-05
3.88488e-05
3.18504e-05
3.01765e-05
3.0257e-05
3.53358e-05
2.99824e-05
3.71488e-05
3.7021e-05
3.51852e-05
4.1159e-05
3.08799e-05
4.02686e-05
4.1212e-05
3.76111e-05
4.00593e-05
3.60332e-05
4.0832e-05
3.73488e-05
3.79064e-05
4.16689e-05
3.75176e-05
3.05613e-05
3.7861e-05
4.08647e-05
4.05509e-05
3.94667e-05
4.12649e-05
3.66166e-05
3.8694e-05
4.01023e-05
4.16306e-05
4.08584e-05
3.1469e-05
3.70262e-05
2.75382e-05
3.67192e-05
3.69354e-05
3.08275e-05
2.95734e-05
3.56329e-05
3.97882e-05
4.02954e-05
3.02835e-05
3.95258e-05
3.46987e-05
3.73473e-05
3.97867e-05
2.85352e-05
3.70441e-05
2.91452e-05
3.64409e-05
4.06762e-05
4.16815e-05
3.99265e-05
3.70649e-05
2.90297e-05
3.92938e-05
3.79755e-05
3.96189e-05
2.96481e-05
3.11442e-05
3.72677e-05
3.04588e-05
3.18124e-05
3.83705e-05
2.94035e-05
3.60372e-05
2.97755e-05
3.9263e-05
3.09326e-05
4.15058e-05
4.03757e-05
4.02805e-05
4.08933e-05
3.39593e-05
4.02163e-05
4.0776e-05
3.80684e-05
4.01231e-05
3.7942e-05
4.03315e-05
4.15181e-05
3.50367e-05
4.06398e-05
4.12094e-05
3.74326e-05
3.4048e-05
4.1621e-05
3.78341e-05
2.83123e-05
2.89558e-05
3.77222e-05
4.10527e-05
4.12444e-05
3.72112e-05
4.21446e-05
4.16553e-05
3.97504e-05
3.81144e-05
3.62323e-05
3.65743e-05
3.1777e-05
3.74063e-05
3.87571e-05
4.13409e-05
3.32518e-05
3.28813e-05
3.25198e-05
3.60833e-05
3.71699e-05
2.79702e-05
3.93165e-05
3.46945e-05
3.92229e-05
3.73351e-05
4.05111e-05
3.71597e-05
3.14764e-05
3.9018e-05
4.11658e-05
3.29916e-05
4.02715e-05
4.15721e-05
3.72073e-05
3.71766e-05
3.24903e-05
3.27305e-05
3.7455e-05
3.77967e-05
3.17962e-05
3.12764e-05
3.79404e-05
3.347e-05
3.92807e-05
3.35686e-05
3.65582e-05
4.07666e-05
3.7532e-05
2.98553e-05
3.45709e-05
3.79422e-05
4.11149e-05
3.05373e-05
2.73986e-05
4.04047e-05
2.98617e-05
3.84245e-05
4.18197e-05
3.08187e-05
3.76214e-05
4.05587e-05
3.74203e-05
3.007e-05
4.0629e-05
3.73615e-05
3.05843e-05
4.0314e-05
3.8358e-05
3.68716e-05
3.95584e-05
2.85684e-05
3.44342e-05
3.81501e-05
3.58197e-05
3.51042e-05
3.72177e-05
4.10627e-05
4.0609e-05
3.93247e-05
4.06865e-05
4.09206e-05
3.9987e-05
3.37052e-05
3.99792e-05
4.09581e-05
4.17468e-05
3.2998e-05
3.8003e-05
3.80519e-05
4.28474e-05
3.1851e-05
2.8298e-05
4.13113e-05
3.2611e-05
4.22842e-05
3.63977e-05
3.13927e-05
3.79178e-05
4.06864e-05
3.81303e-05
3.88883e-05
2.93493e-05
3.9886e-05
3.80585e-05
2.8887e-05
4.11364e-05
4.02922e-05
3.16105e-05
3.10904e-05
3.22609e-05
3.55439e-05
3.84227e-05
3.80254e-05
3.73238e-05
3.78433e-05
4.05277e-05
3.76824e-05
3.73129e-05
3.126e-05
4.17513e-05
2.95296e-05
3.75665e-05
3.6525e-05
3.53572e-05
4.18344e-05
3.75808e-05
3.33486e-05
2.96244e-05
3.08394e-05
3.64475e-05
4.08671e-05
3.27911e-05
4.16642e-05
3.72593e-05
4.04259e-05
3.11401e-05
3.64194e-05
3.97066e-05
4.18663e-05
4.10398e-05
4.0077e-05
3.8031e-05
3.74059e-05
4.15442e-05
4.14785e-05
4.08254e-05
3.34765e-05
4.0602e-05
3.13069e-05
4.10992e-05
3.91477e-05
3.72175e-05
3.21666e-05
3.67048e-05
2.73068e-05
4.10712e-05
3.80262e-05
4.1868e-05
3.70354e-05
3.55432e-05
3.09061e-05
4.06486e-05
2.97922e-05
2.79522e-05
3.17279e-05
3.36582e-05
3.11845e-05
3.72366e-05
2.98899e-05
4.01104e-05
3.87359e-05
2.8082e-05
4.14241e-05
3.1638e-05
3.40769e-05
3.64809e-05
3.51531e-05
3.95555e-05
4.12688e-05
4.19761e-05
4.05394e-05
3.70474e-05
3.83109e-05
3.58389e-05
3.60543e-05
2.9733e-05
2.27056e-05
4.13084e-05
3.69783e-05
3.96833e-05
4.05233e-05
3.04289e-05
4.08218e-05
4.09649e-05
3.99288e-05
4.02147e-05
3.97803e-05
3.8575e-05
4.15783e-05
4.1849e-05
3.79029e-05
4.04589e-05
4.0413e-05
3.20924e-05
4.06497e-05
3.50977e-05
3.90484e-05
3.58625e-05
3.73002e-05
3.42411e-05
4.1831e-05
3.68094e-05
3.7891e-05
3.67795e-05
3.18487e-05
4.16828e-05
3.82565e-05
3.53302e-05
3.1232e-05
3.9855e-05
2.93282e-05
4.08143e-05
3.95173e-05
3.56966e-05
4.07555e-05
4.20771e-05
4.08278e-05
3.00116e-05
3.80982e-05
3.67786e-05
3.79124e-05
3.20269e-05
4.03191e-05
4.06081e-05
3.58757e-05
3.76585e-05
3.58749e-05
3.93085e-05
3.53314e-05
3.68668e-05
2.91026e-05
4.01082e-05
3.86819e-05
4.04149e-05
3.40303e-05
3.76952e-05
3.88067e-05
3.75516e-05
3.47027e-05
3.92714e-05
4.01784e-05
3.68105e-05
2.9219e-05
2.90935e-05
3.71356e-05
2.81626e-05
3.13138e-05
3.82755e-05
3.84812e-05
4.05449e-05
2.89417e-05
3.70962e-05
4.11564e-05
3.25468e-05
2.99306e-05
3.8277e-05
3.1849e-05
3.90129e-05
3.28331e-05
4.05681e-05
3.38466e-05
3.50394e-05
4.1557e-05
2.91508e-05
3.62991e-05
3.67711e-05
4.03404e-05
4.11141e-05
4.10989e-05
3.19003e-05
3.96039e-05
4.07978e-05
3.50409e-05
4.15274e-05
4.03001e-05
3.88858e-05
4.0569e-05
3.80578e-05
4.17172e-05
4.1974e-05
4.16553e-05
3.94475e-05
3.53592e-05
3.87035e-05
3.76862e-05
3.00885e-05
3.6688e-05
3.94683e-05
4.07193e-05
4.11796e-05
3.70416e-05
4.14099e-05
4.04919e-05
3.62753e-05
4.02256e-05
4.04871e-05
3.93244e-05
3.9945e-05
3.0837e-05
3.59755e-05
4.00464e-05
2.82122e-05
3.7624e-05
3.70333e-05
3.66823e-05
3.67238e-05
4.16548e-05
3.97571e-05
4.05848e-05
3.67277e-05
3.95549e-05
3.79988e-05
4.07495e-05
3.83269e-05
3.60848e-05
3.14608e-05
4.06488e-05
3.18749e-05
3.63668e-05
3.6927e-05
3.63022e-05
3.84644e-05
4.14964e-05
3.09611e-05
4.10513e-05
3.15269e-05
3.87083e-05
3.58103e-05
3.66719e-05
3.71812e-05
4.12677e-05
3.05102e-05
3.96091e-05
4.06876e-05
4.07091e-05
3.82491e-05
3.76295e-05
2.78595e-05
4.04829e-05
4.02717e-05
3.89793e-05
4.00306e-05
4.06475e-05
3.83498e-05
3.8807e-05
3.80382e-05
3.23004e-05
3.66406e-05
4.13753e-05
2.95208e-05
3.27654e-05
4.25228e-05
4.04138e-05
3.45939e-05
3.61829e-05
3.80052e-05
3.43437e-05
3.71911e-05
3.3087e-05
4.02563e-05
4.10241e-05
2.80652e-05
3.81341e-05
4.11486e-05
4.01613e-05
4.15773e-05
3.68771e-05
4.05834e-05
3.22666e-05
3.20465e-05
4.13383e-05
4.04545e-05
3.77119e-05
3.24961e-05
4.01243e-05
4.04507e-05
3.35929e-05
4.11313e-05
4.07758e-05
4.09551e-05
3.90428e-05
4.03398e-05
3.82048e-05
3.86817e-05
3.71006e-05
3.49724e-05
3.03685e-05
3.83433e-05
3.81704e-05
3.22451e-05
4.10422e-05
2.97204e-05
3.63781e-05
3.69532e-05
3.13342e-05
3.68881e-05
3.531e-05
3.89484e-05
3.76621e-05
4.01255e-05
3.0881e-05
3.09058e-05
3.63235e-05
3.06258e-05
3.5688e-05
4.05976e-05
3.70431e-05
4.08043e-05
3.75216e-05
3.71364e-05
4.10169e-05
3.54346e-05
3.78721e-05
3.72637e-05
3.70686e-05
3.85177e-05
3.22378e-05
3.78563e-05
3.9971e-05
4.13014e-05
4.18043e-05
3.09356e-05
3.03855e-05
3.763e-05
4.07902e-05
3.28941e-05
3.62589e-05
3.90905e-05
3.74004e-05
4.26873e-05
3.67056e-05
3.66043e-05
3.95361e-05
3.08742e-05
4.06681e-05
4.12272e-05
3.17776e-05
3.42457e-05
3.74251e-05
3.53975e-05
4.14139e-05
4.12152e-05
3.89612e-05
3.22284e-05
4.03844e-05
3.07299e-05
3.65152e-05
4.03514e-05
3.49587e-05
4.22219e-05
2.92175e-05
3.76999e-05
3.89425e-05
3.79786e-05
2.93892e-05
3.01488e-05
4.06423e-05
4.1373e-05
3.55888e-05
4.14714e-05
3.88968e-05
3.74734e-05
3.07612e-05
3.32516e-05
3.86501e-05
3.72742e-05
3.74547e-05
4.16591e-05
4.11903e-05
4.20221e-05
4.14624e-05
3.86293e-05
3.84301e-05
3.98594e-05
3.15104e-05
4.03617e-05
3.94994e-05
3.83763e-05
3.84694e-05
4.12038e-05
3.66052e-05
4.14107e-05
3.67533e-05
2.82823e-05
4.18929e-05
3.42641e-05
4.06389e-05
3.52395e-05
4.08062e-05
3.19941e-05
3.95732e-05
4.23595e-05
3.71229e-05
3.77832e-05
2.98051e-05
4.02498e-05
4.06991e-05
3.91448e-05
3.05857e-05
4.28648e-05
3.72305e-05
3.90758e-05
4.07172e-05
4.08102e-05
4.01274e-05
3.72504e-05
3.70831e-05
4.19581e-05
3.19459e-05
3.23747e-05
3.15036e-05
3.34994e-05
3.8541e-05
3.0021e-05
4.14713e-05
4.08344e-05
4.16328e-05
3.66285e-05
3.68118e-05
3.79028e-05
4.04513e-05
3.78951e-05
3.75767e-05
4.09887e-05
4.07451e-05
3.69496e-05
4.08537e-05
3.83771e-05
3.65189e-05
3.9292e-05
3.50279e-05
4.13632e-05
4.1192e-05
4.18752e-05
4.18649e-05
4.06068e-05
3.45999e-05
4.21705e-05
3.80809e-05
3.81745e-05
3.67427e-05
3.88072e-05
4.16588e-05
3.76299e-05
4.02662e-05
3.59235e-05
3.75894e-05
3.92849e-05
3.24563e-05
2.99759e-05
3.70321e-05
3.60056e-05
4.11641e-05
3.49218e-05
2.99836e-05
3.83666e-05
4.04585e-05
3.36349e-05
3.50788e-05
3.80687e-05
4.1556e-05
4.07585e-05
3.66603e-05
3.39119e-05
3.77675e-05
3.99288e-05
3.55731e-05
3.77489e-05
3.78904e-05
2.96175e-05
3.52915e-05
3.54581e-05
3.9303e-05
4.03457e-05
3.75781e-05
4.07554e-05
3.94952e-05
3.75572e-05
3.79728e-05
3.17068e-05
3.34683e-05
2.94452e-05
4.05608e-05
3.86528e-05
4.16168e-05
4.36303e-05
3.97138e-05
3.02128e-05
4.0211e-05
3.57221e-05
3.89159e-05
3.9011e-05
4.0392e-05
3.02299e-05
4.15798e-05
3.13788e-05
3.81758e-05
3.7952e-05
3.72288e-05
4.23034e-05
3.65983e-05
3.95665e-05
3.26505e-05
3.68918e-05
3.72041e-05
4.03484e-05
3.45272e-05
3.31485e-05
3.99474e-05
4.03311e-05
3.91727e-05
3.98313e-05
4.11664e-05
3.17317e-05
3.68498e-05
3.66171e-05
3.35594e-05
4.01567e-05
4.1512e-05
4.16414e-05
4.07165e-05
4.20668e-05
3.17573e-05
3.11889e-05
3.19876e-05
4.14767e-05
3.00948e-05
4.0415e-05
3.89479e-05
3.1451e-05
3.5548e-05
4.02036e-05
4.09836e-05
3.41814e-05
3.52129e-05
3.62183e-05
3.8338e-05
4.14221e-05
3.76423e-05
3.18497e-05
3.80691e-05
4.17693e-05
4.04677e-05
4.18216e-05
4.14565e-05
4.31427e-05
4.16566e-05
4.0386e-05
3.22648e-05
3.00668e-05
3.79918e-05
3.44816e-05
4.11387e-05
3.08176e-05
3.8824e-05
3.70276e-05
4.18895e-05
3.25757e-05
3.93799e-05
4.0016e-05
3.86788e-05
3.61039e-05
3.1308e-05
4.06308e-05
3.47926e-05
4.1656e-05
3.75248e-05
4.23348e-05
4.17682e-05
3.81882e-05
2.99857e-05
3.09418e-05
3.70777e-05
3.86697e-05
3.47964e-05
4.26012e-05
3.14777e-05
4.12348e-05
3.98797e-05
3.53229e-05
3.94196e-05
4.05745e-05
4.11567e-05
4.14817e-05
4.12603e-05
3.84166e-05
3.89305e-05
2.99445e-05
3.50767e-05
4.16725e-05
3.22878e-05
3.94868e-05
3.69832e-05
3.24327e-05
3.75063e-05
3.93046e-05
3.73349e-05
3.96656e-05
4.04411e-05
3.15702e-05
3.70083e-05
3.81331e-05
3.13837e-05
3.50962e-05
3.73885e-05
3.68738e-05
3.96142e-05
3.16564e-05
3.14153e-05
3.74147e-05
3.60088e-05
4.19085e-05
4.24296e-05
4.15188e-05
3.63727e-05
3.67491e-05
3.8514e-05
3.60311e-05
4.04897e-05
3.15682e-05
3.79694e-05
3.70065e-05
4.18336e-05
3.98524e-05
3.68328e-05
3.79647e-05
4.09052e-05
3.12642e-05
3.82679e-05
4.14691e-05
3.59752e-05
2.65997e-05
3.75205e-05
3.1456e-05
3.85761e-05
2.91384e-05
4.11905e-05
4.20937e-05
4.09783e-05
3.8418e-05
3.16692e-05
3.11592e-05
4.05969e-05
4.13392e-05
4.08569e-05
3.83884e-05
3.74629e-05
3.98916e-05
4.14714e-05
4.0643e-05
2.98921e-05
3.65473e-05
3.93521e-05
3.93942e-05
3.57584e-05
3.89324e-05
2.97853e-05
4.14657e-05
4.07439e-05
3.82789e-05
3.85459e-05
3.94759e-05
3.7673e-05
4.18928e-05
3.96453e-05
3.21365e-05
3.72345e-05
4.00372e-05
3.69218e-05
3.78753e-05
3.90951e-05
2.92702e-05
3.25814e-05
4.13258e-05
4.17056e-05
4.06779e-05
4.18068e-05
3.94578e-05
4.09716e-05
3.87697e-05
3.82575e-05
3.93961e-05
4.09307e-05
3.5277e-05
3.70065e-05
3.60071e-05
3.77382e-05
4.05955e-05
2.8943e-05
3.83185e-05
3.00593e-05
4.0762e-05
3.01892e-05
3.03204e-05
3.72581e-05
2.91412e-05
3.74262e-05
3.88601e-05
4.0784e-05
4.09563e-05
3.49651e-05
3.50108e-05
4.23941e-05
3.41721e-05
3.18761e-05
3.69287e-05
3.40519e-05
4.13998e-05
3.93946e-05
3.83984e-05
3.13816e-05
4.02708e-05
4.05329e-05
4.14675e-05
3.06151e-05
3.3664e-05
3.82091e-05
3.97518e-05
4.21822e-05
3.21566e-05
3.07386e-05
3.97417e-05
3.78645e-05
4.17482e-05
3.80972e-05
2.90291e-05
3.91499e-05
4.04361e-05
3.09211e-05
2.92559e-05
4.10187e-05
3.27229e-05
3.25904e-05
4.12476e-05
4.17193e-05
4.01812e-05
4.27412e-05
3.76468e-05
3.5966e-05
4.11879e-05
3.42453e-05
4.13669e-05
3.50888e-05
3.88895e-05
4.07146e-05
3.71899e-05
3.0904e-05
4.05559e-05
4.09117e-05
3.60079e-05
3.74642e-05
3.78857e-05
3.37367e-05
3.58635e-05
3.83747e-05
3.83103e-05
4.10306e-05
3.56174e-05
3.97461e-05
3.05192e-05
4.00595e-05
4.18981e-05
2.96189e-05
4.03146e-05
3.83424e-05
2.7698e-05
3.08213e-05
3.82476e-05
3.77432e-05
4.03897e-05
3.57763e-05
3.2058e-05
4.05622e-05
4.15263e-05
4.1077e-05
3.91178e-05
4.16028e-05
3.08328e-05
4.12265e-05
3.77107e-05
3.13135e-05
3.12307e-05
2.67571e-05
3.19273e-05
3.95015e-05
3.60944e-05
3.89107e-05
3.802e-05
3.35263e-05
3.46404e-05
2.92651e-05
2.90648e-05
4.23696e-05
4.19323e-05
3.2119e-05
4.13344e-05
4.06195e-05
3.1815e-05
3.72933e-05
3.79286e-05
3.35012e-05
3.56852e-05
4.16375e-05
3.29804e-05
2.88148e-05
4.15465e-05
4.17146e-05
3.46088e-05
4.13036e-05
3.55404e-05
3.32222e-05
3.17439e-05
3.72067e-05
3.0628e-05
3.1317e-05
3.85338e-05
3.94935e-05
3.69562e-05
4.05634e-05
4.12722e-05
3.73471e-05
4.09649e-05
2.31208e-05
3.718e-05
3.1048e-05
3.79869e-05
4.08116e-05
3.73868e-05
3.46657e-05
3.72733e-05
3.22263e-05
3.9085e-05
3.74161e-05
3.49724e-05
3.08118e-05
2.87735e-05
2.8247e-05
3.57989e-05
3.11921e-05
3.70498e-05
3.1597e-05
3.60714e-05
4.11597e-05
3.86516e-05
3.61431e-05
3.81972e-05
3.93915e-05
3.73668e-05
4.02712e-05
2.9712e-05
3.82124e-05
4.14747e-05
4.16402e-05
3.67835e-05
4.26839e-05
3.33395e-05
3.95345e-05
3.70771e-05
3.03513e-05
4.01915e-05
4.16253e-05
3.95103e-05
3.98245e-05
4.05409e-05
3.85358e-05
2.8437e-05
2.94447e-05
3.67942e-05
4.19821e-05
3.80256e-05
4.08794e-05
3.50278e-05
3.62063e-05
3.27579e-05
3.02676e-05
3.03732e-05
2.98881e-05
3.96626e-05
3.86016e-05
4.13044e-05
3.63543e-05
3.55753e-05
4.23644e-05
3.03689e-05
3.79776e-05
4.1521e-05
4.08805e-05
3.53196e-05
3.66318e-05
4.01103e-05
4.1384e-05
4.1033e-05
3.15698e-05
3.82301e-05
4.03232e-05
3.89157e-05
3.79885e-05
4.19807e-05
3.99996e-05
4.1384e-05
3.88155e-05
3.42198e-05
3.84338e-05
4.09011e-05
3.96532e-05
3.75278e-05
3.07904e-05
4.11337e-05
4.07854e-05
4.03367e-05
4.05609e-05
2.9929e-05
2.74489e-05
3.68815e-05
3.98206e-05
3.61397e-05
3.89683e-05
4.02769e-05
4.05923e-05
4.07533e-05
3.54734e-05
3.98482e-05
3.76923e-05
4.05516e-05
3.10717e-05
3.09676e-05
3.63377e-05
4.1261e-05
3.19619e-05
4.05505e-05
3.12513e-05
3.66732e-05
3.77744e-05
4.15252e-05
3.6724e-05
4.10484e-05
4.09745e-05
4.01713e-05
3.84774e-05
3.9935e-05
3.79154e-05
3.53246e-05
2.87477e-05
4.20391e-05
2.65955e-05
2.97174e-05
3.25022e-05
2.94025e-05
2.95568e-05
3.65395e-05
3.83716e-05
3.15039e-05
3.51082e-05
2.73257e-05
3.19233e-05
3.61043e-05
4.11346e-05
2.9841e-05
3.0402e-05
4.03111e-05
2.99282e-05
3.66867e-05
3.9513e-05
3.88641e-05
3.73809e-05
3.13527e-05
2.95838e-05
3.54957e-05
4.19002e-05
3.32258e-05
3.05817e-05
3.84992e-05
3.49661e-05
3.8424e-05
3.75437e-05
3.14313e-05
4.0957e-05
2.89386e-05
3.01732e-05
3.62045e-05
4.07246e-05
3.50921e-05
3.63938e-05
3.66829e-05
3.81911e-05
2.84314e-05
3.24341e-05
3.65123e-05
4.13983e-05
3.97874e-05
3.00112e-05
2.77024e-05
3.63495e-05
4.21814e-05
3.72991e-05
3.75939e-05
3.48209e-05
3.69087e-05
3.76331e-05
3.09337e-05
4.13976e-05
3.47562e-05
3.07004e-05
2.768e-05
3.99852e-05
3.77909e-05
4.14046e-05
3.83565e-05
4.05568e-05
3.08815e-05
3.62424e-05
2.87625e-05
2.71693e-05
4.00833e-05
3.17121e-05
3.64313e-05
3.79258e-05
3.88349e-05
3.06885e-05
4.14878e-05
4.0425e-05
4.16972e-05
3.88389e-05
2.56751e-05
3.75898e-05
2.90657e-05
4.13726e-05
3.1187e-05
4.11797e-05
2.75436e-05
3.89072e-05
3.91442e-05
3.46705e-05
3.54234e-05
2.83755e-05
3.40991e-05
3.76667e-05
4.01573e-05
3.93028e-05
4.13521e-05
4.06425e-05
3.11025e-05
4.14986e-05
3.62266e-05
3.8522e-05
3.9115e-05
4.07579e-05
4.02364e-05
3.76905e-05
4.15289e-05
3.65548e-05
3.48319e-05
3.4663e-05
3.8588e-05
4.06013e-05
3.43346e-05
3.22145e-05
4.08791e-05
3.88559e-05
3.72461e-05
4.22917e-05
3.88693e-05
3.8469e-05
3.93103e-05
4.07322e-05
4.0632e-05
3.75417e-05
3.64053e-05
4.06047e-05
3.96483e-05
3.31453e-05
3.75779e-05
3.37837e-05
4.14369e-05
3.85896e-05
4.10871e-05
3.11523e-05
3.11507e-05
3.80246e-05
3.99856e-05
3.99684e-05
4.14203e-05
4.06487e-05
3.78166e-05
3.95963e-05
3.17076e-05
3.75391e-05
3.75409e-05
4.11216e-05
4.08245e-05
4.12455e-05
3.7154e-05
4.16333e-05
3.27432e-05
4.12859e-05
3.40141e-05
3.69018e-05
3.57773e-05
3.80592e-05
3.69515e-05
3.99042e-05
3.02396e-05
4.07954e-05
4.02679e-05
3.66851e-05
3.13184e-05
4.14351e-05
3.95778e-05
4.06637e-05
3.72279e-05
3.78638e-05
4.00499e-05
3.05235e-05
4.13092e-05
3.67005e-05
3.81242e-05
3.35832e-05
3.4309e-05
3.3801e-05
3.00861e-05
3.52664e-05
4.22022e-05
3.81689e-05
2.90168e-05
3.8134e-05
2.99963e-05
3.83935e-05
3.87177e-05
2.87649e-05
2.99753e-05
3.44022e-05
3.80649e-05
4.00602e-05
3.53837e-05
4.00575e-05
3.68706e-05
3.42505e-05
3.48023e-05
4.13973e-05
4.10072e-05
4.0918e-05
3.99711e-05
3.90477e-05
3.075e-05
3.1768e-05
4.16865e-05
3.62168e-05
3.80403e-05
4.00098e-05
4.21842e-05
3.81538e-05
3.92829e-05
2.89124e-05
4.02376e-05
4.08548e-05
3.52355e-05
4.12913e-05
4.08739e-05
3.87477e-05
3.55147e-05
3.95505e-05
3.56179e-05
2.8552e-05
3.81563e-05
3.18187e-05
3.00944e-05
3.80907e-05
3.77559e-05
3.9923e-05
3.99221e-05
3.84888e-05
4.13964e-05
2.73408e-05
3.52273e-05
4.14283e-05
4.12741e-05
2.91095e-05
3.80664e-05
3.25109e-05
3.55216e-05
4.14145e-05
3.45038e-05
3.91136e-05
4.2062e-05
3.95881e-05
2.87339e-05
4.0122e-05
3.09205e-05
4.10446e-05
3.98348e-05
3.89622e-05
4.11906e-05
3.84862e-05
4.09209e-05
3.0839e-05
4.07443e-05
4.11623e-05
3.22248e-05
3.90467e-05
3.76255e-05
3.57562e-05
4.03017e-05
3.62603e-05
4.06519e-05
4.15205e-05
4.18602e-05
3.74528e-05
4.08954e-05
3.77845e-05
3.98239e-05
3.31358e-05
3.51798e-05
3.02375e-05
2.96232e-05
3.86067e-05
3.93929e-05
3.75866e-05
4.14885e-05
3.65248e-05
4.15271e-05
2.92897e-05
4.1736e-05
4.18286e-05
3.94229e-05
4.16907e-05
3.27466e-05
2.88205e-05
3.71437e-05
3.01666e-05
4.09689e-05
3.78526e-05
2.88822e-05
3.64169e-05
4.19846e-05
3.89259e-05
3.02329e-05
3.35513e-05
2.86698e-05
4.23253e-05
2.99847e-05
4.03986e-05
3.48881e-05
3.10844e-05
4.09967e-05
4.11674e-05
4.11335e-05
4.00014e-05
3.06412e-05
3.88513e-05
4.13204e-05
3.21884e-05
4.12607e-05
3.85648e-05
4.15175e-05
2.87672e-05
4.00293e-05
3.52594e-05
3.90036e-05
3.51854e-05
3.69448e-05
3.57385e-05
3.48646e-05
3.59564e-05
3.63842e-05
3.95582e-05
3.71675e-05
4.18019e-05
3.22168e-05
3.72677e-05
3.77718e-05
4.00027e-05
4.13031e-05
3.07206e-05
4.04752e-05
3.17349e-05
3.71483e-05
4.11375e-05
4.10249e-05
3.62485e-05
3.89055e-05
3.94376e-05
3.53646e-05
3.77075e-05
3.65602e-05
3.02423e-05
3.02378e-05
3.896e-05
4.03163e-05
3.73148e-05
3.5697e-05
4.03804e-05
3.13432e-05
3.8586e-05
3.14534e-05
3.95797e-05
4.15516e-05
3.78866e-05
3.04983e-05
4.03993e-05
2.99385e-05
3.88532e-05
4.11008e-05
2.89951e-05
4.21679e-05
3.20618e-05
3.53332e-05
3.61351e-05
3.05737e-05
3.51545e-05
3.58164e-05
2.84137e-05
4.059e-05
4.10797e-05
2.68406e-05
3.50426e-05
3.95697e-05
3.7704e-05
3.87526e-05
4.20303e-05
4.05145e-05
3.67547e-05
3.38333e-05
2.92794e-05
2.82178e-05
3.33634e-05
4.17896e-05
4.04165e-05
3.95751e-05
3.97156e-05
3.08408e-05
3.04914e-05
3.71366e-05
4.03796e-05
2.88351e-05
3.93969e-05
3.77291e-05
3.64327e-05
3.9641e-05
3.55208e-05
4.0079e-05
3.41958e-05
3.71311e-05
4.14634e-05
2.62269e-05
3.86242e-05
4.04622e-05
4.0682e-05
3.93778e-05
4.05173e-05
3.80714e-05
3.05818e-05
4.18698e-05
4.29094e-05
3.79276e-05
3.77598e-05
3.52749e-05
3.7344e-05
3.93476e-05
4.01411e-05
3.78583e-05
3.68847e-05
3.66543e-05
2.94188e-05
3.56118e-05
4.16036e-05
3.92115e-05
4.2804e-05
3.78848e-05
3.65959e-05
4.15542e-05
3.08539e-05
4.00023e-05
3.05728e-05
4.12356e-05
3.93241e-05
3.56533e-05
4.24758e-05
3.51769e-05
3.71569e-05
4.15447e-05
3.62193e-05
4.15238e-05
3.98719e-05
3.98784e-05
3.03514e-05
3.76433e-05
3.73326e-05
3.29387e-05
4.04558e-05
3.62784e-05
3.62869e-05
4.14971e-05
3.0946e-05
4.12825e-05
3.76735e-05
4.09498e-05
3.50995e-05
3.84821e-05
3.04947e-05
3.15966e-05
4.20644e-05
3.11808e-05
3.74872e-05
4.00929e-05
3.00383e-05
3.67457e-05
4.04552e-05
3.49341e-05
3.1559e-05
3.40032e-05
3.62516e-05
3.59634e-05
4.01038e-05
3.64333e-05
4.06692e-05
3.83206e-05
4.06087e-05
2.84398e-05
3.31098e-05
4.14949e-05
3.69237e-05
2.97285e-05
3.16475e-05
3.74792e-05
3.14329e-05
3.049e-05
3.77287e-05
3.70692e-05
4.20895e-05
3.59515e-05
4.0602e-05
4.05806e-05
4.02877e-05
4.06885e-05
4.07417e-05
3.58544e-05
3.49607e-05
4.05349e-05
3.68689e-05
3.58914e-05
4.10087e-05
3.74758e-05
2.93887e-05
3.00223e-05
3.6632e-05
3.24887e-05
3.92544e-05
4.02396e-05
3.62398e-05
4.07209e-05
4.04155e-05
3.99377e-05
4.26697e-05
3.66709e-05
3.06111e-05
3.59445e-05
3.60787e-05
4.02636e-05
3.62572e-05
3.94249e-05
4.11355e-05
3.65055e-05
3.51826e-05
3.80643e-05
4.14189e-05
3.96521e-05
4.30862e-05
4.0026e-05
3.62678e-05
3.7092e-05
3.24882e-05
3.5209e-05
4.14549e-05
3.30277e-05
4.17841e-05
3.57422e-05
4.0483e-05
3.01459e-05
3.9578e-05
3.77501e-05
4.02594e-05
3.71028e-05
3.91192e-05
3.73341e-05
4.06591e-05
2.9385e-05
3.22004e-05
3.77727e-05
3.53726e-05
3.83773e-05
3.77067e-05
3.79316e-05
4.11039e-05
3.81439e-05
2.91373e-05
3.40273e-05
3.04269e-05
3.82585e-05
3.73669e-05
3.11658e-05
4.27835e-05
3.77656e-05
3.69181e-05
4.0146e-05
3.33393e-05
3.14755e-05
4.17306e-05
3.14677e-05
2.99217e-05
3.68275e-05
3.58923e-05
3.15828e-05
3.42503e-05
4.1461e-05
4.06586e-05
3.56316e-05
3.82434e-05
4.03535e-05
3.74848e-05
3.98971e-05
2.93713e-05
4.09625e-05
2.35065e-05
4.03244e-05
3.08623e-05
3.02541e-05
4.05426e-05
2.99871e-05
3.71238e-05
3.8599e-05
4.04474e-05
3.50889e-05
3.93411e-05
3.62584e-05
3.7296e-05
3.5639e-05
3.96046e-05
3.84382e-05
4.07796e-05
3.78493e-05
3.12178e-05
3.96142e-05
3.73823e-05
3.69189e-05
3.73736e-05
3.25621e-05
3.46324e-05
2.93202e-05
3.03299e-05
3.7673e-05
3.63259e-05
3.20356e-05
3.52151e-05
4.03269e-05
4.14307e-05
4.11297e-05
2.29274e-05
2.92412e-05
4.10951e-05
3.01128e-05
3.96137e-05
2.95555e-05
4.10009e-05
4.03087e-05
4.04383e-05
3.10016e-05
3.66116e-05
4.1407e-05
4.12758e-05
3.8505e-05
4.13045e-05
3.73555e-05
3.82286e-05
3.72653e-05
3.0501e-05
3.82157e-05
3.44743e-05
3.75411e-05
3.72099e-05
3.25617e-05
3.68991e-05
4.12202e-05
3.39194e-05
3.43284e-05
3.03099e-05
4.02015e-05
4.00273e-05
2.83375e-05
3.72137e-05
3.75609e-05
3.89114e-05
3.0855e-05
3.78108e-05
3.73368e-05
4.23406e-05
2.96514e-05
3.70081e-05
3.69617e-05
2.86979e-05
4.07806e-05
3.15397e-05
3.17812e-05
3.85322e-05
4.14976e-05
2.9283e-05
4.06106e-05
3.88678e-05
3.77932e-05
2.90847e-05
4.13673e-05
4.15228e-05
2.89727e-05
3.77863e-05
2.82787e-05
3.17096e-05
4.13599e-05
3.56535e-05
3.83449e-05
4.02678e-05
4.17463e-05
3.63585e-05
3.51312e-05
3.68113e-05
3.6507e-05
3.81125e-05
3.51536e-05
4.11269e-05
3.11385e-05
3.54959e-05
3.74057e-05
3.6103e-05
3.98706e-05
3.69033e-05
3.93503e-05
3.95379e-05
3.78544e-05
4.14061e-05
3.95201e-05
3.60587e-05
3.3983e-05
3.98989e-05
3.65445e-05
3.55626e-05
3.92221e-05
4.16304e-05
3.97192e-05
3.97893e-05
3.50577e-05
3.95586e-05
3.42909e-05
3.04323e-05
3.72653e-05
3.86068e-05
3.02166e-05
3.89374e-05
3.68098e-05
2.70708e-05
3.0366e-05
3.96966e-05
2.9961e-05
3.63481e-05
3.99266e-05
3.86633e-05
3.03428e-05
3.85352e-05
4.23586e-05
3.13942e-05
3.05018e-05
3.11432e-05
4.09207e-05
3.74725e-05
3.67232e-05
4.06793e-05
3.01853e-05
3.9499e-05
3.78425e-05
4.15376e-05
4.16504e-05
2.49668e-05
3.78766e-05
3.91793e-05
3.97854e-05
3.77787e-05
3.70328e-05
3.18108e-05
3.84509e-05
4.17143e-05
3.43572e-05
2.88826e-05
3.57057e-05
4.07487e-05
3.92424e-05
2.98129e-05
3.65425e-05
4.02293e-05
4.10705e-05
3.7096e-05
3.67009e-05
2.83031e-05
3.07893e-05
3.06102e-05
3.76893e-05
3.6398e-05
3.83827e-05
4.18733e-05
4.08359e-05
3.35232e-05
4.06467e-05
4.09626e-05
3.93121e-05
3.52051e-05
4.06378e-05
3.62629e-05
3.17648e-05
3.51212e-05
3.75279e-05
3.8569e-05
3.43253e-05
3.90038e-05
3.54817e-05
4.06993e-05
3.14989e-05
2.87949e-05
3.62154e-05
4.1304e-05
3.97827e-05
3.51187e-05
3.58931e-05
4.00642e-05
4.09051e-05
3.54616e-05
3.60648e-05
4.06694e-05
4.17913e-05
3.96505e-05
4.1576e-05
3.99536e-05
3.98396e-05
2.92961e-05
3.62143e-05
3.05722e-05
3.93253e-05
4.08614e-05
3.49751e-05
3.03632e-05
4.1551e-05
3.01153e-05
3.43194e-05
3.18012e-05
3.69978e-05
2.96236e-05
3.89074e-05
3.73442e-05
3.70295e-05
3.75016e-05
3.25835e-05
4.11644e-05
3.11791e-05
3.92464e-05
3.74226e-05
3.67013e-05
3.01371e-05
4.02217e-05
3.8975e-05
3.19615e-05
3.32055e-05
3.63387e-05
3.58159e-05
3.75025e-05
3.00444e-05
3.84757e-05
3.57143e-05
3.78878e-05
3.43708e-05
3.43314e-05
3.41498e-05
3.05139e-05
4.02741e-05
3.74523e-05
1.35361e-05
3.14795e-05
3.80178e-05
4.09809e-05
4.00575e-05
3.21548e-05
3.16687e-05
4.10046e-05
3.0745e-05
4.02348e-05
4.14593e-05
3.81794e-05
3.15346e-05
4.09066e-05
2.99706e-05
2.84304e-05
2.83871e-05
3.92026e-05
3.69069e-05
3.49121e-05
4.16144e-05
3.95523e-05
3.82036e-05
3.18403e-05
2.74428e-05
4.19665e-05
3.78178e-05
4.21045e-05
4.08007e-05
3.04296e-05
3.67605e-05
3.64313e-05
3.60345e-05
3.72458e-05
3.48175e-05
3.61325e-05
4.33298e-05
3.80227e-05
3.55648e-05
3.09513e-05
3.85101e-05
3.68451e-05
3.93407e-05
3.56311e-05
3.01388e-05
3.12433e-05
3.87941e-05
3.92242e-05