/*--------------------------------*- C++ -*----------------------------------*\
| =========                 |                                                 |
| \\      /  F ield         | OpenFOAM: The Open Source CFD Toolbox           |
|  \\    /   O peration     | Version:  2212                                  |
|   \\  /    A nd           | Website:  www.openfoam.com                      |
|    \\/     M anipulation  |                                                 |
\*---------------------------------------------------------------------------*/
FoamFile
{
    version     2.0;
    format      ascii;
    arch        "LSB;label=32;scalar=64";
    class       volScalarField;
    location    "0.046";
    object      p;
}
// * * * * * * * * * * * * * * * * * * * * * * * * * * * * * * * * * * * * * //

dimensions      [0 2 -2 0 0 0 0];

internalField   nonuniform List<scalar> 
31639
(
0.0121126
0.00842903
0.0138533
0.00616807
0.0085109
0.0118686
0.0132985
0.0126641
0.00900011
0.00768283
0.0131894
0.00858247
0.00891738
0.0115968
0.0100936
0.0141693
0.0164356
0.0168043
0.00275461
0.0128908
0.00937684
0.00724691
0.0098652
0.00610269
0.0105879
0.0125365
0.0121891
0.0385134
0.0127385
0.0127098
0.00682243
0.018146
0.00905491
0.00490274
0.022059
0.0126483
0.00727647
0.0132163
0.0131993
0.0107982
0.0086278
0.0123601
0.00966226
0.0134123
0.0138238
0.00576756
0.00865806
0.00683716
0.014836
0.00622317
0.00573975
0.00460359
0.0224804
0.0137121
0.00448927
0.0167815
0.00736974
0.0122707
0.00843841
0.00588313
0.00645661
0.0123743
0.0102655
0.0126368
0.0222876
0.00363665
0.00223223
0.00706817
0.00875275
0.00547563
0.00778388
0.0165522
0.007595
0.00327877
0.0225833
0.0179728
0.00779995
0.0072207
0.00836405
0.00793901
0.0120693
0.0115852
0.0114137
0.0063533
0.011284
0.0104617
0.00967952
0.00683506
0.00222564
0.00911383
0.00517449
0.0164796
0.00604521
0.00804465
0.00385783
0.012194
0.00656795
0.00464548
0.00882089
0.011703
0.0208384
0.0208138
0.0106243
0.00807762
0.00448202
0.00559707
0.011877
0.00592997
0.00687775
0.0107066
0.0132565
0.0115507
0.0123559
0.00727201
0.00323672
0.0129035
0.0221529
0.013681
0.0209504
0.00649244
0.0183183
0.00561639
0.0029204
0.0061984
0.0118081
0.0116054
0.0083469
0.00629172
0.00767717
0.009293
0.0219197
0.000969134
0.0140233
0.00329599
0.00395427
0.00703785
0.00736182
0.00805436
0.00578099
0.00644974
0.00638999
0.00950395
0.0103631
0.00593205
0.00865706
0.0112822
0.0210843
0.00735015
0.010897
0.0225148
0.00658827
0.015158
0.00471981
0.00424836
0.00551177
0.00420849
0.0031036
0.0077368
0.0147394
0.0069897
0.00384621
0.0166047
0.00744536
0.0123336
0.0176065
0.0176796
0.0137616
0.0154081
0.00484719
0.00337621
0.0158599
0.0115858
0.0157058
0.00901121
0.0111998
0.00752824
0.0101456
0.0182509
0.00706248
0.0106589
0.00882693
0.0145611
0.0124008
0.0129048
0.0129519
0.012671
0.0151718
0.0106658
0.0116057
0.0143908
0.0146555
0.00763805
0.0148897
0.00452875
0.00516567
0.00536649
0.00517407
0.00821047
0.00528232
0.0130888
0.0109799
0.0166446
0.0145888
0.01551
0.00751666
0.00625176
0.00261532
0.00442536
0.0185839
0.00506559
0.00506178
0.010788
0.0209505
0.0111959
0.0134828
0.0112943
0.0113152
0.0112835
0.0158232
0.00845743
0.00874983
0.010784
0.011408
0.0158327
0.0137664
0.00786075
0.0141984
0.013905
0.00984339
0.0180316
0.00475049
0.0130816
0.0166135
0.0143912
0.0147698
0.00250495
0.00231046
0.0150421
0.0123929
0.00447626
0.00635165
0.0135526
0.0157444
0.0148308
0.00654967
0.016995
0.00500813
0.0175543
0.0143573
0.00253589
0.000730836
0.0057729
0.014714
0.0168769
0.00819653
0.00876605
0.0122772
0.00377237
0.01213
0.0140159
0.00586432
0.00471191
0.00821007
0.0115996
0.00828748
0.0112467
0.00185169
0.0213432
0.0133889
0.011954
0.0273433
0.0055867
0.0121953
0.0151173
0.00726844
0.0142338
0.00518723
0.0158799
0.00705302
0.00577786
0.0177874
0.0182813
0.0181561
0.0241319
0.0130202
0.0130693
0.0158988
0.0151619
0.00288026
0.0146677
0.0163403
0.00131144
0.0047028
0.00471548
0.0137913
0.00407094
0.0165122
0.00219749
0.00646673
0.00748359
0.00695792
0.0158466
0.00502196
0.00450146
0.0100627
0.004042
0.0114758
0.00266118
0.00969977
0.0159157
0.00671912
0.0266478
0.0213102
0.00944935
0.00867568
0.0122177
0.00234125
0.0183691
0.01427
0.0140389
0.0134625
0.00562543
0.0205802
0.00415215
0.0110816
0.0150216
0.0134944
0.015181
0.00488912
0.00565389
0.00586159
0.00616153
0.0161577
0.00461439
0.0166501
0.0221492
0.0226943
0.00702356
0.0153847
0.0173979
0.00393301
0.00192931
0.0169257
0.00354097
0.00506055
0.0156985
0.00426205
0.0138681
0.0137096
0.0206486
0.00777567
0.0158539
0.00773545
0.0146477
0.00447145
0.00586211
0.00501004
0.0101044
0.0102507
0.015254
0.0166765
0.0102244
0.026556
0.00287093
0.00709199
0.00639515
0.00342299
0.010195
0.01092
0.0151954
0.00989646
0.0185759
0.0116114
0.00546314
0.00367608
0.0061333
0.0213671
0.0178655
0.0148991
0.0187122
0.0141312
0.00460789
0.00691284
0.00458938
0.0042432
0.00402475
0.00495003
0.00853054
0.000409525
0.0170472
0.002505
0.0188826
0.00501379
0.0157854
0.00435751
0.0161759
0.0171776
0.0129232
0.00618153
0.0250488
0.0168147
0.0132181
0.0126329
0.00420043
0.0148904
0.00228225
0.00655745
0.00662656
0.00688484
0.0129554
0.00567071
0.00667156
0.0148218
0.0274887
0.0135766
0.0149225
0.0109222
0.0116645
0.0104439
0.00868685
0.00838347
0.0206071
0.00996809
0.000885837
0.0148314
0.0270964
0.00960163
0.0201315
0.0116165
0.0138811
0.00605847
0.00502476
0.0158288
0.00572173
0.012603
0.0126187
0.0153784
0.0037532
0.00462914
0.0164575
0.0069662
0.00244773
0.00295207
0.0113605
0.00393406
0.00706797
0.00744819
0.0172876
0.0168988
0.0182635
0.0171944
0.0149768
0.00728678
0.0153651
0.00691131
0.0163509
0.0183672
0.00567995
0.0150235
0.00630078
0.0123477
0.0176466
0.0116831
0.0031639
0.0144722
0.0403624
0.00312543
0.0094073
0.00638876
0.0140654
0.00183172
0.00485033
0.00580725
0.00483568
0.0153357
0.00124132
0.00970308
0.0198142
0.00874174
0.0101367
0.00586844
0.0216141
0.00377169
0.00799704
0.0206216
0.0265217
0.00960546
0.0137655
0.0111985
0.0074751
0.00577402
0.00440119
0.0181456
0.00207715
0.0119121
0.0114639
0.0108607
0.0032657
0.00494677
0.0173991
0.0196429
0.00248026
0.00286329
0.00322228
0.00188541
0.0231658
0.0066348
0.0027459
0.0184953
0.0206269
0.0184037
0.00386691
0.0166226
0.0154258
0.0175395
0.00198837
0.0206115
0.0206534
-0.000356011
0.0178915
0.0172907
0.0179931
0.0114308
0.0191874
0.000824708
0.00312442
0.0175247
0.0025821
0.00314727
0.00534244
0.0130016
0.00878093
0.0161374
0.00107714
0.00571751
0.00922388
0.0193565
0.00124994
0.0153673
0.00236372
0.0268417
0.0271196
0.00638053
0.0387905
0.00656832
0.00653174
0.0106401
0.0109555
0.00758822
0.0103935
0.0278923
0.00762209
0.0150448
0.000622504
0.00681531
0.0105785
0.00596706
0.0172301
0.0013334
0.00410902
0.0103577
0.00370114
0.00936224
0.00954993
0.00515682
0.021749
0.00376707
0.00264551
0.000388977
0.0120881
0.0198062
0.00297526
0.000610752
0.00365065
0.00403427
0.00316279
0.0183841
-4.5853e-05
0.00122587
0.00083705
0.0165509
0.00206318
0.0173133
0.0176902
0.0184507
0.00539415
5.08182e-05
0.000231978
0.00280863
0.000805672
0.011334
0.00097983
0.0113252
0.0179564
0.00151428
0.00658034
0.00883235
0.0216395
0.0199711
0.0156605
0.0074607
0.00359669
0.0207714
0.0178619
0.00167064
0.00183787
0.00769313
0.0130426
0.00535705
0.00113277
9.03953e-05
0.000902108
0.0172334
0.0144409
0.00660913
0.0397773
0.014178
0.0110601
0.00763055
0.0119486
0.0153291
0.0151929
0.0106275
0.00678025
0.0084911
0.00879034
0.0144105
0.00332544
0.0103442
0.00122259
0.0112669
0.0263099
0.0183108
0.0168949
0.012557
0.00989499
0.0238955
0.0111262
0.0133451
0.00591377
0.0212241
0.0200044
0.00290959
0.0109739
0.0124538
0.000221708
0.0243339
0.00670161
0.00113599
0.00327174
0.00185475
0.0216133
0.0197288
0.0201541
0.0030413
0.000109212
0.0170694
0.0114759
0.0180018
0.0185513
0.0186129
0.00121535
1.75624e-05
0.0176234
0.0153846
0.0159066
0.0186186
0.00104041
0.00663755
0.02732
0.00385113
0.00218892
0.0191159
0.0108349
0.00455666
0.0174163
0.0171485
0.0139742
0.00805908
0.00537012
0.0126928
0.00731228
0.000366342
0.000693807
0.00141836
0.0053845
0.00203446
0.0216387
0.00767264
0.000582528
0.000672165
0.016567
0.0058387
0.000709355
0.0401041
0.00543247
0.00646887
0.0087149
0.00984405
0.00833546
0.0106594
0.0100676
0.00676245
0.00777515
0.0112139
0.00715312
0.00667752
0.00757368
0.00999565
0.0190669
0.0107975
0.0102052
0.0167355
0.0216585
0.0182271
0.00509621
0.0100453
0.00288741
0.0113619
0.0224666
0.000862133
0.00208196
0.00189019
0.00578607
0.006707
0.0166183
0.0159196
0.00471998
0.00193745
0.01297
0.0215434
0.000527484
0.0176919
0.00704583
0.0163607
0.0149954
0.0158456
0.0203647
0.0189432
0.0244956
0.0173671
0.0145176
0.0180432
0.0163014
0.0168569
0.00606294
0.0212473
0.00595891
0.00156283
0.00396376
0.0165148
7.5065e-05
0.0136454
0.00322435
0.00449162
0.0137078
0.0082135
0.0205106
0.00380652
0.0143315
0.00463739
0.023596
0.00679427
0.000609918
0.000984588
0.0192438
0.0128638
0.000876435
0.00211068
0.0012119
0.00407483
0.000560283
0.000270632
0.0161996
0.0156984
0.000173261
0.0157382
0.0139161
0.0168449
0.00921584
0.00911261
0.00737304
0.0118337
0.0124084
0.00575824
0.000932679
0.01085
0.014859
0.0109773
0.0203327
0.0182288
0.010886
0.0177448
0.00672009
0.0273716
0.00320106
0.0178427
0.0106768
8.20472e-05
0.0121583
0.00311244
0.00650508
0.00268499
0.00269447
0.0136484
0.0193848
0.00474451
0.0171254
0.000818444
0.000812201
0.000860155
0.0225721
0.0227321
0.0216074
0.0232549
0.0191563
0.0176968
0.00593871
0.00381139
0.00655815
0.00173027
0.0126448
0.00566225
0.0148877
0.00823337
0.00659029
0.00204597
-0.000118145
0.00481201
0.00256816
0.020166
0.00875644
0.00472574
0.00454197
0.00840468
0.000819482
0.0141777
0.00458706
0.0177265
0.00340021
0.00230139
0.0116375
0.0115857
0.0180724
0.0214764
0.0187938
0.0143028
0.00803582
0.00872856
0.017044
0.000122442
0.000947478
0.0167593
0.0171338
-0.000119301
0.000371188
0.00240939
0.0168865
0.0044307
0.0102603
0.0217629
0.0212763
0.0108399
0.0254775
0.00818295
0.00707082
0.00729307
0.00471139
0.00292344
0.01781
0.00301148
0.0108619
0.013162
0.0200719
0.00632686
0.00731223
0.00694713
0.0161709
0.0163863
0.0164031
0.0233083
0.00216628
0.0189107
0.0186211
0.0190233
0.0103148
0.000373578
0.0223811
0.023055
0.0212262
0.0125194
0.0132503
0.0144477
0.0134779
0.0160975
0.0123636
0.00051164
0.0169084
0.00786214
0.00537694
0.0172021
0.00130034
0.000763972
0.00299945
0.00281531
0.0205976
0.00827451
0.00302473
0.00421468
0.00747715
0.0152451
0.00714445
0.00655528
0.0137565
0.00961361
0.000282436
0.0177289
0.0112251
0.0186368
0.00937922
0.00195059
0.0144263
0.0143394
0.000709779
0.00827699
0.00770095
0.000563292
0.000694136
0.0175683
0.0201799
0.00812555
0.0105189
0.00121188
0.0186792
0.0232757
0.0195104
0.0134653
0.00628342
0.0183176
0.0138163
0.00728543
0.0101571
0.00563389
0.00573208
0.00907423
0.017301
0.00311859
0.0113182
0.0071363
0.00643825
0.000207961
0.0193413
0.00757538
0.0199598
0.00549075
0.0163448
0.0188707
0.00937879
0.00941086
0.0196882
0.0159383
0.0179223
0.00693249
0.00803954
0.015835
0.0151115
0.0119919
0.0127172
0.0184412
0.01888
0.0248684
0.0146073
0.0164893
0.00104401
0.000679108
0.0169088
0.0154318
0.00792822
0.0183437
0.00262917
0.0129118
0.0143902
0.0180659
0.0022262
0.0185281
0.0168341
0.0200715
0.0190825
0.0199481
0.00939653
0.0171476
0.00760637
0.0131966
0.0127929
0.0121571
0.0207557
0.0192188
0.0186122
0.0157291
0.00852024
0.0111068
0.0122529
0.0188881
0.0121203
4.28744e-05
0.0196785
0.0216756
0.0102211
0.00861757
0.00361733
0.00256786
0.00718586
0.0190751
0.0059671
0.00638773
0.0235131
0.00956816
0.00355361
0.00489241
0.000415524
0.00913582
0.0103406
0.00940489
0.017622
0.00062727
0.0203827
0.00181203
0.0197944
0.019133
0.0233655
0.00899527
0.00925817
0.0078818
0.0148107
0.0131737
0.0154145
0.0237977
0.0173111
0.018335
0.0121351
0.0147714
0.00873378
0.0155251
0.0134644
0.00294856
0.00267349
0.0108395
0.000861682
0.00772165
0.0205377
0.0216482
0.00392907
0.0198749
0.0129056
0.0208803
0.0114636
0.0117586
0.00157871
0.00086879
0.0151772
0.0137166
0.006609
0.00870045
0.00822235
0.0127346
0.00880404
0.0172244
0.0184614
0.023666
0.0182009
0.0196387
0.0118888
0.00836787
0.00978084
0.000872425
0.0016763
0.00321046
0.00861152
0.00777587
0.0136508
0.00803613
0.0143807
0.0163028
0.0180614
0.00831945
0.00517569
0.0241605
0.0126466
0.0216413
0.0213775
0.00950329
0.0218292
0.0022109
0.0184277
0.00550736
0.0103581
0.00411967
0.00803933
0.00900353
0.0206844
0.0210565
0.000664303
0.0189343
0.0226175
0.0258323
0.00839828
0.0159323
0.0182779
0.0185518
0.00747431
0.00806179
0.01723
0.0260808
0.0171485
0.00316724
0.0151492
0.0254952
0.0147702
0.0145474
0.0141108
0.00701576
0.0213763
0.0184865
0.0215575
0.00187524
0.015432
0.00125212
0.0127374
0.0180737
0.00386717
0.0182181
0.00561245
0.0172989
0.0235454
0.0101718
0.000504026
0.0115228
0.0123159
0.00071289
0.00762465
0.00772021
0.0121564
0.00888991
0.0248613
0.019837
0.00780355
0.00770049
0.0191993
0.0107941
0.0182624
0.0241139
0.0185863
0.000645462
0.000622005
0.0196681
0.0170853
0.0119588
0.0133221
0.0152818
0.0126607
0.0131554
0.0215503
0.018868
0.0226603
0.0170104
0.0149068
0.00210358
0.0218043
0.00287485
0.00824209
0.020372
0.0218189
0.0176208
0.00920804
0.0082375
0.000446524
0.0190818
0.0117868
0.0202221
0.0111052
0.0214147
0.022674
0.0143031
0.0152752
0.00911762
0.00444876
0.0247497
0.0117846
0.0151404
0.0117667
0.0108552
0.0157668
0.0250465
0.0145003
0.0135787
0.0268889
0.00233824
0.0211585
0.0130564
0.0260573
0.0135003
0.0108518
0.020993
0.0215215
0.00386277
0.0080332
0.00446954
0.00551543
0.0185985
0.00985222
0.0107072
0.000436298
0.00855853
0.0311238
0.00879116
0.00919518
0.0126934
0.0131016
0.0123793
0.0195719
0.0200974
0.0145296
0.0077806
0.019869
0.0111504
0.0205877
0.0184157
0.0185847
0.0205043
0.0209563
0.0192214
0.00733742
0.000583497
0.022038
0.00665513
0.0231364
0.0258031
0.0241634
0.00880174
0.0220843
0.0148293
0.00234244
0.00192108
0.00322507
0.0196992
0.0204303
0.0203013
0.0188228
0.0225464
0.00921614
0.00761611
0.0206706
0.0229105
0.0109053
0.0203427
0.0218625
0.0144935
0.00839117
0.0248722
0.022202
0.0190948
0.0154665
0.0197879
0.0162314
0.0213161
0.0017741
0.0161817
0.0191281
0.0218599
0.0155804
0.0207861
0.010398
0.0261843
0.0163379
0.00216448
0.0198097
0.00474544
0.000131316
0.00448271
0.0155983
0.0132771
0.0154303
0.0198577
0.0215452
0.00813385
0.0170285
0.00971247
0.0132281
0.0125295
0.012348
0.00759841
0.0202657
0.0135801
0.0141082
0.020078
0.0140863
0.0070044
0.00672867
0.0141459
0.0148598
0.0135186
0.0188534
0.0192997
0.00111406
0.0133364
0.0200968
0.0191541
0.0138374
0.014154
0.0116478
0.0144718
0.0253025
0.00125889
0.00693365
0.0210942
0.00325071
0.00929353
0.0100576
0.00958529
0.0234658
0.0248692
0.00310985
0.02545
0.0226461
0.016245
0.0161954
0.0230159
0.0167885
0.0212676
0.0199708
0.00397867
0.00886763
0.0242041
0.00044095
0.000715661
0.0231651
0.0216055
0.00377439
0.0229194
0.0168462
0.0147261
0.00957634
0.0217444
0.0212103
0.0076928
0.0201054
0.0186665
0.0164184
0.0146713
0.000892549
0.00154189
0.00111625
0.0169151
0.0194146
0.0124948
0.0220632
0.0244936
0.0120801
0.0107238
0.00750652
0.00449476
0.0267877
0.000114907
0.00307502
0.00962334
0.00116913
0.000254432
0.000480179
0.0102834
0.00752843
0.000921407
0.0332262
0.0210527
0.0158916
0.0246246
0.0137373
0.0264468
0.00430611
0.008502
0.00888452
0.0254471
0.0255679
0.013809
0.00722213
0.0144668
0.0130583
0.01708
0.0158555
0.0164995
0.0193488
0.00143657
0.0206467
0.0208524
0.0210106
0.0204113
0.0171262
0.0168797
0.0130012
0.01197
0.0219412
0.0190473
0.00613146
0.00478845
0.0128991
0.0184996
0.0246742
0.00596945
0.00692622
0.00717403
0.0184069
0.0232894
0.0245211
0.0240908
0.00193577
0.00114591
0.0228865
0.000734791
0.0225167
0.0234396
0.00473381
0.00657882
0.00295763
0.0219011
0.00831752
0.0192468
0.0150905
0.0151587
0.0236007
0.0240831
0.0108314
0.0264616
0.0262145
0.0178401
0.0163767
6.33321e-05
0.000646574
0.0182135
0.0164784
0.0198934
0.0258842
0.0394862
0.0263646
0.0207875
0.0263845
0.0209302
0.00258417
0.0192657
0.0222291
0.00299578
0.0209185
0.00509184
0.000556133
0.0204776
0.000716143
0.00951842
0.0103395
0.0102351
0.00942468
0.000445937
0.00201805
0.00647838
0.0250693
0.0233698
0.0169277
0.0100495
0.012726
0.00803649
0.0100908
0.00746804
0.00977586
0.00959205
0.00863759
0.0179133
0.0153554
0.0205881
0.0152154
0.0206242
0.00142363
0.0201792
0.00103788
0.0266579
0.0208001
0.0136148
0.017127
0.00829476
0.0108974
0.00379799
0.0027806
0.00667559
0.00448835
0.012304
0.0201997
0.009429
0.0158081
0.0144273
0.00565416
0.014181
0.0249925
0.00144542
0.00321903
0.00134232
0.016474
0.0234885
0.0190034
0.00614937
0.00481573
0.0232111
0.0029681
0.0232536
0.0219575
0.0400982
0.0233263
0.0230553
0.0263209
0.0247301
0.0236794
0.0185159
0.00475106
0.0191426
0.00453556
0.0196141
0.0202772
-9.66682e-06
0.0248279
0.0115872
0.0023167
0.0194511
0.0245445
0.0191443
0.0220043
0.0191863
0.00970876
0.0118694
0.0184799
0.0208565
0.0228349
0.0245074
0.000740705
0.0032278
0.0155986
0.0206911
0.0194342
0.0172078
0.0181445
0.00133969
0.0172038
0.00926946
0.0097046
0.00947141
0.00826496
0.0109356
0.0132215
0.000557568
0.0210909
0.0220054
0.0185636
0.00123463
0.021854
0.0132715
0.0139697
0.0157643
0.0164804
0.0192336
0.0150135
0.0338258
0.00385158
0.0137011
0.0213419
0.0164433
0.0164355
0.00318688
0.0149354
0.0234051
0.0261756
0.0192688
0.00883136
0.0226967
0.00808845
0.0151683
0.0242166
0.0255095
0.0151505
0.0257964
0.0255885
0.0254029
0.0236677
0.016034
0.0246235
0.0232901
0.0204493
0.00913981
0.0183909
0.00724261
0.00200041
0.0188334
0.00596355
0.0240214
0.0244847
0.0238268
0.0221692
0.0140465
0.022329
0.0252368
0.00785593
0.0055319
0.0109101
0.0270385
0.0184081
0.0177358
0.00454303
0.00395224
0.0213059
0.0013557
0.0129106
0.0264839
0.0227711
0.0193558
0.0200182
0.0120032
0.0106125
0.00278513
0.0206217
0.000306433
0.00751509
0.0231118
0.000997574
0.00286629
0.00446227
0.00585067
0.003441
0.0162647
0.018317
0.0213173
0.013975
0.00859318
0.0308337
0.00855597
0.00986973
0.0105439
0.0222476
0.020053
0.0252318
0.0227096
0.00710095
0.0126546
0.0122904
0.0122707
0.0143273
0.0174124
0.0174644
0.0203241
0.0193213
0.0180997
0.0132908
0.00986165
0.0100091
0.00244075
0.0191087
0.0227586
0.00812929
0.00336149
0.0340994
0.0128622
0.0233085
0.0156974
0.0236392
0.0283339
0.0183491
0.00822299
0.00698359
0.0150915
0.025139
0.0239728
0.00621338
0.0266788
0.000228899
-0.000219093
0.0230428
0.0256841
0.0128195
0.0106153
0.0215239
0.00548866
0.0240446
0.0259947
0.010459
0.0212407
0.0220488
0.0327579
0.00593498
0.0248126
0.0145615
0.0151991
0.0209128
0.0249565
0.00278712
0.0194583
0.0266818
0.0259676
0.0277972
0.00593869
0.0217956
0.0212511
0.00306181
0.0172295
0.0248854
0.0178057
0.00249372
0.00773211
0.016382
0.00537336
0.0180425
0.00762968
0.000658351
0.000849692
0.0109652
0.00315556
0.0236876
0.0138433
0.00605886
0.01057
0.0245182
0.0246086
0.0217949
0.0228253
0.0242246
0.0139625
0.00251103
0.00522428
0.0120847
0.0206673
0.0207383
0.0212998
0.0215405
0.014691
0.0144148
0.0130493
0.0179218
0.0158946
0.0160154
0.0172787
0.0261511
0.018839
0.0207426
0.0176778
0.0196107
0.0193781
0.00979217
0.0190293
0.0148698
0.00918963
0.0133638
0.0301652
0.0150642
0.0336127
0.0199364
0.00576846
0.00893521
0.0175418
0.0285873
0.0160754
0.015178
0.00680834
0.0200052
0.00062663
0.00170653
0.000329091
0.0249289
0.0246947
0.0250467
0.0128722
0.0270607
0.00481317
0.0256545
0.0260327
0.0250203
0.00259193
0.0285409
0.0252252
0.00191886
0.0267166
0.0152008
0.0159513
0.014966
0.02084
0.0226162
0.0185789
0.0195255
0.0206805
0.0127869
0.012323
0.00318598
0.0259807
0.0204565
0.0233763
0.0178897
0.0227538
0.0254327
0.00944147
0.0244446
0.00250608
0.0182841
0.00866737
0.000994385
0.0001594
0.0110012
0.0228975
0.00863516
0.0209065
0.0212838
0.00717489
0.0223781
0.00833204
0.0268319
0.0212615
0.0264599
0.0199489
0.0108171
0.0210309
0.0220268
0.0244352
0.00562819
0.0216768
0.021693
0.0227177
0.0243723
0.0174177
0.0230485
0.0185691
0.00250417
0.0221035
0.00556547
0.0164757
0.0173928
0.0119365
0.0190711
0.0288381
0.0145465
0.0134411
0.0141921
0.00984582
0.0184953
0.00686601
0.0122786
0.0226666
0.0107279
0.0213983
0.0064106
0.0228434
0.0190771
0.00594973
0.0161709
0.0237636
0.00627672
0.0187556
0.0123354
0.00167647
0.000144567
0.00169091
0.0239321
0.015714
0.0179233
0.0136568
0.0133726
0.0240057
0.0260314
0.0252177
0.0190976
0.0248338
0.020305
0.0262531
0.0138115
0.0267419
0.0265768
0.0265718
0.0257488
0.0250023
0.00302078
0.0210201
0.0250835
0.0191096
0.0172846
0.0279204
0.0251507
0.0126338
0.026079
0.00262837
0.0236935
0.0248016
0.0173233
0.0165397
0.0224168
0.0234757
0.0223578
0.00110882
0.0261213
0.0197256
0.00744753
0.000387636
0.0258626
0.00794078
0.00332257
0.00216424
0.00029236
0.0185368
0.00588499
0.0310813
0.00944497
0.0222875
0.0119123
0.00905459
0.0130128
0.0217976
0.00931771
0.0258607
0.021517
0.0126315
0.0241723
0.021619
0.0185461
0.0289648
0.01958
0.0248915
0.0159892
0.0268324
0.0159145
0.0158246
0.00335931
0.0201877
0.0190444
0.0202051
0.0232793
0.017032
0.0269139
0.0201515
0.0195891
0.00273491
0.00601085
0.0270265
0.0142156
0.00527386
0.0143146
0.035653
0.00865191
0.0279262
0.00648439
0.00127836
0.0107482
0.0111616
0.00990071
0.0184818
0.0056894
0.0172408
0.021635
0.0153973
0.0051305
0.00555225
0.0253221
0.00156993
0.0188472
0.0175337
0.011622
0.0236333
0.0281901
0.0122525
0.0236094
0.0220986
0.0195309
0.000390284
0.019066
0.0213138
0.0252274
0.025736
0.0290528
0.0269998
0.00335268
0.00221882
0.0272572
0.00324467
0.0244476
0.0261547
0.0242691
0.00526316
0.0298507
0.0114649
0.0216315
0.0259944
0.0234703
0.0241932
0.0232232
0.0221131
0.0202204
0.0118775
0.0221934
0.0167913
0.00195945
0.011013
0.0243184
0.0221127
0.0286045
0.0301615
0.00154011
0.0157399
0.00257359
0.00491645
0.0254072
0.00484881
0.00414904
0.0266972
0.00615164
0.0104244
0.015358
0.0258114
0.000273445
0.0252072
0.0217036
0.0119374
0.0247794
0.026377
0.013662
0.0248549
0.0201253
0.0266779
0.024795
0.0244037
0.0180226
0.0276519
0.0192358
0.0055846
0.0058818
0.0268485
0.0200138
0.0245159
0.0297967
0.0220936
0.0235498
0.0293728
0.0058689
0.0266617
0.0260473
0.0267864
0.0146739
0.0386728
0.00451713
0.00755875
0.0118649
0.0109669
0.0289746
0.00874825
0.021254
0.016873
0.0176178
0.0164707
0.00598543
0.0107929
0.00702573
0.0252168
0.00116743
0.0268453
0.0273704
0.0276814
0.0130808
0.0229711
0.0342573
0.0213393
0.00191313
0.0246305
0.00824171
0.0103193
0.0282169
0.0132368
0.0278709
0.0283398
0.0189804
0.00300956
0.0251667
0.0241607
0.0250433
0.0186149
0.0247637
0.0247504
0.0238811
0.0210909
0.0217141
0.0223459
0.022458
0.0184621
0.0171621
0.00172176
0.0257465
0.0155741
0.0167079
0.0182162
0.00926415
0.00776992
0.0310367
0.0241718
0.0221376
0.0281491
0.0291086
0.0108895
0.00445576
0.00752782
0.0304756
0.0156942
0.0080048
0.0260452
0.0067825
0.0227291
0.0130269
0.00570564
0.00546208
0.0213115
0.0123746
0.0233716
0.00097196
0.0205654
0.00214743
0.0222792
0.0127406
0.0186112
0.0190975
0.018122
0.0234519
0.0227349
0.0256251
0.00789075
0.0349623
0.0337446
0.029702
0.0204727
0.0202114
0.0157294
0.0214055
0.023894
0.0251114
0.0287087
8.38432e-05
0.0111627
0.012341
0.0379844
0.0257182
0.0031847
0.0264868
0.00324112
0.0150945
0.0173243
0.0105752
0.00770587
0.0298454
0.0242566
0.00821867
0.0162779
0.0307918
0.0104883
0.00645792
0.000536057
0.0150324
0.00223748
0.0277081
0.0065605
0.0294089
0.0348944
0.00898117
0.0245291
0.00032864
0.00035044
0.00851696
0.02838
0.0283697
0.027027
0.0240026
0.00179001
0.018534
0.0398303
0.0177417
0.0238862
0.0227698
0.0236529
0.023976
0.0189931
0.0262741
0.0233069
0.00816458
0.0020091
0.00227466
0.00229546
0.0223449
0.0249811
0.0139793
0.0249334
0.00586879
0.0060872
0.00692582
0.0215088
0.0291123
0.0287005
0.0301282
0.0170409
0.00845197
0.026443
0.00800439
0.0214081
0.023229
0.0240397
0.0130959
0.0264178
0.0119422
0.021889
0.0227329
0.021735
0.011483
0.0162921
0.0403769
0.01016
0.00259368
0.0207423
0.0177293
0.0221458
0.0142704
0.016658
0.0179854
0.0191993
0.0158787
0.0231705
0.0334934
0.0172019
0.0260019
0.0119692
0.0213537
0.0162298
0.0206033
0.022383
0.0211002
0.0284467
0.00399804
0.0279287
0.0185016
0.00087743
0.0121145
0.0292917
0.0262481
0.015496
0.00369221
0.0237476
0.00856926
0.0301055
0.0086263
0.0245604
0.0232607
0.0273195
0.0207563
0.0251969
0.0172405
0.00289158
0.0226144
0.00257045
0.0274654
0.000266844
0.00094703
0.00572418
0.00207452
0.0187797
0.000973742
0.0303749
0.0305956
0.0257086
0.0264768
0.0287797
0.0288412
0.0278744
0.0282426
0.00788588
0.030755
0.0278083
0.00611671
0.0263431
0.0323918
0.0181306
0.000102727
0.0253873
0.0275735
0.0237247
0.022125
0.0249568
0.0296526
0.00281014
0.0261026
0.00128965
0.000693607
5.97757e-05
0.0227423
0.0160976
0.00702129
0.0131912
0.0258277
0.0381624
0.0181413
0.0236526
0.0242695
0.0294771
0.00240681
0.0401554
0.0272186
0.00790541
0.0193211
0.00938293
0.0203132
0.0249589
0.00954773
0.0268396
0.0208805
0.0113288
0.0178167
0.0109098
0.0220471
0.017706
0.0282669
0.0290615
0.0082736
0.0151024
0.0183335
0.0178812
0.0242494
0.0341089
0.0123775
0.0241393
0.0184964
0.0121795
0.015669
0.0308211
0.0173445
0.0158909
-0.000157036
0.0327539
0.032049
0.00104887
0.0264326
0.00201362
0.0199044
0.0302447
0.00449041
0.0281084
0.0280197
0.0298399
0.0286327
0.0230149
0.0236588
0.0258108
0.00701578
0.0249278
0.0087055
0.00231671
0.0131852
0.00354607
0.0236632
0.0256245
0.010916
0.0108865
0.0133104
0.0299372
0.00336914
0.0256061
0.0152424
0.0295852
0.0209786
0.0289193
0.0279017
0.0311889
0.0277043
0.00130181
0.0184299
0.0275757
0.0192628
0.0251164
0.0242241
0.00509596
0.029099
0.022068
0.0304669
4.34395e-05
0.0277325
0.00702383
0.0149347
0.00200454
0.0236518
0.0228965
0.0358351
0.0219153
0.00732972
0.0271405
0.0258951
0.000798507
0.000561347
0.0352855
0.0242218
0.00842063
0.0392279
0.00968406
0.0152676
0.026467
0.000344329
0.00305666
0.0401813
0.00770052
0.0115764
0.0114249
0.0188467
0.0258627
0.0149108
0.0108432
0.0264788
0.0297476
0.0274914
0.0256668
0.0150907
0.0258844
0.0181898
0.0111626
0.0228217
0.022449
0.0182324
0.0206355
0.014977
0.014063
0.0261362
0.0268242
0.0272253
0.0226631
0.0321773
0.021894
0.0227167
0.0213643
0.0224109
0.0271083
0.0194895
0.00434754
0.0294892
0.0285462
0.0266571
0.00452379
0.0253769
0.0221236
0.0247661
0.0225586
0.0302115
0.0264927
0.00346711
0.0106815
0.0298902
0.0301246
0.032535
0.00293824
0.0145629
0.0102309
0.0278843
0.0269869
0.0288899
0.032293
0.0326123
0.0280428
0.0320333
0.0276217
0.0271535
0.0174639
0.0289235
0.0244694
0.0319832
0.038627
0.0242541
0.0226569
0.0399478
0.020001
0.0142433
0.0297998
0.0164478
0.0320232
0.000911176
0.0248709
0.0153909
0.0368203
0.0240134
0.0229067
0.0304753
0.0146581
0.000970959
0.0134609
0.0371134
0.000235643
-0.000164614
0.0245546
0.00956071
0.0103288
0.0101669
0.0073
0.00619362
0.00692594
0.00557571
0.0109385
0.0284397
0.0318341
0.0032227
0.0287158
0.0254655
0.00253219
0.0241472
0.029436
0.0298279
0.0168357
0.0207408
0.0158243
0.029248
0.0164885
0.0254116
0.0226399
0.0168194
0.0234317
0.0285799
0.0162035
0.0158617
0.0232372
0.0228388
0.0193728
0.031131
0.00364433
0.0327654
0.0199545
0.0170666
0.0187578
0.0294881
0.0128749
0.00993001
0.0295997
0.0262575
0.0269846
0.0288062
0.0367426
0.033253
0.0297398
0.0268931
0.0293345
0.0308704
0.0299134
0.0185589
0.0314505
0.0300321
0.0087492
0.0268814
0.0199098
0.0313656
0.0260597
0.030888
0.0155224
0.0278122
0.0196492
0.0228601
0.0289048
0.0312499
0.00843448
0.0255272
0.0203325
0.0196172
0.0207405
0.031951
0.02619
0.0276091
0.000547058
0.0234629
5.5114e-05
0.0274641
0.00228357
0.037731
0.00951278
0.019525
0.00765839
0.00737972
0.0066587
0.0253647
0.027564
0.0189254
0.0193929
0.0253095
0.0172602
0.0289017
0.029693
0.0215819
0.0325475
0.0282067
0.0327414
0.0283594
0.0265329
0.0304964
0.0172406
0.0223623
0.0230657
0.0183321
0.0041056
0.0307524
0.0301775
0.0357705
0.00934762
0.0282617
0.0251959
0.0100101
0.0229458
0.0280226
0.0244748
0.0318733
0.0302546
0.0289008
0.0314856
0.0234434
0.0301057
0.0314054
0.0303907
0.0298264
0.0249279
0.0279049
0.0220615
0.0322308
0.0270353
0.0401927
0.0395401
0.0260798
0.0319008
0.0256127
0.0251861
0.0245157
0.0209775
0.0295686
0.0262242
0.0282875
0.0295181
0.0323126
0.0284558
0.0242359
0.0269798
0.0270669
0.031525
0.0261634
0.0278955
0.0296807
0.0308316
0.00219497
0.028552
0.00302277
0.00347017
0.00384259
0.00194813
0.0281005
0.00599458
0.000689858
0.0206898
0.0278412
0.0380932
0.0387883
0.0321711
0.0257782
0.0315482
0.0171654
0.0355035
0.0227809
0.0250472
0.0272772
0.0294929
0.0193558
0.0291357
0.0304547
0.0220826
0.0236879
0.0303136
0.0238843
0.0349312
0.0304711
0.0338211
0.0104565
0.00191588
0.0282303
0.0279859
0.0275194
0.0339918
0.0288608
0.0346127
0.0289376
0.0311238
0.0182213
0.0323438
0.023367
0.0311874
0.024805
0.0315648
0.0324828
0.0198021
0.0287296
0.0213168
0.0297711
0.0212789
0.0300797
0.0261331
0.0251656
0.0300258
0.029061
0.0261252
0.029101
0.0198811
0.0346552
0.0271137
0.028748
0.0296838
0.0309421
0.00844448
0.0209768
0.0313612
0.00309153
0.00406433
0.031935
0.028133
0.00048565
0.038173
0.0254288
0.0351946
0.0276901
0.0241318
0.0241138
0.0332668
0.0278851
0.0239267
0.0252052
0.0271365
0.0278048
0.0275603
0.0357833
0.0305941
0.030732
0.0206939
0.0207549
0.0323534
0.026173
0.0306347
0.0306069
0.0345567
0.0381632
0.0363718
0.0243509
0.0324018
0.0255968
0.0300555
0.0294254
0.0251956
0.0114898
0.0318637
0.0385096
0.0312551
0.0240325
0.0277132
0.0240421
0.0396097
0.02219
0.028491
0.0241131
0.0252331
0.0301862
0.031869
0.0254424
0.0305027
0.0298971
0.0271524
0.0309857
0.0300885
0.0300206
0.0269085
0.0323998
0.0325361
0.031979
0.0274408
0.0315741
0.0316368
0.0313097
0.0100285
0.0320608
0.0227625
0.0235401
0.0289064
0.034526
0.0229582
0.027966
0.0324181
0.0274309
0.0280715
0.024291
0.0363012
0.0270563
0.0317651
0.0230162
0.0231064
0.0278018
0.0321463
0.0229128
0.0273517
0.0271647
0.0316112
0.0321226
0.0274088
0.0276928
0.0344495
0.0343278
0.0283187
0.0339345
0.0332323
0.0299435
0.0341707
0.0139688
0.034003
0.0321615
0.0316633
0.0319601
0.0305102
0.0319067
0.0352462
0.0288293
0.0317244
0.0254291
0.0290828
0.0261923
0.030043
0.0300352
0.0364045
0.0305373
0.0361707
0.0362673
0.0260536
0.0297164
0.0311278
0.0209051