/*--------------------------------*- C++ -*----------------------------------*\
| =========                 |                                                 |
| \\      /  F ield         | OpenFOAM: The Open Source CFD Toolbox           |
|  \\    /   O peration     | Version:  2212                                  |
|   \\  /    A nd           | Website:  www.openfoam.com                      |
|    \\/     M anipulation  |                                                 |
\*---------------------------------------------------------------------------*/
FoamFile
{
    version     2.0;
    format      ascii;
    arch        "LSB;label=32;scalar=64";
    class       surfaceScalarField;
    location    "0.046";
    object      phi;
}
// * * * * * * * * * * * * * * * * * * * * * * * * * * * * * * * * * * * * * //

dimensions      [0 3 -1 0 0 0 0];

oriented        oriented;

internalField   nonuniform List<scalar> 
68568
(
-1.50449e-07
1.55282e-07
-2.92805e-08
2.44479e-08
1.44716e-07
-7.39952e-08
-7.67748e-08
6.0539e-09
1.75316e-07
-1.33885e-07
-5.95047e-08
1.80733e-08
-4.45213e-09
2.19482e-09
-1.68171e-07
1.70429e-07
-1.25717e-09
1.40942e-07
1.00017e-09
-1.40685e-07
1.38675e-07
-4.72755e-10
-1.27595e-07
-1.06067e-08
8.31705e-08
-8.83357e-08
1.29729e-07
-1.24564e-07
-3.93561e-08
-2.69247e-08
1.49451e-07
1.30615e-07
-1.55732e-08
-1.10157e-07
-4.88474e-09
1.48725e-07
5.33532e-08
-5.73623e-08
1.00378e-07
1.36879e-07
-6.19408e-08
-6.3952e-08
-2.01116e-07
1.91073e-07
-1.39547e-07
6.84008e-08
-5.62858e-09
1.82319e-07
-1.87826e-07
1.35819e-08
-8.07492e-09
-6.99836e-08
-5.13434e-08
1.20158e-07
1.16936e-09
1.27754e-07
8.77633e-08
-1.30376e-07
-8.51415e-08
-5.10148e-08
-7.85546e-08
1.14752e-07
1.48178e-08
1.12279e-07
-1.17414e-07
-4.58792e-08
1.11612e-07
-4.43281e-09
-6.67882e-10
-1.06511e-07
8.54383e-08
-1.54507e-07
7.74635e-08
-8.39512e-09
1.12935e-07
-4.26228e-10
-1.12424e-07
-8.53914e-11
-1.79192e-08
9.01113e-09
1.40575e-07
-1.31667e-07
-4.5812e-08
1.89821e-07
-2.74224e-08
-1.16586e-07
-7.40055e-10
-5.02691e-10
-1.36346e-07
1.37589e-07
-7.4972e-08
-4.88413e-08
1.16884e-07
6.92884e-09
-9.74849e-08
-4.00606e-08
-1.29036e-08
-6.51505e-08
1.42065e-07
8.52404e-09
7.75205e-08
4.57347e-08
-3.06866e-08
-9.25686e-08
-6.84669e-08
-9.99698e-08
1.29081e-07
4.90232e-08
-1.20855e-07
3.36451e-09
1.5392e-07
-8.20515e-08
-1.44978e-07
7.31098e-08
-1.33342e-08
2.51067e-09
1.17736e-07
-1.06913e-07
1.57342e-07
-3.28612e-08
-1.12398e-08
-1.13241e-07
1.20253e-07
-9.22227e-08
-5.92096e-08
3.11797e-08
-5.66445e-10
1.10097e-07
-1.09593e-07
6.20832e-11
1.22476e-07
8.55526e-08
-8.57091e-08
6.27667e-10
-4.71189e-10
4.33523e-08
-1.60592e-07
9.34468e-08
2.37928e-08
-1.62775e-07
1.41456e-07
6.46716e-08
-7.44843e-08
-1.82655e-10
-3.05046e-10
-8.55241e-10
1.149e-07
-1.10968e-09
1.13626e-07
-1.13219e-07
-5.9887e-10
1.9151e-10
-2.66727e-08
-1.58686e-07
1.20488e-07
1.95294e-07
-1.48654e-07
-1.67129e-07
-6.22679e-08
-1.04389e-07
2.94411e-07
-1.47271e-07
1.64668e-07
-1.38247e-07
1.2085e-07
-1.24664e-07
6.6093e-08
-5.38084e-09
1.15965e-07
-1.13215e-07
-3.59296e-09
8.42384e-10
9.87661e-08
2.53473e-08
1.18517e-08
-1.35965e-07
2.19643e-09
-1.53347e-07
1.48691e-07
3.42432e-08
-2.9587e-08
-8.58435e-09
-9.43939e-08
1.02648e-07
3.30053e-10
-1.39754e-07
1.3877e-07
1.79226e-07
-1.75989e-07
-3.76663e-10
-1.95723e-10
2.08508e-09
-1.65001e-09
1.09744e-07
-1.10179e-07
3.97679e-08
-1.16273e-07
-2.04909e-09
9.25902e-08
-9.89831e-08
3.78344e-09
2.60953e-09
-8.63147e-08
1.43133e-07
-6.29547e-08
6.13606e-09
1.47999e-07
-7.66746e-08
-7.47732e-08
3.44893e-09
9.15578e-08
-9.18099e-08
-4.87967e-10
-1.13012e-07
-1.72903e-09
1.16936e-07
7.65084e-08
7.21432e-08
-7.76248e-09
-1.40889e-07
-6.0524e-09
1.36794e-07
-1.31569e-07
8.28121e-10
8.93474e-08
-1.51459e-07
-3.03873e-09
1.0923e-07
-1.7981e-08
3.39599e-08
-1.25209e-07
1.50959e-07
-2.36292e-08
-1.71123e-07
4.37934e-08
4.10368e-08
8.27334e-08
-1.21581e-08
6.49494e-08
-1.28651e-07
7.05148e-08
-6.81278e-09
1.35959e-07
-1.37061e-07
-1.54696e-10
-1.01391e-07
1.44728e-07
-3.20117e-08
-1.13259e-08
-2.06872e-07
-1.51698e-07
2.89939e-07
6.86307e-08
-1.22033e-07
-6.40633e-10
1.27181e-07
-6.46975e-09
1.35941e-07
-1.44261e-07
-5.42986e-08
6.26179e-08
-1.26701e-07
6.54445e-08
6.72073e-08
-5.95083e-09
-2.76829e-08
-5.365e-08
-4.90115e-08
-1.01777e-07
1.02004e-07
-4.64515e-10
2.3706e-10
4.03791e-08
1.75263e-07
-6.76433e-08
1.05728e-07
-6.37323e-08
5.05941e-08
-7.35974e-08
-8.06655e-08
1.50311e-07
3.95197e-09
-5.59816e-10
-2.20965e-07
-5.77645e-10
2.22103e-07
7.48611e-08
-4.69855e-08
8.57504e-08
-2.38059e-10
6.52462e-08
-6.5061e-08
5.27916e-11
-1.93431e-08
1.41051e-07
6.79277e-08
-1.89636e-07
1.71644e-07
-8.67541e-08
-8.99998e-08
5.10959e-09
1.20266e-07
3.82325e-08
-3.65446e-08
-1.21954e-07
1.64808e-07
-7.75793e-08
7.68359e-08
-1.64065e-07
3.54384e-08
1.33619e-08
1.16008e-07
-8.91672e-08
8.48441e-08
-1.63848e-07
1.25487e-07
1.02829e-09
-1.22682e-07
-3.83303e-09
-3.99602e-08
-2.81791e-07
1.97087e-07
8.44083e-08
8.69468e-08
-6.68688e-09
-4.16136e-10
5.26694e-10
9.44631e-08
-9.45737e-08
-1.24757e-07
1.24618e-07
-3.63594e-10
-6.02804e-08
1.20321e-07
6.05276e-09
7.41402e-09
8.81918e-08
-5.02578e-09
-9.058e-08
-1.2899e-07
5.69526e-08
9.01093e-08
-1.80714e-08
-4.44659e-08
-8.16919e-08
-1.01887e-08
-8.38455e-08
1.62709e-07
5.54462e-09
7.27768e-08
7.58822e-08
-1.43499e-07
-5.15976e-09
1.14573e-07
9.72567e-10
-1.15454e-07
-9.12309e-11
-6.12985e-09
-2.05235e-07
-1.42543e-08
2.1495e-07
-6.70669e-09
1.22643e-07
-1.23722e-07
5.78139e-08
-7.53135e-09
9.83424e-08
-4.26726e-10
-9.68452e-08
-1.07049e-09
1.23152e-07
-8.14515e-10
1.36734e-07
-4.66445e-08
8.15545e-08
1.38729e-10
-1.04617e-07
-3.39098e-09
1.12381e-07
-4.37371e-09
9.164e-08
-5.05532e-08
-9.08397e-08
1.09564e-11
9.07032e-08
1.25475e-10
-3.52261e-08
-1.37094e-07
1.45835e-07
2.64855e-08
-2.17301e-09
1.31582e-07
-1.29004e-07
-4.05389e-10
-8.88613e-08
-3.69613e-08
1.26081e-07
-2.58689e-10
-4.24297e-09
2.06734e-09
-1.10836e-07
-1.64672e-07
8.78147e-08
8.20331e-08
-5.1756e-09
3.40238e-10
-1.01527e-07
1.01452e-07
-2.66017e-10
1.38983e-07
-7.78668e-10
-2.87209e-10
-1.11597e-07
2.99968e-10
1.11584e-07
-2.91443e-08
2.1389e-08
1.53305e-08
1.32401e-07
-7.2414e-08
4.96256e-09
1.41782e-07
-1.40933e-07
-1.41835e-08
-1.24684e-07
1.40825e-07
1.91901e-08
-3.53306e-08
7.25728e-08
-7.38755e-08
1.52262e-07
3.87171e-09
1.1429e-07
1.53464e-07
-1.29953e-09
-1.54337e-07
6.91851e-08
-1.44308e-07
-4.50044e-09
7.96233e-08
1.44217e-07
-7.94291e-08
7.98883e-09
1.00688e-07
-9.85453e-08
-1.1332e-07
5.86288e-08
-3.10177e-08
-1.51048e-07
1.44011e-07
-1.93384e-08
2.63753e-08
1.60936e-07
4.6787e-08
-5.25687e-08
-1.53824e-07
-7.43667e-08
-3.05998e-08
8.13078e-08
2.36587e-08
-1.31579e-07
6.92581e-08
-5.49945e-08
1.17315e-07
-1.53612e-07
-3.38299e-09
1.60025e-07
-3.02933e-09
-1.10034e-07
2.08644e-08
-6.44425e-08
-1.64894e-07
-6.32457e-09
9.54917e-08
-1.39222e-09
-1.13324e-07
-5.55496e-10
-1.09968e-07
1.40978e-07
-7.45555e-08
6.05225e-09
1.57128e-07
-8.39537e-08
-7.96283e-08
6.45375e-09
-1.35522e-07
1.81902e-07
-4.67983e-08
4.17692e-10
8.29165e-08
-8.36149e-08
-1.34823e-07
9.5644e-08
7.39265e-09
-2.34864e-09
6.65985e-10
1.05475e-07
-1.04956e-07
-1.18541e-09
1.91736e-07
-4.86666e-08
-1.04837e-07
-1.09705e-07
6.80562e-08
1.15931e-07
-1.1129e-07
-2.57343e-09
-1.83799e-09
1.02642e-07
-1.01142e-07
3.37806e-10
-9.85613e-09
-1.36173e-07
1.33303e-07
1.27261e-08
-1.4049e-07
1.57339e-07
-9.92673e-09
-6.92246e-09
1.22059e-07
-7.76525e-08
-4.13425e-08
5.71144e-09
-8.10167e-09
-9.8678e-08
9.81953e-08
3.32287e-08
-6.85853e-09
-1.36405e-07
-2.02413e-08
1.11426e-07
-8.49522e-08
-6.23282e-09
1.61805e-07
-6.85845e-09
-1.38755e-08
-1.41071e-07
1.58245e-07
1.82543e-10
-2.68157e-09
-1.55746e-07
1.37419e-07
-1.35882e-09
-1.01846e-10
1.30216e-07
-1.30497e-07
2.94292e-10
-1.34687e-11
-1.26563e-07
-8.23329e-08
1.27204e-07
2.13377e-08
-1.71668e-07
-1.11598e-07
1.1136e-07
8.89048e-11
1.49207e-10
-1.35104e-07
-7.2846e-09
1.89834e-09
-1.02819e-07
-6.88214e-12
1.02795e-07
3.03976e-11
-1.23133e-07
-2.37543e-10
1.23518e-07
-1.46899e-10
-8.21383e-09
1.19109e-07
-1.02767e-07
-7.44228e-09
-1.0368e-07
1.03214e-07
1.78616e-10
1.52042e-08
2.88082e-08
8.92313e-08
-1.31661e-07
7.32057e-08
-7.35413e-08
1.45417e-07
-1.45082e-07
1.04082e-07
-8.18675e-08
-2.43826e-08
2.16847e-09
1.26524e-07
-2.75359e-08
-1.08912e-07
1.19898e-08
5.66848e-09
-1.0949e-07
1.23762e-07
-1.99405e-08
-5.87822e-10
1.02993e-07
-1.01938e-07
-4.67073e-10
-1.41793e-07
-8.47867e-09
1.66443e-07
2.07612e-07
-8.8459e-08
1.87467e-07
1.54214e-07
-7.68877e-08
5.59017e-09
-2.83545e-08
2.59759e-08
-1.08969e-07
1.14242e-07
8.88097e-08
9.39201e-08
-7.4667e-09
9.35235e-08
7.27618e-08
-1.60315e-07
-5.97053e-09
8.22927e-08
7.96221e-08
-7.70077e-09
1.22153e-07
-7.56724e-08
8.3735e-08
7.39808e-08
-1.25469e-07
5.98108e-08
-8.3226e-09
6.74266e-10
-9.94126e-08
-1.23142e-09
3.07564e-10
-3.11951e-07
1.86325e-07
2.00569e-07
-1.24891e-07
4.36932e-08
9.51958e-09
4.36983e-08
4.56004e-08
-9.88183e-08
-1.28745e-07
1.97357e-09
1.27922e-07
-1.14992e-09
-9.87182e-08
9.82597e-08
-2.34182e-11
4.8196e-10
1.29313e-07
-1.67367e-07
1.9788e-07
-1.59826e-07
1.56037e-08
-1.39579e-09
1.26735e-07
-3.16796e-08
7.43869e-09
-7.38824e-08
9.81233e-08
-7.21215e-08
1.40121e-07
5.20659e-09
-1.46396e-07
7.61191e-08
7.54735e-08
-5.19682e-09
-1.11124e-07
-2.49428e-08
1.15826e-07
5.04167e-10
7.72012e-08
-9.66467e-11
-7.76088e-08
1.46503e-07
-6.64726e-08
7.73108e-08
1.36818e-09
-1.18069e-10
8.90252e-11
-9.72337e-08
1.78666e-07
-4.76715e-08
-2.96185e-08
-1.01376e-07
-2.00141e-10
2.98355e-08
-1.09527e-07
8.38688e-08
-3.38683e-08
2.26762e-08
2.05992e-07
-2.20358e-08
1.6666e-07
-1.75851e-07
-6.27781e-08
-6.73038e-08
5.39774e-09
1.31726e-07
6.29176e-09
-7.09545e-08
-7.20621e-08
1.35725e-07
7.29205e-09
9.73812e-09
1.12364e-07
-1.51013e-07
-1.60651e-10
7.00857e-08
-6.89259e-09
-6.57599e-10
-1.3511e-07
1.38214e-10
1.35629e-07
-1.3814e-07
1.68379e-07
-4.32093e-08
1.11911e-08
-9.5595e-09
5.12532e-08
1.1177e-07
-1.29219e-07
7.54414e-08
-2.71116e-08
8.08894e-08
-1.41438e-07
9.5334e-08
-1.2914e-07
1.276e-07
2.40788e-10
9.29182e-08
2.20091e-08
-1.6716e-07
-2.17477e-08
1.66899e-07
-1.83529e-07
1.00633e-07
-1.38069e-07
-1.69878e-09
1.66304e-07
2.42447e-08
6.6792e-08
-9.57112e-08
4.67452e-09
6.26352e-08
-2.93844e-08
6.01639e-10
-1.00346e-07
5.56446e-10
-2.35991e-07
2.3597e-07
-5.57383e-10
-9.57624e-08
-1.0039e-07
-9.36687e-08
1.01877e-07
-1.11889e-07
8.4431e-08
-1.07084e-07
1.71891e-08
5.46434e-09
1.26372e-07
-9.11125e-08
-9.28412e-09
-1.55749e-07
-1.10218e-08
2.10675e-08
1.45704e-07
-3.11356e-07
-2.87876e-10
-1.31932e-07
1.31107e-07
4.08772e-10
-9.38796e-08
-6.71192e-11
2.78049e-10
-1.42766e-08
-9.48415e-08
1.51999e-07
-4.28806e-08
1.08951e-07
5.40991e-09
4.38836e-08
-1.35695e-07
1.34838e-07
-3.57633e-09
-5.54621e-08
1.4176e-07
-9.95401e-08
2.86006e-10
-1.28781e-07
-2.508e-10
9.23581e-08
-9.42394e-08
2.31273e-10
-6.66638e-08
-6.62594e-08
1.25125e-07
7.79778e-09
1.14e-07
1.77046e-08
-9.77159e-08
-3.39887e-08
6.02385e-08
1.53397e-07
-1.99506e-07
-1.59209e-08
-1.10855e-07
-1.95431e-08
1.28161e-07
5.00059e-11
-1.28525e-07
3.139e-10
2.42022e-08
7.75399e-09
5.47625e-08
-8.67187e-08
-1.4235e-07
7.65373e-08
-5.1419e-09
-1.17343e-07
1.14551e-07
-6.8357e-09
-3.83955e-10
1.22194e-07
3.43534e-10
-8.06331e-08
-7.23826e-08
1.45898e-07
7.11723e-09
1.30058e-07
-6.99679e-08
-6.70347e-08
6.94414e-09
1.30484e-07
-2.31782e-09
-4.90632e-12
-1.01935e-07
-9.23093e-08
1.00365e-07
-1.32059e-07
-4.73323e-08
7.63369e-09
1.73046e-07
-1.06792e-07
2.98817e-08
-1.29962e-07
2.18039e-10
-1.06344e-07
6.41726e-10
-7.01375e-10
1.35423e-07
2.58509e-08
-2.76257e-08
-1.33649e-07
4.63971e-08
-1.30883e-07
-3.49165e-11
1.2851e-10
3.92557e-08
-1.95868e-07
-7.89242e-08
1.33495e-07
9.01573e-08
2.0877e-08
-1.47086e-07
-1.85479e-08
1.44757e-07
-8.20398e-08
6.22443e-09
1.34169e-07
-1.32902e-07
9.24376e-08
4.19418e-08
-1.47721e-09
-6.24556e-10
1.50015e-10
-9.79446e-08
6.7257e-08
-4.53849e-09
-1.57619e-09
-3.03962e-09
-2.36012e-09
9.64222e-08
-9.10225e-08
8.31587e-08
1.05801e-07
-1.04499e-07
-8.44612e-08
1.50379e-07
-1.67873e-07
3.59591e-10
1.46644e-10
1.58663e-07
-1.02782e-08
-1.39373e-07
-4.29332e-08
1.53979e-07
1.10133e-08
1.19752e-07
-1.12934e-07
-5.87276e-09
-9.44986e-10
-1.07999e-09
1.15244e-07
1.657e-07
-5.75897e-08
-2.38199e-09
9.4862e-08
-8.41295e-08
-5.23251e-10
2.63239e-10
1.42042e-07
-1.5914e-07
7.40595e-09
1.46653e-07
2.78218e-09
-1.20145e-08
1.66431e-07
-2.08645e-07
4.50716e-08
1.02035e-09
9.14024e-08
-8.84095e-10
-9.15386e-08
-1.18446e-07
1.1869e-07
-1.55422e-10
1.15864e-09
-2.09727e-10
-1.12857e-07
1.11813e-07
-3.59676e-11
-1.10824e-07
-2.49958e-10
2.19502e-10
7.20714e-08
-1.03703e-07
-7.71156e-08
1.08747e-07
1.8751e-11
-1.16365e-07
1.16484e-07
-1.3812e-10
-3.81319e-08
7.01503e-08
-1.68054e-09
-1.9764e-08
-1.42247e-07
7.39712e-08
-6.09067e-09
2.84037e-08
-1.60674e-08
1.07416e-07
-1.36669e-07
6.59262e-08
6.34651e-08
7.27818e-09
-1.60155e-07
-1.12034e-07
1.12475e-07
-1.27343e-07
-4.36009e-08
5.84697e-08
1.31014e-07
-1.31791e-07
2.24491e-10
5.52615e-10
-1.78999e-09
-1.85805e-07
1.60531e-10
1.87435e-07
-1.06526e-07
4.58393e-11
1.0653e-07
-1.28909e-07
-1.37579e-10
5.22019e-10
7.30128e-08
-1.28859e-07
-6.93241e-09
2.98066e-10
-1.30651e-07
-1.44453e-10
7.68133e-08
7.7459e-08
-5.58109e-09
-7.42297e-08
-7.44495e-08
1.42414e-07
6.26528e-09
-1.17842e-07
8.72323e-10
1.16752e-07
2.18293e-10
1.25388e-07
3.09926e-08
1.11581e-07
-1.58034e-08
1.09038e-07
-5.6242e-09
-9.97458e-08
4.70349e-08
4.54434e-08
7.26751e-09
2.37939e-08
1.29593e-07
-2.44682e-08
-1.24535e-07
7.4186e-08
-7.21304e-08
-1.32673e-07
-1.06991e-07
1.17589e-07
1.22074e-07
1.09608e-07
-1.35448e-10
1.16555e-07
-1.17988e-07
1.42104e-09
1.21893e-11
-1.3238e-07
-1.29914e-07
8.46765e-10
6.371e-11
1.71727e-08
3.51231e-08
-1.57216e-07
1.52159e-08
-4.37004e-08
1.98647e-07
1.35563e-07
-1.20922e-07
-1.59002e-08
1.82014e-09
1.95015e-08
-2.14971e-08
1.34382e-07
-3.33414e-08
-7.95438e-08
1.0707e-07
-6.88709e-10
-1.06162e-07
-2.18905e-10
-4.23543e-08
-1.45909e-07
2.899e-07
-1.01637e-07
1.05178e-07
-8.01621e-08
-7.70928e-10
-1.72348e-11
1.03392e-07
-3.82321e-10
7.42394e-08
-7.47666e-08
1.34077e-07
-1.76699e-07
-1.31446e-07
8.00394e-08
1.27525e-07
-2.34043e-09
-3.04753e-08
-8.29894e-08
7.17325e-08
8.57316e-08
8.23591e-09
1.775e-07
-1.25989e-07
4.02023e-09
1.4911e-07
-8.06548e-08
7.01832e-09
1.22597e-07
-1.62954e-07
1.27943e-07
-7.64221e-08
-3.54375e-08
-1.39664e-08
1.83209e-09
1.05242e-07
-1.1693e-07
6.87084e-08
-1.3009e-07
-5.28256e-09
1.50191e-07
5.30004e-09
-4.59066e-08
1.38774e-07
-9.36731e-08
-2.11017e-09
-2.57089e-08
1.40594e-07
-1.5783e-07
4.29444e-08
1.17597e-07
2.11758e-08
-5.60394e-08
-2.19116e-09
-1.42911e-07
1.43018e-07
-9.16495e-10
-3.02527e-08
2.28895e-08
-9.81674e-08
1.05531e-07
7.58877e-08
-1.42848e-07
-5.10223e-09
-1.3701e-07
1.37444e-07
-1.35756e-10
-7.69321e-08
1.58831e-07
-1.24254e-07
-7.27892e-08
-8.0041e-08
1.57357e-08
-1.01112e-07
-1.14891e-10
2.08263e-07
4.19493e-08
-1.45491e-07
-1.07515e-07
-7.4363e-08
1.3284e-07
2.31462e-07
-9.52662e-11
-9.03674e-08
-8.90509e-11
9.05518e-08
3.26979e-08
1.09851e-07
-6.6628e-10
1.50553e-07
6.2993e-09
9.75812e-08
5.70586e-08
2.69958e-09
7.40654e-08
-1.42725e-07
-5.57036e-09
-7.34049e-08
-8.2665e-08
1.47425e-07
8.64464e-09
-9.11977e-08
-4.42194e-09
-4.12613e-09
-7.82514e-08
-1.19806e-07
1.15266e-07
-5.14922e-11
-1.25155e-07
-3.38137e-09
1.22484e-07
-9.08011e-08
-1.37699e-07
9.8656e-08
1.29844e-07
-1.13074e-07
3.92676e-08
7.70374e-08
-3.231e-09
7.10574e-08
7.07702e-08
-1.34869e-07
-6.95875e-09
-7.19603e-08
-6.93698e-08
1.3495e-07
6.38039e-09
5.22567e-08
4.84374e-08
-1.10688e-07
9.99433e-09
-6.8031e-08
1.13529e-07
-3.6943e-08
-8.55479e-09
1.06528e-07
-1.06997e-07
-1.88427e-10
-9.52304e-08
6.83202e-10
8.2982e-08
1.07274e-07
-2.86671e-08
-1.61589e-07
-3.15264e-08
9.00048e-08
3.87817e-08
-9.72601e-08
-9.8837e-08
-2.52238e-11
1.00567e-07
-1.70495e-09
-7.46495e-08
-4.29943e-08
9.61467e-08
1.2533e-07
-3.32429e-09
7.1019e-08
-1.32353e-07
6.64052e-08
-5.07151e-09
-6.01587e-08
4.36464e-08
-1.23848e-07
1.15367e-08
1.30459e-07
-1.06449e-07
-3.41635e-08
6.68431e-08
8.38927e-08
-7.53189e-08
8.12692e-10
-1.23805e-07
-1.4063e-10
1.21289e-08
-2.79441e-09
1.04675e-07
-1.1856e-07
5.72498e-08
5.41404e-08
7.16968e-09
7.46114e-08
-4.92955e-09
3.9922e-08
6.41135e-08
7.39074e-09
8.98461e-09
1.29244e-07
-1.07034e-08
-6.57761e-09
-8.32773e-08
8.14539e-08
1.36206e-07
-7.53529e-08
-1.59118e-07
1.59698e-07
1.67279e-07
5.88887e-08
-5.64351e-08
-1.69733e-07
1.44968e-08
-1.31186e-07
1.40891e-07
-7.95432e-08
-7.22795e-08
1.45033e-07
6.78979e-09
-4.79464e-08
-1.15352e-07
1.95442e-09
6.88525e-08
-6.79842e-09
1.31697e-07
-6.30525e-10
-5.2286e-11
2.26512e-08
-8.72956e-08
9.30481e-08
2.32225e-10
2.40585e-10
-1.37482e-07
-3.20478e-09
8.28542e-08
-8.01152e-08
1.15518e-08
-8.52114e-08
1.4567e-07
-7.20107e-08
-2.83818e-08
-1.37155e-07
1.2059e-09
1.64331e-07
9.47048e-08
-1.82091e-07
7.12328e-08
1.61535e-08
-1.24291e-07
9.15609e-08
-9.92015e-08
1.01859e-07
-6.63556e-10
-1.00904e-07
-2.91298e-10
-4.61354e-08
-1.30069e-07
4.66531e-08
1.29551e-07
-7.35396e-08
-1.24557e-07
1.50618e-07
4.74787e-08
-2.89807e-09
-1.44177e-07
1.44828e-07
2.24711e-09
-1.27002e-07
1.26838e-07
-1.62614e-09
-1.46052e-07
1.29065e-07
-6.49123e-08
1.39621e-07
7.15873e-08
-6.05075e-09
7.77163e-08
-1.38504e-07
-6.46818e-08
-1.2766e-07
8.90525e-08
-1.03742e-07
-1.36588e-08
1.44307e-07
-8.89596e-08
-3.51803e-08
1.22078e-07
-1.20102e-07
-3.36261e-09
1.38609e-09
-9.90859e-08
-2.37625e-09
4.22851e-09
1.30743e-10
-1.51786e-07
1.48757e-07
-9.16342e-08
-3.2697e-10
7.63478e-10
-9.42017e-08
7.91924e-08
1.56271e-08
-6.17821e-10
-5.63657e-08
-1.34994e-07
1.81663e-07
9.69688e-09
1.17249e-07
-4.76019e-10
5.7098e-08
4.8736e-08
-1.14619e-07
8.78493e-09
-1.10255e-07
-5.5483e-10
1.10523e-07
2.87314e-10
-1.07752e-07
1.54566e-08
-2.56931e-08
6.40538e-08
-1.22438e-07
5.17377e-08
6.64645e-09
-4.74312e-09
-9.53157e-08
4.29647e-09
1.537e-09
-1.35764e-07
1.55441e-09
5.42946e-08
7.57224e-08
-9.17109e-08
1.94524e-08
6.0202e-08
2.09883e-08
1.28804e-07
-1.29346e-07
5.97029e-10
-5.56585e-11
-2.0871e-07
1.96742e-07
8.65514e-08
-7.45836e-08
5.77654e-08
-1.4886e-07
1.14438e-07
-2.33434e-08
7.5449e-08
-6.74571e-09
-6.88729e-10
-7.84885e-11
5.84845e-08
-6.21149e-08
-1.1723e-07
1.67165e-07
-1.38797e-07
1.15059e-07
-1.51414e-08
6.91967e-10
-1.54141e-07
1.53432e-07
1.32109e-07
-1.60919e-07
-1.4424e-09
-8.82912e-08
-8.39751e-08
1.65372e-07
6.89421e-09
9.55043e-08
1.72306e-10
-9.57243e-08
4.77198e-11
-1.49413e-07
7.99473e-08
7.41345e-08
-4.66864e-09
-2.02552e-07
1.25754e-07
-1.4061e-07
2.17408e-07
-1.9537e-07
2.55427e-08
-4.62178e-08
-1.14435e-07
-1.66087e-07
1.02144e-07
3.82342e-08
-1.48798e-08
-1.29974e-07
1.41638e-07
3.21615e-09
-3.36693e-09
-1.13434e-07
-9.7622e-09
1.14387e-07
-1.13826e-07
1.18842e-07
-3.79407e-08
1.68829e-07
1.43682e-07
1.18761e-07
-1.30653e-07
-1.249e-07
3.97147e-10
1.20791e-07
-1.21253e-07
6.47968e-11
1.0453e-07
-1.13211e-07
3.93752e-09
-8.10813e-08
-6.23937e-10
7.11239e-08
1.0645e-07
-4.58768e-08
6.44153e-08
-1.24585e-07
-4.74298e-09
-3.61086e-10
1.17643e-07
-1.17395e-07
1.12557e-10
-1.21405e-07
-3.41984e-10
1.22415e-07
-6.68065e-10
-1.23887e-07
4.55064e-08
-3.45531e-08
-1.21112e-08
1.02186e-07
8.16957e-08
-1.2202e-09
-1.82662e-07
3.10547e-09
-8.33213e-11
-1.74945e-08
8.44543e-08
-1.51605e-07
8.46449e-08
-1.30933e-07
1.32881e-07
6.78632e-08
-6.31536e-09
2.84194e-08
-1.35823e-07
-3.84135e-08
1.45817e-07
4.21246e-08
1.18712e-08
3.49433e-08
-8.89391e-08
7.14069e-08
7.81e-08
-1.43126e-07
-6.38058e-09
-1.06934e-07
1.05179e-07
1.75004e-09
5.07175e-12
-7.05151e-08
7.27e-09
5.76513e-08
-5.54626e-08
1.30286e-07
-1.32475e-07
-1.08662e-07
2.30443e-07
-4.81232e-08
-7.36576e-08
8.92718e-08
-7.4583e-08
-7.82005e-08
6.35117e-08
7.09031e-08
-5.82741e-08
-1.41315e-07
5.58441e-08
8.5387e-09
6.03696e-08
8.36824e-08
7.80411e-08
8.03412e-08
-1.5225e-07
-6.13231e-09
1.39896e-07
8.33047e-09
-6.45179e-09
-1.41774e-07
1.06693e-07
7.46513e-10
-3.70277e-10
1.00598e-07
-1.02541e-07
2.38529e-09
-4.42632e-10
-6.83435e-08
-8.04247e-08
1.41892e-07
6.8763e-09
-1.25832e-07
1.52355e-09
4.21524e-10
-1.10566e-07
-4.59253e-11
3.56547e-10
1.17774e-08
1.28959e-07
1.16267e-07
2.00041e-09
-1.01801e-09
1.48971e-10
-1.07611e-07
1.06907e-07
1.01382e-07
1.79085e-08
2.78732e-09
-1.25328e-08
3.786e-08
-1.25566e-07
1.00239e-07
1.30436e-07
-1.30202e-07
-1.12152e-10
-1.21227e-10
-3.09989e-08
-1.23885e-07
1.80427e-07
-1.24007e-07
-1.99975e-08
1.49368e-07
-5.36308e-09
1.61002e-07
-1.36578e-07
-2.354e-08
-2.15496e-08
1.34361e-07
1.3189e-07
-1.32957e-07
4.41927e-10
6.24402e-10
1.56752e-07
-4.83812e-08
-1.54325e-07
4.59545e-08
1.30326e-07
-1.30462e-07
1.54249e-07
-1.54113e-07
9.4264e-09
-1.30764e-08
-1.02993e-07
1.06643e-07
2.79308e-08
-1.07535e-07
-4.56149e-08
1.2522e-07
9.07104e-08
8.22272e-08
-1.65687e-07
-7.2508e-09
2.13482e-07
-2.25885e-07
-1.25203e-07
-1.11082e-07
1.07233e-07
-1.37087e-08
1.31691e-08
-1.95117e-07
1.69336e-07
-8.99509e-08
1.40641e-07
-2.39041e-07
1.8835e-07
8.31055e-08
-1.66973e-07
-6.0838e-09
2.13764e-08
9.38895e-08
-1.62028e-08
-9.9063e-08
-1.57956e-09
1.23231e-07
-1.49448e-08
-1.02968e-07
-6.18634e-08
1.61089e-07
-1.1237e-07
1.31448e-08
-2.86812e-08
8.27926e-08
-4.66221e-08
-7.48934e-09
3.03779e-10
-1.04127e-07
1.04272e-07
-4.48997e-10
2.81859e-09
1.30454e-07
-1.32125e-07
-1.14692e-09
-3.4468e-08
-1.32638e-07
1.44162e-07
2.916e-08
-5.81636e-08
1.63152e-07
8.17907e-09
-5.02584e-08
-4.6491e-08
1.32333e-07
-2.34571e-07
-2.62275e-08
-1.5882e-07
1.25486e-07
-7.53271e-08
1.29126e-07
-1.25812e-07
-4.94983e-10
-1.03041e-07
1.54188e-09
-2.26815e-09
1.03767e-07
6.4892e-08
-1.99667e-07
-1.52549e-07
-3.50735e-11
1.32032e-07
-1.31761e-07
-2.36693e-10
-1.27449e-07
-4.49562e-08
1.63323e-07
6.00174e-09
-9.54277e-09
1.16059e-07
-1.04005e-07
-1.19576e-08
1.5171e-07
-1.21775e-07
4.7626e-10
-1.06798e-10
6.7455e-08
-1.59621e-07
8.67747e-08
5.39096e-09
-1.4897e-09
-1.25521e-07
-1.57017e-09
1.33145e-07
6.1251e-09
-1.09781e-07
5.59318e-08
5.19723e-08
1.8766e-09
-1.11609e-07
3.05049e-08
1.52008e-07
-7.30541e-11
1.42163e-07
-7.60214e-10
-1.4133e-07
7.68463e-09
1.25457e-07
-2.67248e-08
-1.06417e-07
1.50747e-07
-1.71823e-07
8.89801e-08
-6.79035e-08
4.76353e-08
1.2011e-07
-5.89727e-08
-6.84274e-09
8.70698e-08
1.0263e-07
-1.79111e-07
-1.37309e-08
-6.90439e-09
1.14536e-07
-1.38231e-07
1.21345e-07
3.40689e-10
-1.21724e-07
3.84221e-11
7.66003e-09
1.05224e-07
-3.93258e-09
8.33149e-08
-2.06979e-07
3.28633e-08
-1.38259e-07
2.09678e-09
-7.7936e-08
-6.64246e-08
1.37425e-07
6.93523e-09
-1.10881e-07
-5.09164e-08
3.40638e-08
1.27734e-07
-1.24527e-07
-6.26386e-10
-6.79342e-10
-7.29693e-08
1.54169e-07
-8.72188e-08
6.01874e-09
7.80697e-08
-1.54982e-07
8.07416e-08
-3.82967e-09
-1.17472e-07
-2.31953e-10
1.07082e-07
-1.10015e-07
4.85189e-09
-1.91821e-09
1.58018e-07
-8.85311e-08
8.58328e-09
-1.19992e-07
2.03057e-08
-2.04151e-08
6.2e-08
-1.02553e-07
-2.31793e-08
1.30999e-07
-1.30113e-07
-1.94004e-10
7.1092e-08
6.37637e-08
-6.36047e-08
-7.1251e-08
8.35241e-08
1.5566e-07
-1.68127e-07
8.25164e-08
7.02177e-08
-1.47366e-07
-5.36852e-09
-1.20849e-07
6.38136e-08
4.96337e-08
7.40196e-09
2.10884e-10
1.31292e-07
3.87363e-10
8.30413e-08
7.74518e-08
-1.55037e-07
-5.45615e-09
1.10933e-07
1.21738e-07
-9.98984e-09
-1.08082e-07
-3.66621e-09
9.96931e-08
7.90385e-11
1.54078e-07
-1.55556e-07
-8.53539e-08
8.68319e-08
5.2134e-08
6.22738e-08
7.33061e-09
-6.25086e-09
-2.47995e-07
1.96173e-08
1.59536e-07
-3.62873e-09
6.31844e-09
1.59515e-07
1.37051e-07
-2.32512e-07
-1.28484e-07
1.06323e-09
-1.59458e-09
1.29016e-07
7.11244e-10
1.03557e-07
-1.04173e-07
-9.51819e-11
-8.2955e-08
1.89013e-07
-1.85601e-07
5.41974e-08
1.28685e-07
-6.76599e-08
-1.15223e-07
4.79614e-08
6.09059e-08
-1.1643e-07
7.5628e-09
1.55611e-07
-1.19534e-08
2.17145e-08
-1.39102e-07
-5.56027e-09
5.12791e-08
-1.51732e-07
-1.92451e-08
-9.93494e-08
-1.16259e-07
1.09679e-07
2.09839e-08
-5.17634e-09
-2.14127e-08
1.00644e-07
3.04484e-08
3.36618e-08
-8.21823e-08
-2.9908e-09
1.30605e-07
3.89263e-09
1.33693e-10
4.08092e-10
-2.16628e-07
-1.55913e-08
-5.12386e-10
1.04596e-07
1.51097e-08
-1.11652e-07
-1.52781e-08
2.85776e-07
-1.25749e-07
-1.44749e-07
-1.76227e-07
1.43839e-07
1.19923e-07
-1.51818e-07
-7.13807e-08
7.71237e-08
-7.90367e-08
7.32938e-08
1.2381e-07
-1.28346e-07
-3.93788e-09
8.47436e-09
-4.14346e-09
-6.64541e-08
8.31361e-08
-1.92909e-07
-8.39618e-08
6.78608e-08
-4.62925e-08
-1.23622e-07
2.78469e-07
-4.3217e-08
-1.02553e-07
-1.38501e-08
-8.00609e-08
1.61346e-07
2.23917e-09
-3.46882e-08
-7.44448e-08
9.32465e-08
1.58865e-08
4.16339e-08
-1.86704e-07
8.46027e-08
6.04673e-08
-1.11001e-07
1.10761e-07
-1.46902e-10
3.86783e-10
9.55787e-08
-1.69626e-10
1.45422e-08
1.30565e-07
1.17506e-07
-7.69764e-09
-8.69193e-08
-1.5412e-07
1.85917e-08
8.0591e-10
1.36684e-07
-1.05335e-07
1.55918e-07
-4.82489e-08
-6.00549e-09
3.11159e-09
1.30616e-07
-3.12241e-09
1.09364e-07
4.08125e-08
-1.59247e-07
-3.09783e-08
-1.30438e-07
-1.13138e-07
-8.82984e-08
4.56865e-08
-1.15126e-08
1.12796e-07
-8.84567e-09
-9.83133e-08
-1.13094e-07
-3.2846e-09
9.87512e-08
-1.27068e-07
1.026e-07
-6.54761e-10
-1.01309e-07
-6.36103e-10
-2.67816e-08
-1.53509e-07
-1.84018e-07
1.83645e-07
1.16584e-07
-4.89522e-08
1.11821e-08
-7.88138e-08
1.17394e-07
-6.11554e-10
-1.16653e-07
-1.29723e-10
9.2057e-10
1.0606e-07
-1.07289e-07
3.07997e-10
3.0069e-08
1.242e-07
-3.80019e-08
-8.05567e-08
-8.50823e-08
1.06575e-08
8.01439e-09
1.13368e-07
-1.17408e-07
-3.97438e-09
-1.29423e-07
1.39683e-07
-2.24544e-09
-1.37955e-07
-3.79391e-09
-1.54262e-07
1.56274e-07
-5.7634e-08
-8.8318e-08
1.52066e-07
-6.1136e-09
1.11355e-07
-1.49106e-08
7.15332e-10
-9.14818e-11
4.85187e-08
1.22096e-08
-9.12334e-10
-3.11538e-10
7.76978e-08
8.50276e-08
-5.97379e-09
-3.48858e-08
1.03313e-07
8.13838e-08
-2.92623e-07
-1.68465e-07
3.00899e-07
1.58602e-07
1.41449e-07
-5.92329e-08
-9.08572e-08
6.16726e-09
-7.03811e-10
-1.28268e-07
-3.73521e-10
5.60832e-08
6.47076e-08
-1.19729e-07
-1.06212e-09
-1.18149e-07
1.17986e-07
1.44711e-10
1.85002e-11
1.08464e-07
3.33447e-08
-1.42089e-08
1.47262e-09
1.99844e-07
-4.57411e-09
-5.46328e-08
-8.30528e-08
-3.62923e-09
-8.35462e-08
-2.3937e-08
6.82937e-10
1.10851e-07
-1.10788e-07
8.03171e-08
-1.97334e-07
1.10137e-07
-1.0652e-09
-6.07303e-10
7.17634e-08
6.685e-08
-1.34736e-07
-3.87784e-09
-1.65814e-07
8.2804e-08
-2.34439e-08
-2.76534e-08
-3.80891e-08
1.30987e-07
-6.52446e-08
-3.03141e-08
7.28253e-08
3.16233e-08
-1.4409e-07
-9.15183e-08
9.66709e-08
1.38938e-07
7.84455e-08
-5.78938e-09
6.65839e-08
1.32179e-07
-5.43367e-08
-1.44426e-07
-3.78392e-09
1.19928e-07
1.52324e-08
-1.31377e-07
1.14311e-07
-9.70796e-08
-2.12854e-08
4.05424e-09
1.45368e-07
-1.96108e-07
1.81194e-07
1.44858e-07
-7.02812e-08
-6.77035e-08
-6.87294e-09
4.34422e-08
-1.73438e-07
-1.241e-07
-1.23906e-07
1.19849e-11
-1.92219e-07
1.61946e-07
-1.67888e-07
1.98161e-07
8.29288e-08
-1.64249e-07
-2.65094e-08
1.22189e-07
-1.21131e-07
-4.62575e-10
-5.95273e-10
6.15845e-08
-1.22772e-07
-5.2667e-09
-6.88539e-09
7.91495e-08
-1.76443e-07
8.10852e-08
-1.39034e-07
-1.86662e-11
2.21553e-10
1.38831e-07
-1.19081e-07
1.41977e-07
-1.58926e-07
-8.95284e-08
-2.76253e-08
-7.24584e-09
6.07383e-08
7.07322e-08
-5.98497e-09
-5.37812e-08
-6.12138e-08
-5.85421e-09
-3.77927e-09
-1.06251e-07
-1.02981e-07
-1.06974e-09
-5.72991e-09
7.09086e-08
-7.05652e-08
7.1786e-10
-1.06129e-09
1.09268e-07
-1.0711e-07
-1.38094e-09
-7.77024e-10
-1.17799e-09
1.29963e-07
-1.28774e-07
-1.04838e-11
-1.34868e-07
1.45247e-08
1.1466e-07
5.68313e-09
1.29812e-07
-1.2329e-07
-4.5303e-09
-1.99153e-09
-1.09721e-07
-1.19461e-09
1.1158e-07
-6.64522e-10
-1.06005e-07
-6.47292e-08
9.89466e-08
3.47277e-08
-9.70477e-09
-1.2397e-07
7.71686e-08
-8.19976e-08
3.97113e-09
8.57932e-10
4.61443e-08
3.80352e-08
-1.30315e-07
1.11541e-07
-1.08525e-07
-7.43343e-09
4.41786e-09
-5.1875e-08
5.23129e-08
1.5555e-07
5.62679e-09
1.31296e-07
-9.80927e-08
1.23035e-08
-2.80933e-08
-1.19967e-08
-1.04e-07
-3.0805e-08
2.00382e-07
6.0664e-09
-1.75165e-07
1.32892e-07
-3.41927e-08
-1.98319e-08
2.14247e-08
-8.1783e-08
6.12716e-09
-1.27807e-07
1.27618e-07
5.93955e-08
-7.16595e-08
-3.07303e-08
7.8661e-08
2.1508e-09
6.21043e-08
5.65864e-08
-7.65661e-08
-8.46602e-08
1.16802e-07
-1.29517e-08
-7.17527e-08
5.94531e-09
9.61494e-08
1.15522e-08
2.29133e-08
2.52891e-08
-1.07708e-08
5.24196e-08
6.07559e-08
6.93451e-09
-5.02566e-08
1.64484e-07
-1.70593e-07
-1.78504e-07
8.85632e-08
2.2557e-07
-1.51904e-07
1.08283e-07
-3.30479e-08
6.21864e-08
-1.37422e-07
-1.25607e-07
-4.33465e-08
-1.47335e-07
-5.69537e-09
-1.03639e-07
8.16014e-08
-8.99303e-08
1.11968e-07
8.72073e-09
-1.22171e-07
-1.43936e-07
-7.67492e-09
-3.94603e-09
-1.2992e-07
1.17659e-07
1.26571e-07
1.99598e-08
1.04638e-07
2.11756e-09
-1.35324e-07
1.25068e-07
-8.72927e-08
9.75485e-08
-1.03271e-07
1.35696e-08
-2.08644e-08
-3.52785e-08
2.05218e-08
7.24695e-08
-4.68754e-08
-1.13918e-07
-4.44623e-08
1.24713e-08
-7.21516e-08
-8.66442e-08
7.74797e-09
-7.13505e-08
8.19369e-08
8.18139e-08
2.3973e-08
4.32576e-08
-1.49044e-07
4.30433e-08
4.13012e-08
-7.79615e-08
2.32315e-10
-8.14193e-08
-9.16933e-08
7.29879e-09
6.35256e-08
-7.39991e-08
-4.87983e-08
5.92718e-08
-4.97941e-08
-9.11823e-09
1.4985e-07
-1.89103e-07
3.985e-08
-5.9736e-10
-8.45774e-09
2.78594e-08
8.08137e-08
-1.00215e-07
5.48293e-10
-9.57665e-08
-9.44164e-10
9.61624e-08
-1.02568e-07
1.02022e-07
2.78149e-10
2.67995e-10
1.32683e-07
-7.27213e-08
-1.34411e-07
-6.20338e-08
-3.88475e-08
1.02567e-07
-1.6856e-09
1.56525e-07
1.18628e-08
-1.18688e-07
6.06349e-09
-1.42411e-07
1.67886e-08
-5.38199e-10
-1.27314e-07
-1.15901e-07
1.16208e-07
-3.25506e-10
1.21179e-07
3.75269e-08
-1.44977e-07
-1.20548e-08
-1.47461e-08
2.25551e-07
-8.27954e-10
-6.72215e-08
-8.33807e-10
9.91643e-08
-9.82861e-08
1.42161e-10
-1.24529e-09
1.07538e-08
2.68328e-08
1.245e-07
-2.74533e-08
1.18908e-07
-9.04017e-09
-3.30978e-09
1.2986e-07
-1.25134e-07
-1.41621e-09
-1.04996e-07
1.10292e-07
-5.56919e-09
1.23916e-07
5.60253e-09
-3.22803e-08
-9.72379e-08
1.20777e-07
1.76341e-09
-1.2049e-07
-2.05113e-09
-7.19826e-08
-5.477e-08
7.21198e-08
9.07716e-08
1.51338e-09
1.59297e-07
1.97052e-08
-3.65887e-08
-1.48342e-08
3.6952e-09
-7.92284e-08