/*--------------------------------*- C++ -*----------------------------------*\
| =========                 |                                                 |
| \\      /  F ield         | OpenFOAM: The Open Source CFD Toolbox           |
|  \\    /   O peration     | Version:  2212                                  |
|   \\  /    A nd           | Website:  www.openfoam.com                      |
|    \\/     M anipulation  |                                                 |
\*---------------------------------------------------------------------------*/
FoamFile
{
    version     2.0;
    format      ascii;
    arch        "LSB;label=32;scalar=64";
    class       volVectorField;
    location    "0.046";
    object      U;
}
// * * * * * * * * * * * * * * * * * * * * * * * * * * * * * * * * * * * * * //

dimensions      [0 1 -1 0 0 0 0];

internalField   nonuniform List<vector> 
31639
(
(0.12292 0.000608198 -0.000590868)
(0.119734 -0.0004381 -9.08682e-06)
(0.121698 -0.000273355 0.000870171)
(0.125143 3.23793e-05 -0.000250578)
(0.121584 -0.00076946 -0.000315941)
(0.120446 -0.000105007 -3.89353e-05)
(0.119751 -1.34225e-05 -0.00026003)
(0.122481 -9.01918e-05 -1.75991e-05)
(0.122289 0.000215135 -0.000247614)
(0.123253 -0.000453797 -0.000494411)
(0.123984 0.000459458 -6.23261e-05)
(0.123039 -0.000578634 -0.000795707)
(0.120463 -0.000455896 1.7754e-05)
(0.123148 -1.10306e-05 0.000176552)
(0.118928 -0.000360424 8.5409e-05)
(0.120142 -0.000428016 0.000789827)
(0.121838 0.000392049 0.000164444)
(0.119197 5.13679e-05 0.000411137)
(0.120367 4.57081e-06 -0.000392652)
(0.121242 -9.7082e-05 -0.00017292)
(0.114771 -0.000243462 -0.000419456)
(0.124048 -0.00033603 -0.000607132)
(0.12363 0.00070599 -0.000208469)
(0.120169 0.000173616 -0.000292399)
(0.118707 -0.000176534 -0.000134803)
(0.121956 -0.000242545 8.7628e-05)
(0.121047 8.50205e-07 -0.000164956)
(0.123027 0.00117296 -8.29223e-05)
(0.119612 0.000414387 0.000666288)
(0.123545 -0.000114889 0.000592977)
(0.123915 -0.000164255 -8.45021e-05)
(0.119176 -4.6977e-05 -0.000195942)
(0.123792 0.000347473 -0.000491812)
(0.120074 -0.000180038 -6.78517e-05)
(0.116447 0.000119153 0.000252025)
(0.123985 0.000433633 0.000132454)
(0.113625 -0.000370603 -9.81799e-05)
(0.12479 -0.000549555 0.000305071)
(0.123559 -0.000393928 0.000266416)
(0.113558 4.08983e-05 -0.000128114)
(0.117404 -6.4749e-05 -0.000336)
(0.115995 -0.00048587 6.25083e-05)
(0.122801 9.01933e-05 -3.49507e-05)
(0.124469 -0.000776835 -0.000885313)
(0.123164 -0.000680939 0.000744032)
(0.124401 -0.000855162 -0.000406572)
(0.117792 0.000306526 -0.000294589)
(0.121263 0.000491482 -0.000354022)
(0.121342 -7.90972e-05 0.000210592)
(0.124683 -0.000439502 -0.000244162)
(0.124045 -0.000235734 -0.000531656)
(0.115253 0.000120722 -0.00025798)
(0.123484 0.000626871 0.00024122)
(0.114429 -0.000294361 0.00042918)
(0.121671 -0.000418676 -0.000180081)
(0.121339 0.00017364 7.79914e-05)
(0.115723 -8.77796e-05 -0.000652596)
(0.121109 6.67091e-05 0.000320462)
(0.120568 0.000129266 0.00038422)
(0.11638 0.000266167 -0.000199744)
(0.122774 -0.00021119 -0.000494945)
(0.123334 0.000353224 -0.000184461)
(0.119179 -0.00025676 -0.000328976)
(0.120617 -5.22659e-05 -0.000214371)
(0.122208 0.000419157 0.000263672)
(0.124693 -0.0002916 -0.000516953)
(0.12222 6.96818e-05 -0.00100977)
(0.120867 -0.000312705 0.000126129)
(0.117514 1.72125e-05 -0.000414072)
(0.12468 0.000314052 -0.000196543)
(0.122633 0.000137708 3.6526e-05)
(0.117586 0.000322365 -0.00123342)
(0.122951 -0.000413606 -0.000835794)
(0.121318 -0.000220208 -0.000201933)
(0.122484 0.000629897 5.68373e-05)
(0.114697 0.000342882 -0.000609489)
(0.123994 -0.000652447 0.000276535)
(0.120626 0.000214205 -0.000647755)
(0.119839 -0.000235039 0.000388532)
(0.122833 0.000257256 -1.05575e-05)
(0.119199 -2.03585e-05 9.04623e-05)
(0.112101 -0.000289273 2.85207e-05)
(0.124118 -0.000394408 0.000153312)
(0.121483 -0.000232025 -0.000280038)
(0.121661 -9.37661e-05 -0.000122273)
(0.123959 -0.000453061 -0.00029813)
(0.124768 -5.65849e-05 0.000133422)
(0.124181 -0.00020057 -0.000479141)
(0.115655 0.000886735 -0.00147174)
(0.123291 -0.000256958 -0.000493814)
(0.121697 -0.000378291 0.000249104)
(0.120399 -0.000497221 -0.000136013)
(0.116634 -0.000514573 -0.000452347)
(0.118852 0.000603055 -0.000819893)
(0.119277 -0.000828521 -0.000412825)
(0.119844 0.000916824 0.000423945)
(0.121684 0.0001917 -0.000498123)
(0.121183 -0.000205077 0.00013036)
(0.120562 0.000175931 0.000316705)
(0.115698 -0.0011101 -0.000121535)
(0.122454 0.000256492 -3.26494e-05)
(0.122155 0.000302217 0.000871481)
(0.119228 -0.000313067 -0.000154441)
(0.115007 7.71168e-05 -0.00017626)
(0.116232 -6.2408e-05 -0.000371855)
(0.124446 -0.000630754 -0.000302063)
(0.11446 0.000354388 -0.000460327)
(0.115554 -0.00092822 -0.00088388)
(0.118054 0.000400203 -4.00791e-05)
(0.113876 -0.0003654 0.000663766)
(0.12235 -0.00131903 0.000344427)
(0.116726 -9.39997e-05 -0.000267231)
(0.120521 8.95458e-05 -0.000185318)
(0.120315 -0.000703536 -0.000663346)
(0.120811 0.000146304 -0.000878991)
(0.114643 -0.000539773 0.000272405)
(0.120326 0.000640444 8.00547e-05)
(0.119795 -0.000765105 -0.000177433)
(0.122283 0.000109475 0.00011097)
(0.120387 -0.000362769 5.87281e-05)
(0.122193 -0.000382673 -0.000165853)
(0.122861 -0.000477656 0.000324121)
(0.123655 -8.60836e-06 -0.000611444)
(0.122746 0.000345679 -0.000724131)
(0.122574 -0.000242417 -0.000848297)
(0.123412 -0.000408178 0.000136447)
(0.120309 -2.64743e-05 0.00038838)
(0.119202 0.000164742 -0.00027668)
(0.118934 -0.000624331 -0.000351858)
(0.123238 -0.00024954 0.000185855)
(0.122779 0.000179741 -0.000209664)
(0.123488 0.000129549 -0.000521196)
(0.1226 -0.000604331 -1.44158e-05)
(0.121473 -0.000186039 9.66866e-05)
(0.123779 -0.000143592 -0.000125119)
(0.121205 -0.000106852 3.52893e-05)
(0.116527 -0.000157578 -0.0003036)
(0.115548 -0.000724453 -0.000458627)
(0.123756 0.000382854 0.000596155)
(0.120702 -0.000469508 -0.000493573)
(0.120374 -0.000229718 -0.000413995)
(0.124383 0.00027638 0.00110828)
(0.123387 0.000444989 0.000304409)
(0.114991 -0.000359371 -0.000487757)
(0.115367 -0.00011072 -0.000685155)
(0.123151 -0.000242707 1.96986e-05)
(0.122865 -9.39896e-05 -0.000228217)
(0.116072 -0.000268935 -0.000447532)
(0.116636 -0.000103997 0.0001766)
(0.123599 -0.000467056 0.000119123)
(0.118722 -0.00013304 -0.00120998)
(0.12027 -5.61036e-05 0.000203992)
(0.12103 -0.000452213 -0.000874855)
(0.123395 -0.000141309 7.70543e-05)
(0.116993 0.000623316 -0.00126505)
(0.125142 -7.59568e-07 8.63559e-06)
(0.122605 -0.000341384 -0.000255159)
(0.117412 -0.00125383 -0.000197592)
(0.115873 -0.000750498 0.000993222)
(0.119984 -0.000393037 -0.000157893)
(0.124393 -0.000174783 -0.000465015)
(0.114746 0.000242518 0.000102524)
(0.116594 0.000189493 -0.00110548)
(0.115732 -0.000433477 0.000157531)
(0.114874 -0.00116318 5.81964e-05)
(0.119184 0.000339627 -0.000315534)
(0.11585 0.000355735 0.00016034)
(0.124014 -0.000688335 0.000217662)
(0.123928 -0.00047668 0.000248402)
(0.115908 0.000240083 -0.000808677)
(0.116667 -0.000813172 0.000378072)
(0.119975 0.000703158 -0.000583974)
(0.116296 -6.44771e-05 -3.42833e-05)
(0.121277 -9.23034e-05 0.000506941)
(0.124589 -0.00027965 -0.000235203)
(0.122646 -0.000656063 -0.000472631)
(0.120914 0.000628182 0.000251071)
(0.123232 0.000313607 0.000396556)
(0.1215 -0.000502506 -7.64355e-05)
(0.119716 -0.000439492 -0.000120438)
(0.119982 0.000146452 -6.40745e-05)
(0.120185 -0.000588055 0.000744238)
(0.119135 -1.72469e-06 0.000214986)
(0.113873 0.00105398 -0.000619634)
(0.121942 -0.000156599 9.97657e-05)
(0.124209 0.000150774 -0.000244944)
(0.119701 0.000162488 0.000678814)
(0.123688 0.000215193 -0.000115575)
(0.116625 -0.000250532 8.75563e-05)
(0.114374 -0.000164168 0.000409327)
(0.124675 -0.000256679 -6.06418e-05)
(0.123389 -0.000239099 -0.000313471)
(0.121231 -0.00033263 0.000515134)
(0.120265 -0.00011497 0.000276808)
(0.120761 -0.000186451 -0.00042652)
(0.121301 -0.000201288 -0.000723264)
(0.120997 0.000626042 0.000429484)
(0.123055 0.000427443 -0.000487843)
(0.116384 -0.000173473 -0.000326154)
(0.119898 0.000120805 -0.000219857)
(0.124335 -1.17572e-05 0.000243045)
(0.123072 -0.000280909 0.00011473)
(0.122271 -0.000261995 0.000204083)
(0.120697 -0.00156125 -0.00071802)
(0.121396 -0.000607717 -0.000465118)
(0.119385 5.5558e-05 -0.00038506)
(0.120639 -0.000257866 -0.000472754)
(0.11912 0.000593195 -0.000629121)
(0.123365 7.49055e-05 -0.000585381)
(0.11477 -0.000160011 -7.12929e-06)
(0.120742 -8.18115e-05 -0.000152317)
(0.120393 0.000439502 4.40951e-06)
(0.121695 8.80483e-05 -0.000431104)
(0.123776 -0.000120521 -0.00051944)
(0.123164 -0.000561178 -0.000407139)
(0.124035 -0.000168308 -0.000300351)
(0.116429 -0.00109875 -0.000378495)
(0.118982 -0.000662805 0.0004878)
(0.123178 -0.000385099 -0.000258296)
(0.12396 -0.000195501 0.000293828)
(0.122809 4.12824e-05 0.000321035)
(0.121165 -0.000435423 -0.000531229)
(0.113129 -0.00031311 0.000626546)
(0.120534 -0.000531175 0.000507953)
(0.115906 -0.000678402 -0.000309013)
(0.119015 0.000401043 9.75562e-05)
(0.123266 -0.000478993 0.000529749)
(0.11917 0.000100155 0.000480833)
(0.115147 0.000429512 -0.000271609)
(0.121403 0.000176543 0.000218653)
(0.122711 0.000515337 -0.000253071)
(0.124335 -0.000480382 -4.4057e-05)
(0.115573 -0.000337756 -8.893e-06)
(0.114755 -0.000781698 0.00028214)
(0.121922 -0.000326819 0.000380586)
(0.123622 -1.88682e-05 -0.000634101)
(0.115983 1.85596e-06 0.000483423)
(0.123614 -0.000702927 0.000291748)
(0.118687 7.79295e-07 -0.000490281)
(0.116582 -0.000482055 0.000181816)
(0.120045 0.000251012 -0.000403479)
(0.12231 -0.000342553 6.82173e-05)
(0.119206 -0.00104434 -0.000114406)
(0.118333 0.000216652 0.000956493)
(0.119523 0.000371133 0.000405919)
(0.121276 -0.000159056 -0.00015381)
(0.119492 0.000482644 -0.000533088)
(0.118498 0.000622617 -0.0010696)
(0.114845 -0.000472477 0.000547897)
(0.119607 0.000286932 -0.000663097)
(0.120051 0.000116263 -0.000716032)
(0.11766 -9.73264e-05 -1.99044e-05)
(0.119374 -0.00114228 0.000384437)
(0.123692 0.000176027 -0.000176032)
(0.123928 0.000598124 0.000175554)
(0.121331 0.000454202 -7.92113e-05)
(0.116507 0.000181572 -1.02552e-05)
(0.123392 0.000289375 -0.00018007)
(0.122963 0.000348798 -0.000525834)
(0.121165 -0.000438103 -0.000308597)
(0.124772 0.0001228 0.000840123)
(0.124288 0.0001106 -0.000410696)
(0.122421 0.000212919 -0.000436399)
(0.124099 -7.82385e-05 7.1404e-05)
(0.119214 0.000447622 0.000212368)
(0.12106 -0.000302557 -0.000668933)
(0.114994 0.000296611 -0.00162596)
(0.119241 -2.12042e-05 -0.000133074)
(0.123292 -0.00103591 0.000329595)
(0.11911 3.20291e-05 0.000381005)
(0.123435 0.000370053 -0.000157965)
(0.120493 0.000484735 -0.000706258)
(0.121711 -0.000218876 0.000107736)
(0.122539 0.000261518 0.000400112)
(0.124414 -7.10914e-05 -0.000715388)
(0.121338 0.000659789 0.000150027)
(0.115823 0.000289048 2.19301e-07)
(0.120273 0.000211023 0.000221413)
(0.117266 0.00164284 -0.000359427)
(0.123851 -0.000339056 -0.000977767)
(0.120434 -0.00061252 -0.000406212)
(0.123465 0.000115669 -0.000464733)
(0.121643 0.000218961 -0.000111258)
(0.119493 -0.000162311 -0.0004681)
(0.114857 -7.53327e-05 -6.10243e-06)
(0.117146 7.04281e-05 -0.000576542)
(0.116295 0.000334493 0.000297171)
(0.114694 -0.000352101 0.000116116)
(0.124177 -0.000356824 -0.000445102)
(0.115267 -0.000488416 -0.000615255)
(0.121939 -0.000430757 0.000272347)
(0.12119 0.00054439 -0.00029834)
(0.120392 5.72956e-05 -0.000232412)
(0.116696 -0.000228123 -0.000287484)
(0.123941 -0.000819862 -1.35981e-05)
(0.12061 0.0001041 -0.000768457)
(0.118446 0.000129871 0.000679898)
(0.123685 0.000139148 -0.000454203)
(0.122164 -0.000134634 -7.94735e-05)
(0.117203 0.00050826 0.000496384)
(0.11926 0.000156412 -6.06121e-05)
(0.11628 0.000196852 -5.34042e-05)
(0.12103 0.000290388 -0.000371383)
(0.119665 0.000349113 -0.000185806)
(0.116537 0.000427288 0.000917196)
(0.121007 -6.58768e-05 -0.000221682)
(0.119442 0.00111739 0.00057494)
(0.113907 9.17269e-05 -0.00124913)
(0.113854 0.000337231 0.000248846)
(0.122598 -0.000485886 0.000197038)
(0.123816 0.000138451 -7.33409e-05)
(0.124477 0.00027911 -0.000146152)
(0.115326 0.000335902 0.000239796)
(0.116932 -6.89644e-05 0.000541017)
(0.122998 0.000216845 0.000372509)
(0.118195 -0.000238787 -0.000268189)
(0.118227 0.000630984 -0.000856553)
(0.122957 0.000345467 0.000256153)
(0.123644 -0.000586501 -8.72915e-05)
(0.120229 -0.000799373 0.000159793)
(0.123526 -0.00102474 -0.000278183)
(0.124558 0.000100391 -0.000239582)
(0.116098 -0.000189625 -0.000256471)
(0.124389 -0.00118295 -0.000255268)
(0.113815 0.000234914 -0.000218683)
(0.115036 -4.84581e-05 -4.31048e-05)
(0.123997 -0.000451839 -0.000275479)
(0.123225 -0.000509544 -0.000150736)
(0.124196 7.25404e-05 -0.000751358)
(0.124509 0.000418418 -0.00106496)
(0.123327 -0.00019828 -0.000826807)
(0.117249 0.00125849 -0.000602465)
(0.118889 -0.00104782 0.00075699)
(0.119836 -0.000109671 -0.000294019)
(0.122369 -0.000978243 0.000140166)
(0.124085 0.00096771 0.000907267)
(0.124565 -0.000827992 0.000328652)
(0.120401 0.000185809 -0.000272068)
(0.118254 -0.00106139 0.000476338)
(0.120296 -2.7103e-05 -0.0001004)
(0.123404 -0.000102104 -0.000161925)
(0.123046 -0.000103616 -0.00100919)
(0.119301 0.000102537 -0.000238783)
(0.121947 -0.000227286 -4.40812e-05)
(0.11988 0.000629542 -0.000641726)
(0.120102 -0.000412499 -0.000395284)
(0.122407 -0.000405026 0.000349367)
(0.118568 -0.00109923 0.000981251)
(0.116158 -0.000165457 -2.37648e-05)
(0.121219 0.000848755 -0.000544154)
(0.122353 9.50238e-05 0.000460904)
(0.119715 0.000250817 -0.000183091)
(0.12253 0.000387536 0.00037145)
(0.123432 -0.000514324 0.000292346)
(0.120913 0.000137076 -0.00042355)
(0.116979 0.000176117 -0.000528631)
(0.12016 0.000461312 -0.00042669)
(0.119306 0.000463178 0.000488917)
(0.115071 0.00023963 -0.000484831)
(0.12316 -0.000869427 0.000259447)
(0.114898 0.000566886 0.000467972)
(0.122502 -0.000111161 -0.000488982)
(0.124203 -0.000816086 -0.000285007)
(0.115836 -0.000348978 0.000196187)
(0.120882 0.000343517 3.92073e-05)
(0.119492 0.000418024 0.000413226)
(0.115562 -0.000279611 3.4285e-05)
(0.122118 -0.000173571 -0.000213482)
(0.117004 4.3502e-05 -0.000112499)
(0.120563 -1.88091e-05 0.000698909)
(0.123785 0.000379731 8.13963e-05)
(0.122295 0.000154195 0.000166017)
(0.114771 0.000337805 2.21532e-06)
(0.122602 0.000307473 3.24973e-05)
(0.116864 0.000131417 -0.000392442)
(0.122564 -7.56663e-05 -7.86329e-06)
(0.122625 0.000276666 0.000154684)
(0.123086 -0.000189422 -0.000574335)
(0.123774 -0.000190947 -0.000522061)
(0.115771 -4.0879e-05 -0.00067202)
(0.12254 -0.000873505 0.000109469)
(0.115076 5.6469e-05 -0.000555393)
(0.11964 4.00352e-05 -0.000470859)
(0.115969 7.82305e-05 -0.000419045)
(0.124828 -1.31725e-05 -0.000542549)
(0.123613 8.62863e-05 -0.000532538)
(0.124488 -6.93035e-06 1.01065e-05)
(0.123979 -0.000369191 -0.000552328)
(0.121622 -4.99419e-05 -0.00063599)
(0.122979 -8.14959e-05 0.000219034)
(0.119886 0.000280142 -7.83646e-05)
(0.121546 0.000240315 -0.000299255)
(0.120592 0.000109277 -0.00038681)
(0.116891 0.00011904 0.000100203)
(0.122939 -2.36204e-06 -0.000442607)
(0.121123 -0.000370235 -9.43882e-05)
(0.121273 -0.000203434 -0.000292747)
(0.123356 0.000130361 0.000137711)
(0.123032 -5.06689e-05 -0.000516591)
(0.123449 3.94179e-05 0.000224899)
(0.120383 -0.00071122 0.000160318)
(0.115182 -0.000152959 0.00072323)
(0.120114 0.000235405 0.000171069)
(0.122561 0.000140041 0.000408628)
(0.121775 -0.000255415 9.3391e-05)
(0.115894 -0.000615777 -0.000465805)
(0.123693 9.96248e-05 -0.000351328)
(0.12345 -0.000175937 -0.000842991)
(0.118728 0.000308646 -0.000436163)
(0.122321 -0.0003186 -0.00052548)
(0.12282 -0.000330114 -0.00114726)
(0.122646 -0.000375187 -0.000646184)
(0.122739 -0.000378022 -0.000109656)
(0.115453 -0.00013918 -9.15671e-05)
(0.122034 -0.000433951 8.46658e-05)
(0.122522 -0.000518472 0.000268878)
(0.113737 0.000139858 7.50091e-06)
(0.121737 -0.000879293 -5.70329e-06)
(0.122002 -0.000311961 -0.000182724)
(0.118377 0.00012716 0.000296451)
(0.114709 -8.67693e-05 0.000156948)
(0.114532 -0.000335913 0.000658224)
(0.119912 -0.000933513 0.0002133)
(0.114185 0.000548461 -0.000490667)
(0.120239 3.21998e-05 0.000191607)
(0.121238 -6.96021e-05 -4.49413e-05)
(0.118812 0.000574178 0.000280554)
(0.122631 0.000496656 0.000129606)
(0.115526 -0.00022643 0.000169021)
(0.122114 0.000376184 6.63721e-05)
(0.124696 0.00024882 1.80643e-05)
(0.120117 -0.000148522 9.84608e-05)
(0.122441 -0.000125705 0.00061433)
(0.120133 8.58549e-05 3.15204e-05)
(0.123866 0.000924818 -5.85828e-05)
(0.121517 0.000422038 3.57176e-05)
(0.121803 -0.000221191 -0.000628795)
(0.124802 7.25774e-05 -0.000450427)
(0.120772 7.5513e-05 -0.000415296)
(0.115756 0.000133439 0.00019103)
(0.120292 6.11046e-06 -0.000179922)
(0.124338 0.000255603 -0.00113235)
(0.123407 0.000287276 -0.000721078)
(0.12274 -0.000166119 0.00065105)
(0.123729 7.37277e-05 2.61954e-05)
(0.120476 -0.000701053 0.000576941)
(0.123014 -0.000228577 0.000204866)
(0.121826 0.000138034 0.000254284)
(0.123018 0.000206664 -0.000191873)
(0.123466 -0.000444384 -0.000461109)
(0.114533 -0.000491335 -0.000300448)
(0.119949 -0.000338402 0.000230248)
(0.113341 -0.000208935 0.000210086)
(0.120145 0.000492091 0.000727966)
(0.119068 -0.00011418 -0.000672043)
(0.11569 -0.000351942 0.000691238)
(0.11473 -0.000507526 -0.000350148)
(0.121016 0.000358708 -0.000258307)
(0.122028 -0.000406481 -0.000202307)
(0.123582 -1.08211e-06 -0.000625415)
(0.116106 -0.000172762 0.00061496)
(0.122507 -0.00013524 5.17834e-05)
(0.120547 -6.05662e-05 0.000243152)
(0.120459 -0.00018962 -0.000468601)
(0.121981 2.2123e-05 -0.000612832)
(0.114548 -0.000114399 0.00195715)
(0.120454 -7.91997e-05 -0.000512299)
(0.11533 0.000118117 0.000350664)
(0.118822 -0.000448524 -0.000418895)
(0.122817 -0.000189951 4.39062e-06)
(0.125077 0.00132489 0.000374912)
(0.123171 0.000223783 -0.00102812)
(0.121607 0.000561623 -0.000696991)
(0.114153 0.000206856 0.00125786)
(0.122477 -0.000183517 0.000133156)
(0.121734 -9.8194e-05 -0.000473409)
(0.123039 -0.000210623 -0.000385145)
(0.114817 -8.88223e-06 -6.24169e-06)
(0.11719 -0.000159159 0.000529791)
(0.119449 0.00046355 0.000577681)
(0.117063 0.000410349 -0.000258608)
(0.113978 -0.000610138 -0.000155153)
(0.12299 -6.30277e-05 -0.000372116)
(0.116718 -9.20356e-05 5.95644e-05)
(0.119286 0.000832763 0.000180974)
(0.115606 -0.000424871 -0.000962368)
(0.122545 0.000336612 7.08521e-05)
(0.116217 9.92984e-05 -0.000293593)
(0.123904 -0.000156502 0.000584948)
(0.1226 0.00015252 -0.00043972)
(0.124025 -8.31057e-05 0.00052002)
(0.124157 -0.000115682 -0.000454127)
(0.11649 3.44163e-05 0.000217802)
(0.123223 9.64626e-05 0.000230611)
(0.124352 -0.000214032 -0.000102218)
(0.121565 -0.000432792 0.000376637)
(0.122513 0.000561224 -0.000193182)
(0.121686 -0.000461506 -0.000254513)
(0.123772 0.000416526 -0.00011867)
(0.122955 4.74505e-05 0.000413814)
(0.118839 6.23583e-05 -0.000427741)
(0.125126 -0.00018887 -7.93481e-05)
(0.124541 -0.000309186 -0.000225344)
(0.120996 -0.000236495 -0.000233209)
(0.120198 -0.000300546 -0.00080076)
(0.123778 -0.000396416 -0.000243087)
(0.121285 0.000327604 2.52998e-05)
(0.113991 0.000665399 -0.000235041)
(0.114158 0.00042194 -6.26627e-05)
(0.120509 2.15524e-05 0.000105754)
(0.123166 1.17236e-06 0.000173493)
(0.124498 -0.000201622 -0.000222983)
(0.11868 -0.00023221 -9.62045e-05)
(0.123462 0.000500459 0.000245315)
(0.12234 -4.74951e-05 0.000194235)
(0.123734 0.00098346 0.00082429)
(0.120956 -9.15431e-06 -0.000112323)
(0.120954 0.000507527 -0.00043273)
(0.121927 -0.00159836 0.000627272)
(0.115428 1.47966e-07 -0.000252605)
(0.120099 0.000165328 4.85455e-05)
(0.122005 2.48863e-05 -0.000284872)
(0.123904 1.77182e-05 -7.58123e-06)
(0.116839 -0.00021456 7.85936e-05)
(0.117622 0.000646771 -0.000711824)
(0.118578 -9.85765e-05 -0.000331113)
(0.118255 -0.000361047 -8.6317e-05)
(0.120377 -0.000175135 -0.000541936)
(0.115127 -0.000104719 -0.000394661)
(0.123224 0.00020719 -0.000877747)
(0.119504 4.95384e-05 -0.000272437)
(0.122474 0.000109175 0.00103602)
(0.1202 -0.000265995 -8.76495e-05)
(0.124437 -0.000242661 -0.000265807)
(0.121187 -0.000233405 -0.000886394)
(0.115337 0.000188541 0.000572767)
(0.121744 0.000821407 6.53195e-05)
(0.124636 -0.000251031 -0.000982488)
(0.116145 0.000375588 0.00113127)
(0.123498 -0.000142811 -0.000746176)
(0.125327 -0.000972404 -0.000615037)
(0.12114 -0.000244989 -4.52459e-05)
(0.119627 0.000240728 0.000136084)
(0.123475 9.07304e-05 -0.00100358)
(0.118669 -2.07336e-05 -2.92441e-05)
(0.120717 -0.00044358 5.14485e-05)
(0.120468 0.000168017 0.00027585)
(0.116166 -7.32602e-05 1.87046e-05)
(0.11659 -0.000151169 -0.00118147)
(0.119712 0.000209597 0.000455025)
(0.118804 0.000614573 0.000151478)
(0.123067 -0.000130066 -0.000307208)
(0.118493 -0.000411336 0.000303886)
(0.119997 0.000452674 0.000431971)
(0.124115 0.000195982 0.00035896)
(0.119664 0.000212112 -9.24104e-06)
(0.114558 0.000209273 0.000339576)
(0.118779 0.000312226 0.00017925)
(0.120776 0.000437628 -0.000287334)
(0.124467 -0.000190151 0.000260601)
(0.115195 0.000720383 0.000405935)
(0.115007 -0.000118162 0.000287523)
(0.124295 0.000318494 0.000911228)
(0.115338 0.00026195 1.34822e-05)
(0.121717 -4.80781e-05 -0.000107835)
(0.123168 0.000195093 -0.000252233)
(0.116767 -0.000158661 -0.00084015)
(0.120841 0.000121674 -0.000334746)
(0.123908 0.000501282 -0.000672032)
(0.1207 -2.02823e-05 0.000626208)
(0.113645 5.39958e-05 0.000201295)
(0.123485 0.000245198 -0.000130468)
(0.120764 -6.2346e-05 -0.00029876)
(0.114233 0.000530491 3.10951e-05)
(0.123872 0.000248577 -0.000207917)
(0.119128 -0.000141051 -0.000264811)
(0.119712 0.000532135 -0.000393137)
(0.122411 -7.71038e-05 -9.35899e-05)
(0.114519 0.000820048 -0.00045482)
(0.119633 -8.03299e-05 -0.00103444)
(0.119046 -0.000627186 1.41875e-05)
(0.120839 -6.04494e-07 -0.000490357)
(0.116718 -0.000113645 0.000434221)
(0.118423 -5.8817e-05 -9.81006e-05)
(0.122673 0.000489683 0.000456229)
(0.124842 -0.000850879 -0.000635081)
(0.125772 -0.000325002 6.82495e-06)
(0.124413 0.000490698 -0.000352736)
(0.123811 -0.000586097 -0.000210094)
(0.122791 0.000102426 -0.00129469)
(0.118105 -0.000244126 0.000418388)
(0.125055 0.00017081 -0.00104691)
(0.122926 -7.4858e-05 -3.11042e-05)
(0.122075 0.000566944 0.000141643)
(0.116934 0.000841151 -0.000353165)
(0.121244 -0.000157631 -0.000218246)
(0.122191 0.000449428 0.000591816)
(0.125575 0.000911233 3.53546e-05)
(0.115196 -7.09272e-05 0.000302115)
(0.114025 -0.000479969 0.000394957)
(0.123808 0.000164189 -0.000626303)
(0.11879 -3.26722e-05 -0.000344857)
(0.123846 7.81152e-05 -4.06065e-05)
(0.119395 0.000103603 -0.000470567)
(0.116742 -0.000286815 -0.000819082)
(0.121958 -6.77706e-05 -0.000882382)
(0.123655 0.000369308 -7.53192e-05)
(0.121438 0.000264094 0.000121839)
(0.123112 0.000954963 -0.000322484)
(0.115893 3.60016e-05 -0.00171303)
(0.123232 0.00103078 0.000331947)
(0.122906 -0.00027016 -0.000502503)
(0.114503 0.000364547 -5.11598e-05)
(0.122689 -0.000211898 -0.000538217)
(0.122497 -0.000230475 7.92069e-06)
(0.120988 2.59995e-05 0.00146585)
(0.116162 -0.000603511 -0.000905814)
(0.114915 0.000292561 -0.000790716)
(0.120228 0.000314327 -0.000301405)
(0.120271 -2.39085e-06 0.000946108)
(0.120912 -0.000177316 0.000187015)
(0.120191 0.000546077 0.000163219)
(0.119634 0.000490214 0.000724784)
(0.123423 0.000110055 5.42086e-05)
(0.12112 -9.83745e-05 0.000229302)
(0.12139 0.000397671 0.00026969)
(0.116945 -0.000279673 0.000685896)
(0.124373 -7.9098e-05 -0.000996196)
(0.115515 -0.000219912 1.99451e-05)
(0.120695 0.000702506 -1.18124e-05)
(0.120181 0.000334525 -9.12024e-05)
(0.120422 -0.000808625 -0.000698593)
(0.122041 0.000484229 4.19515e-05)
(0.118741 -0.000160095 -0.000451148)
(0.115972 -0.000833145 -0.000518278)
(0.114703 -0.000193072 -0.000542993)
(0.116152 -0.000318133 -0.000271668)
(0.120219 -0.000519599 -0.000374292)
(0.122595 0.000678807 0.000232134)
(0.115367 0.000460803 0.00181671)
(0.123141 -0.000172582 -6.64226e-05)
(0.120652 -5.83535e-06 -0.00077516)
(0.124008 -0.000390307 -0.00040283)
(0.115223 1.70097e-05 -0.000754076)
(0.11867 0.000393641 0.000551709)
(0.122811 0.000234515 -0.000823427)
(0.124213 -0.000886998 -4.58233e-05)
(0.122709 0.000369493 -0.000402272)
(0.123762 -0.000230322 -0.000270977)
(0.121204 0.000134595 0.000176871)
(0.120403 0.00050958 0.000170123)
(0.124457 -1.63904e-05 0.00027918)
(0.124158 0.00040905 -1.79374e-05)
(0.124089 0.0002759 0.000104501)
(0.117245 0.000984244 -0.000456786)
(0.124111 -0.000826391 -0.000740232)
(0.114723 -0.000313316 0.000435267)
(0.124261 0.000700244 5.79605e-05)
(0.121492 0.000133261 -0.000193945)
(0.120229 0.000138737 -0.000562404)
(0.116059 0.00087148 -4.96962e-06)
(0.120428 0.00115138 -0.000767164)
(0.113428 -0.000789361 -0.000711307)
(0.123178 0.000253883 -0.000586808)
(0.120794 0.000139969 -0.000265749)
(0.123435 -0.000180406 -0.000253164)
(0.119702 0.00037407 -0.000272374)
(0.119415 0.00120317 -0.000341664)
(0.115364 -0.000311103 0.000724569)
(0.124772 0.000253009 -8.41601e-05)
(0.116721 -0.000561965 0.000271849)
(0.113843 -0.000291579 -0.000332321)
(0.116526 -0.000216456 3.93522e-05)
(0.116879 0.000357022 0.000159021)
(0.116132 0.000749363 -0.000112245)
(0.120582 -0.000328741 0.000104873)
(0.115562 0.000122708 -8.97885e-05)
(0.122239 -0.00115806 0.000483842)
(0.122842 1.5848e-05 -0.000463075)
(0.113774 -7.81494e-05 -5.03955e-05)
(0.122381 0.000316893 -0.000146398)
(0.115868 0.000338802 -0.000756494)
(0.119993 0.000676848 -0.000170414)
(0.120864 0.000332999 -0.000156568)
(0.1205 -0.000271388 -0.000978881)
(0.122939 0.000121576 -9.1275e-05)
(0.124882 0.000267089 -0.000873487)
(0.123035 -5.00144e-05 0.000339081)
(0.122173 4.9058e-05 -0.000104942)
(0.121854 -0.000202654 -0.00114799)
(0.122611 0.000363854 0.000182823)
(0.119716 0.000339773 3.375e-06)
(0.120206 0.000408605 0.000177322)
(0.114408 0.00057763 -0.000865489)
(0.110935 0.000845196 0.00355827)
(0.123609 5.44179e-05 6.92684e-05)
(0.120576 7.19208e-05 -0.000224914)
(0.122879 -0.000297035 -0.000132085)
(0.122756 -6.48045e-05 0.000228187)
(0.114837 -0.000553615 -5.68679e-05)
(0.123574 -0.000132546 -0.000313775)
(0.123926 0.000581963 8.7631e-05)
(0.123611 5.44967e-05 0.000141941)
(0.123567 0.000291277 0.000488408)
(0.12198 0.000367424 0.000441008)
(0.121496 -0.000548407 -0.000211415)
(0.123551 -6.8543e-05 9.94976e-05)
(0.124402 -0.000160143 0.000539496)
(0.12171 0.000339841 0.000337095)
(0.123974 0.000277891 -0.000233263)
(0.12338 -0.000373121 -0.000446258)
(0.117366 -0.000333743 -0.000479715)
(0.123555 -0.000141934 0.000267103)
(0.117901 -0.000158306 0.000536512)
(0.120906 9.8508e-05 -0.000132324)
(0.120901 -0.000877031 6.94086e-05)
(0.120298 -0.000500839 0.000217662)
(0.119853 0.000678263 9.08634e-05)
(0.122689 0.000403985 -7.7576e-05)
(0.120082 0.000215275 0.000208223)
(0.121415 0.000501863 -0.000555911)
(0.119938 0.00121061 -0.000637883)
(0.11478 0.00128286 -0.000891025)
(0.12479 0.000473526 -0.000342543)
(0.122666 0.00064158 -0.000166417)
(0.119642 1.44165e-05 0.00074067)
(0.115401 -0.000441931 -4.89319e-06)
(0.122934 -0.000364528 -7.33767e-05)
(0.114959 -0.00059463 -0.000568564)
(0.123802 -0.00033391 8.72693e-05)
(0.123224 -8.17538e-05 0.000326138)
(0.119295 0.00120398 -0.000546732)
(0.122743 -0.000355913 0.000172009)
(0.124266 0.000115259 -0.000454423)
(0.121594 -0.000477351 -0.000172568)
(0.114564 -9.76159e-05 0.000240912)
(0.120037 6.71968e-05 0.000185497)
(0.117689 0.000650801 -0.00044639)
(0.120554 0.000178088 -0.000225311)
(0.114934 -0.000499862 -0.000931486)
(0.122422 -0.000122451 -0.00036346)
(0.122928 -0.000484468 0.000618848)
(0.118363 0.000741222 -0.000757985)
(0.12041 0.000115417 5.01245e-05)
(0.117641 0.000103711 -0.000432422)
(0.123205 3.2311e-05 -0.000435627)
(0.119784 -0.000713382 0.000115196)
(0.120746 0.000455952 0.000515554)
(0.11545 -0.00019263 5.34161e-05)
(0.123432 1.38046e-06 1.93424e-05)
(0.121692 -0.000354803 -0.000148001)
(0.123621 7.29642e-06 -0.000143122)
(0.118013 0.000522896 -0.000361308)
(0.120453 -5.70417e-05 -0.000326069)
(0.121465 0.000117574 -0.000315977)
(0.119288 -0.000165181 0.000239066)
(0.12147 -6.79009e-05 0.000319331)
(0.120948 -0.000264192 0.000585929)
(0.123127 -0.000417585 0.000114698)
(0.12057 -0.000191396 -0.000115414)
(0.115991 2.04359e-06 -0.00020234)
(0.114036 -0.000167663 -0.000681607)
(0.122073 -0.000703572 0.000139996)
(0.114894 0.000527907 -0.00118399)
(0.118712 -0.000703789 -0.00139777)
(0.120594 0.000265116 -0.000257894)
(0.120734 0.000309645 0.000124651)
(0.124264 0.000472039 -0.00033896)
(0.114759 2.15124e-05 -2.71243e-05)
(0.120066 -0.000118017 -0.000710769)
(0.124685 0.00010763 -0.000442218)
(0.116222 0.000822209 -0.00277662)
(0.116418 0.00136424 7.51106e-05)
(0.119804 0.000121293 -0.000814564)
(0.116316 5.77734e-05 1.49747e-05)
(0.122261 0.00079465 -0.000868743)
(0.116543 -0.000330556 8.43746e-05)
(0.124127 -0.000818782 -0.000351808)
(0.118218 0.000256834 0.000490355)
(0.119416 0.000525438 0.000500929)
(0.125116 0.00044626 0.000873908)
(0.11399 -0.000148323 0.000531532)
(0.118589 0.000101943 0.000382296)
(0.118604 2.36233e-05 0.000564695)
(0.123525 -4.98779e-05 -0.000763293)
(0.123673 4.79433e-05 0.000312179)
(0.123632 4.96305e-05 -0.000143403)
(0.115645 0.000731785 0.000326082)
(0.122423 0.000140317 -0.000320566)
(0.123303 0.000101216 0.000975139)
(0.118456 -0.000163333 -0.000215654)
(0.123481 0.000392311 -0.000111339)
(0.122883 0.000408399 0.000210955)
(0.122743 0.000383741 -4.54876e-06)
(0.123953 1.24683e-05 -0.000634108)
(0.120611 6.65357e-05 -0.000154416)
(0.124948 -1.96894e-05 0.000412777)
(0.124336 0.000721486 0.000837304)
(0.123727 8.78535e-05 -0.000593236)
(0.1215 0.000501051 0.000295554)
(0.119765 -0.000263742 -0.00033524)
(0.12077 0.000418267 8.82465e-05)
(0.120443 0.000171216 -0.00033137)
(0.114377 -0.000906765 -0.00027961)
(0.119487 -0.000372568 9.38889e-05)
(0.121632 -0.000279989 0.000461882)
(0.123516 -0.000302458 -0.000294569)
(0.124144 -0.000276285 -0.000730638)
(0.119799 -0.000455437 7.35031e-06)
(0.124869 0.00118173 -0.000214631)
(0.122624 -6.29135e-05 -5.16682e-05)
(0.118705 -0.000690801 0.000534475)
(0.12308 -0.000133038 -0.0004108)
(0.123677 1.25515e-05 -0.000220297)
(0.122279 8.32196e-05 -0.000582968)