/*--------------------------------*- C++ -*----------------------------------*\
| =========                 |                                                 |
| \\      /  F ield         | OpenFOAM: The Open Source CFD Toolbox           |
|  \\    /   O peration     | Version:  2212                                  |
|   \\  /    A nd           | Website:  www.openfoam.com                      |
|    \\/     M anipulation  |                                                 |
\*---------------------------------------------------------------------------*/
FoamFile
{
    version     2.0;
    format      ascii;
    arch        "LSB;label=32;scalar=64";
    class       surfaceVectorField;
    location    "0.046";
    object      Uf;
}
// * * * * * * * * * * * * * * * * * * * * * * * * * * * * * * * * * * * * * //

dimensions      [0 1 -1 0 0 0 0];

internalField   nonuniform List<vector> 
68568
(
(0.122141 0.000215402 -0.000139568)
(0.121392 0.000560365 -0.000197878)
(0.121084 0.000364489 -3.07342e-05)
(0.123651 0.000789304 -0.00036905)
(0.121362 -0.000434177 -0.000243265)
(0.121331 -0.00049391 -0.000483551)
(0.120112 -0.000442823 1.8721e-05)
(0.114047 -0.000225364 -0.000240367)
(0.122728 0.000208969 0.000319907)
(0.122448 -0.000492934 0.000758056)
(0.121015 -0.000268491 0.000153794)
(0.11727 -0.000653724 0.00078666)
(0.124901 -0.000197167 -0.000222145)
(0.123749 -6.33894e-05 -0.000447748)
(0.124732 -0.000132256 -0.000333952)
(0.125078 -0.000218262 -0.000352695)
(0.119552 -0.000219479 -0.000268601)
(0.122476 -0.000504505 -0.000315313)
(0.118926 -0.000230564 -0.000323043)
(0.122092 -0.000500171 -0.000361654)
(0.121996 -0.000167426 -2.27974e-05)
(0.120537 -9.55064e-05 0.000143963)
(0.122195 -0.000103436 0.000161281)
(0.115449 -0.00010671 -0.000278904)
(0.121041 -4.64887e-05 -0.000171157)
(0.116423 -0.00019776 0.000163895)
(0.118283 9.31622e-05 -0.000455821)
(0.121121 -7.2546e-05 -0.000239259)
(0.120965 0.000253772 0.000465367)
(0.123225 0.000129572 5.79649e-05)
(0.121938 -5.25472e-05 -7.30778e-07)
(0.122373 -0.000168139 -0.000369401)
(0.12114 0.000105206 -0.000272622)
(0.121201 0.000296491 -0.000624239)
(0.123168 -0.00025942 -9.18853e-05)
(0.121904 -0.000553743 -0.000359998)
(0.123678 -0.000139175 -0.000582913)
(0.123867 -0.000528189 -0.0004221)
(0.123967 0.000463313 5.76498e-05)
(0.122691 0.000301825 -5.21158e-05)
(0.12381 0.000274157 -7.58137e-05)
(0.120116 -0.000134154 -0.000529342)
(0.124201 -0.000458639 -0.000756122)
(0.123761 -0.000579037 -0.000676751)
(0.121427 -0.000258811 5.31772e-05)
(0.12036 -0.000469785 -2.30172e-05)
(0.114531 -3.16996e-06 -0.000341216)
(0.123688 -0.000172321 -0.000132548)
(0.123556 -0.000156606 0.000273978)
(0.122665 -0.000177764 0.000187324)
(0.120756 -8.87039e-05 0.000183863)
(0.119093 -0.000322998 -5.68529e-06)
(0.120808 -0.000283274 -0.000129237)
(0.120079 -0.000253925 -2.61225e-05)
(0.11406 -0.000303166 -5.55328e-05)
(0.121233 -0.000446635 0.000818327)
(0.116571 -0.000385303 0.000535872)
(0.118347 -0.000405534 0.000758965)
(0.121538 -0.000329767 0.000292371)
(0.120587 0.000184264 0.000248867)
(0.121525 0.000344551 0.000266506)
(0.121063 0.000279393 0.00019562)
(0.122635 9.91841e-05 0.000159487)
(0.116776 0.000428606 0.000451535)
(0.116921 -0.000326056 0.000701963)
(0.120778 -5.92616e-05 0.000262057)
(0.121011 -1.55306e-06 -0.000602362)
(0.118448 -0.000413351 -3.91132e-05)
(0.117174 7.1486e-05 -0.000703567)
(0.121471 -0.000229341 -0.00035059)
(0.12117 8.49241e-06 -0.000155647)
(0.122666 -0.000312937 -6.15517e-05)
(0.122224 -0.000487661 2.24771e-05)
(0.116659 -0.000134237 -7.04519e-05)
(0.116135 -0.000189441 -0.000378363)
(0.117859 6.56296e-05 -0.000320224)
(0.116485 0.000269012 -0.000328717)
(0.106007 -0.000149918 -0.000469925)
(0.122748 -0.000467716 -0.000563174)
(0.124226 -0.000226731 -0.000645575)
(0.123279 -0.000334109 -0.000643579)
(0.123729 -0.000368059 -0.000750723)
(0.123191 0.000379244 -0.000235736)
(0.123267 0.000462247 -0.000117876)
(0.120943 0.000490312 9.24169e-07)
(0.124021 0.000557556 -0.000264582)
(0.117942 0.000293061 -0.0002792)
(0.118344 -0.000123508 -0.000271476)
(0.121019 0.000180353 -0.000415827)
(0.121472 4.99118e-05 -7.20632e-05)
(0.115793 -4.59461e-05 7.04775e-05)
(0.120088 -0.000147381 -9.08026e-05)
(0.117694 0.000227441 -0.000483217)
(0.120139 -0.000139029 0.000245774)
(0.120747 -3.6004e-05 -7.79802e-05)
(0.120767 -0.000445232 0.000170817)
(0.122872 -0.000309081 0.000757564)
(0.120879 -9.61703e-05 -0.000291656)
(0.12229 -0.000178928 -0.000167079)
(0.116284 -0.00013067 0.000271066)
(0.123487 0.000931024 0.000394687)
(0.121182 0.001108 -0.000274967)
(0.123196 0.00111522 0.000201884)
(0.121459 0.000785397 -0.000672536)
(0.121942 0.000171404 0.00045542)
(0.115835 0.0004304 -0.000251049)
(0.117705 0.000474492 0.000159794)
(0.123673 5.86347e-05 0.000344744)
(0.122786 -0.000131035 0.000312535)
(0.123736 -3.53259e-05 0.000340121)
(0.124291 -0.000295948 -0.00019674)
(0.122486 -6.0456e-05 7.44843e-06)
(0.124438 -0.000237539 -0.000142237)
(0.121944 -0.000143161 -0.000177287)
(0.120581 -0.00019987 -0.000190617)
(0.120635 -8.7366e-05 -0.000320738)
(0.117001 0.000354172 -1.181e-05)
(0.116509 -0.00028401 0.000334828)
(0.123274 0.000282869 -0.000476849)
(0.122559 3.71164e-05 -0.00028939)
(0.123479 1.35509e-05 -0.000432803)
(0.123847 3.092e-06 -0.000289771)
(0.118087 -0.000127327 -0.000229297)
(0.11691 -0.000258294 0.000120111)
(0.121437 -0.000201072 4.63229e-05)
(0.121611 -1.19336e-05 0.000139911)
(0.11821 0.000364621 0.000274203)
(0.115901 0.000234375 0.000248804)
(0.115853 0.000119305 -7.8029e-05)
(0.106865 9.82396e-05 0.000244253)
(0.1237 0.00046211 -8.96699e-05)
(0.115667 -2.58799e-05 -8.84902e-05)
(0.115898 -0.000493308 -0.000234511)
(0.11348 -0.000268781 6.11717e-05)
(0.106198 -0.000313958 -5.75048e-05)
(0.124245 -0.000484169 0.000285415)
(0.124245 -0.000637734 0.000157325)
(0.124415 -0.000225566 0.000425176)
(0.123702 -0.000594887 0.000282236)
(0.122086 -0.000323796 0.000328842)
(0.122153 -0.000354345 0.00054935)
(0.123717 -0.000401392 0.000595783)
(0.114505 0.000539891 -0.000478257)
(0.115804 -0.000318019 -5.84999e-05)
(0.107171 5.49881e-05 -0.000129822)
(0.119353 -8.13379e-05 -9.8476e-05)
(0.116736 -0.000103754 -0.000388504)
(0.107305 0.000140614 -0.000489818)
(0.11764 -0.000242366 9.16283e-05)
(0.117661 -0.000528099 -0.000138718)
(0.118681 -0.000455549 -0.000126841)
(0.106542 -0.000349996 9.4297e-05)
(0.123454 -0.000212765 0.000161569)
(0.121341 -0.000196567 5.09564e-05)
(0.122836 -0.000317443 -0.000509187)
(0.123886 -0.000849646 -0.000457126)
(0.122554 -0.000784193 -0.000779626)
(0.124059 -0.000560733 -0.000907429)
(0.123234 -0.000582543 0.000629078)
(0.123663 -0.000748574 0.000237613)
(0.123014 -0.000323873 0.000319616)
(0.124421 -0.00065662 -0.000242863)
(0.123001 -0.000729063 -3.65809e-05)
(0.122373 -0.000435036 -0.000358176)
(0.124325 -0.000297949 -0.000504464)
(0.120205 1.07908e-05 -0.000356741)
(0.118378 0.000540387 -0.000517821)
(0.112978 -3.71712e-05 -0.000354854)
(0.121778 0.000362857 -0.000468055)
(0.12211 2.25671e-05 -0.000338041)
(0.119463 0.000225428 -0.000748425)
(0.118064 0.000120448 -0.000250443)
(0.120322 -0.000227325 0.000222464)
(0.120058 -2.39855e-05 4.57086e-05)
(0.122282 -1.04148e-05 -0.000270757)
(0.12115 -0.000226303 0.000123756)
(0.123599 -0.000137808 -0.000356984)
(0.122336 -0.00030479 -0.000552821)
(0.122571 3.26944e-05 -0.000461147)
(0.124298 0.000115869 -0.000855523)
(0.124739 -0.000131395 -0.000421964)
(0.118275 -0.000273666 -0.000589003)
(0.115897 1.85301e-05 -0.000282137)
(0.116667 -2.89545e-06 -0.000184556)
(0.105643 7.00788e-06 -0.000352933)
(0.122786 0.000715504 0.000205052)
(0.122015 0.000579417 0.000282218)
(0.123601 0.000662588 0.00023345)
(0.123178 0.000479448 0.000164089)
(0.115119 -0.000455844 0.000123764)
(0.10675 -0.000168074 0.000404114)
(0.119143 -0.000201559 -0.000267557)
(0.118994 -0.000459434 -9.19849e-06)
(0.122291 -0.000255216 -0.000292108)
(0.122335 -0.000369199 -7.60974e-05)
(0.119677 0.000246478 0.000209831)
(0.120304 0.000123407 0.000167362)
(0.122279 -0.000110549 -2.57675e-05)
(0.11776 -8.39124e-05 -0.00072268)
(0.116385 -8.65568e-05 -0.000338388)
(0.117981 9.02906e-05 -0.000155417)
(0.106628 0.000348902 -0.000269064)
(0.122651 0.0001252 0.000457642)
(0.122184 -0.000220623 0.000116292)
(0.121045 -8.2178e-06 0.000421092)
(0.116602 1.76662e-05 0.000353628)
(0.122317 -0.000274185 0.000171648)
(0.120958 7.42191e-05 0.000469279)
(0.122297 -6.66342e-05 -4.49473e-06)
(0.115573 7.74949e-05 0.0002613)
(0.115668 2.37511e-05 -0.000150384)
(0.115838 0.000500506 -0.000161139)
(0.107561 0.000182177 -0.000134179)
(0.12122 -0.000497126 -0.000550927)
(0.120895 -4.42465e-05 -0.000381364)
(0.121147 -0.000162545 -0.0002223)
(0.123092 0.000365389 9.7939e-05)
(0.121709 0.000432048 0.00018128)
(0.123868 0.000134133 -0.000145117)
(0.122381 0.000239598 -0.000203075)
(0.12094 -0.000169687 -0.0004027)
(0.118126 -0.000254135 -0.000529252)
(0.118193 -0.000243961 -0.000286145)
(0.10752 -0.000328522 -0.000200633)
(0.122197 -0.000132602 -0.000143195)
(0.122292 9.8132e-06 6.00039e-05)
(0.114911 -4.77073e-06 -0.000253322)
(0.12065 0.000139586 3.02792e-05)
(0.120969 0.000410624 0.000178634)
(0.122541 0.000467811 0.000237822)
(0.121113 0.000431768 0.00034275)
(0.124234 -0.000151464 -0.000595791)
(0.124534 -0.000221114 -0.000490122)
(0.124426 -0.000352804 -0.000420421)
(0.123872 -0.000248438 -0.000353451)
(0.120292 0.000265832 -0.0010599)
(0.122589 0.000146995 -0.000909609)
(0.123253 -0.00029921 -0.000735496)
(0.120691 -0.000460791 4.28517e-05)
(0.122091 -0.00029448 3.37788e-05)
(0.120649 -0.000140321 0.00022359)
(0.115844 -5.83576e-05 -0.000232507)
(0.118088 -0.000946461 -0.000511012)
(0.11868 0.000279506 -0.000416426)
(0.106678 -6.27258e-05 -0.000480232)
(0.124119 0.000283434 6.24688e-05)
(0.1245 0.000218691 -0.000307384)
(0.124117 2.02526e-05 -9.38954e-05)
(0.12469 6.28829e-05 -0.000451185)
(0.123193 0.000311397 9.35778e-05)
(0.121078 0.000299421 0.000179275)
(0.122337 0.00010739 0.00018341)
(0.122315 0.00019059 -0.000116445)
(0.118218 7.4973e-05 -0.00114646)
(0.117653 0.000229549 -0.000522534)
(0.119325 8.18433e-05 -0.000843899)
(0.109865 -0.00063522 -0.00083083)
(0.121386 -0.000282213 -0.000660801)
(0.121471 -0.000320823 -0.000876855)
(0.123527 -0.000310835 -0.000487854)
(0.123183 -0.000274162 -0.000620829)
(0.122723 -0.000259861 -0.000208168)
(0.121047 -0.0003695 -0.000365306)
(0.121046 5.89858e-06 -9.86171e-05)
(0.116166 5.60407e-05 -0.000592739)
(0.122946 0.000662402 0.000305857)
(0.122393 0.000695056 5.01005e-05)
(0.121248 0.000453566 -0.000109759)
(0.11598 1.47512e-05 -0.000635745)
(0.115504 0.000164267 -0.000412938)
(0.117357 0.000357557 -0.000648773)
(0.105974 0.000406162 -0.000165436)
(0.123304 -0.000569796 -0.000117088)
(0.122957 -0.000594175 0.000142427)
(0.124459 -0.000496542 6.36078e-05)
(0.118666 0.00104738 -0.000619875)
(0.122077 1.2464e-05 -0.000437787)
(0.121528 0.000138087 -0.000455423)
(0.120633 -0.000293309 0.000503493)
(0.121106 -2.34077e-05 0.000250742)
(0.121568 2.47411e-05 0.000349357)
(0.114898 -0.000136577 0.00034979)
(0.118097 -0.000218457 -0.000136187)
(0.123193 -2.57258e-05 6.98045e-05)
(0.121005 0.000237293 7.4508e-05)
(0.123151 0.000432325 -9.6218e-05)
(0.116301 0.00031806 -0.00033708)
(0.120276 -0.00016595 -0.000123537)
(0.120542 -6.449e-05 1.8929e-07)
(0.113207 -0.000131666 -0.000322163)
(0.114324 -7.00056e-05 0.000255023)
(0.11395 -0.000358004 9.69414e-05)
(0.106659 -0.00021899 0.000116937)
(0.124374 -6.22346e-05 0.000210582)
(0.122421 -0.000126574 -0.000110927)
(0.124294 -0.000321375 0.000176944)
(0.123445 -0.000545672 0.000218927)
(0.123256 -0.000479756 -0.000306729)
(0.122808 -2.9341e-05 -0.000168685)
(0.122624 -9.21112e-05 -0.000302539)
(0.115424 -0.000159897 1.68257e-05)
(0.120299 -0.000294806 -0.000101934)
(0.122385 -0.000316579 -0.000117076)
(0.122835 -0.000140397 -0.000178048)
(0.120287 1.1718e-05 0.000126526)
(0.124206 -0.000196448 -0.000145738)
(0.122186 -0.000145004 -0.000295907)
(0.122402 4.05218e-05 2.974e-05)
(0.124184 -0.000271637 -5.3396e-05)
(0.124239 -2.82814e-06 0.000196549)
(0.123762 -0.000198765 2.6357e-05)
(0.124538 -0.00017333 -0.00016402)
(0.122545 -0.00016582 -0.000279597)
(0.122275 -0.000283417 -0.00048327)
(0.124134 -0.000113613 -0.000632048)
(0.115877 0.00136762 -0.000959401)
(0.119103 0.000153054 -0.00136543)
(0.118023 0.000563078 -0.000891235)
(0.104423 7.47281e-05 -0.000375921)
(0.122884 -0.000163106 -0.000262108)
(0.122916 -0.000259772 -0.000328781)
(0.124239 -0.000203479 -0.000562805)
(0.121443 -0.000287068 0.000194089)
(0.123127 -0.00022392 5.43058e-05)
(0.11535 -0.000106322 -9.89787e-05)
(0.118411 -0.000277599 1.51779e-05)
(0.117944 -2.62824e-05 4.16804e-05)
(0.121379 -0.000316314 0.000262031)
(0.121182 -0.000370565 -9.25165e-05)
(0.117371 -0.00039395 -0.00101136)
(0.117962 -0.000561372 -0.000169265)
(0.105845 -0.000391602 -0.000186481)
(0.118773 0.000524191 -0.000838735)
(0.12064 0.000280637 -0.000974525)
(0.113998 -0.000277719 -0.000499062)
(0.117324 -0.000595734 -8.62856e-05)
(0.12065 -0.000680619 -0.000173858)
(0.116885 -0.00045403 -0.000440182)
(0.120439 -0.000467564 -0.000238562)
(0.121709 0.000454094 0.000156753)
(0.12149 0.000780268 8.36404e-06)
(0.119656 0.00106793 0.000546948)
(0.116027 0.0005596 0.000390543)
(0.119899 0.000274862 -0.000267769)
(0.1208 -7.2735e-05 -0.000289777)
(0.122905 0.000225435 -0.000130613)
(0.123232 -0.000269587 -8.26722e-05)
(0.122808 -0.000224111 -1.73751e-05)
(0.11517 -0.000209636 9.85942e-07)
(0.120431 8.38834e-05 0.00034587)
(0.119945 0.000378423 0.000285039)
(0.121489 7.41713e-05 0.000279113)
(0.114714 5.90258e-05 -0.000146346)
(0.117015 -0.000937895 0.000150607)
(0.117499 -0.000410556 -2.45684e-05)
(0.116388 -0.00111601 -0.000364977)
(0.106202 -0.000770392 0.000183555)
(0.12225 0.00037446 0.000243394)
(0.122447 1.27419e-05 0.000209764)
(0.120446 0.000304334 -0.000225358)
(0.122633 -3.74447e-05 -0.000166643)
(0.122266 0.000146029 0.000252567)
(0.120613 -0.000103795 0.000442423)
(0.120409 0.000540583 0.000343942)
(0.118889 -0.000398175 -0.000425425)
(0.114289 -1.32446e-05 -0.000165213)
(0.115798 -3.95938e-05 -0.000228885)
(0.11766 -0.000363549 -0.000318999)
(0.116739 0.000134702 -0.000358462)
(0.10658 -4.60693e-05 8.13521e-05)
(0.118219 -5.6489e-05 -0.000288058)
(0.106105 -2.87777e-05 -0.000321093)
(0.122634 -0.000426597 -2.3966e-05)
(0.124549 -0.000210028 0.00027342)
(0.124646 -0.000303527 -0.000101599)
(0.107754 1.33092e-05 0.000236545)
(0.116646 -0.000685054 -0.000728073)
(0.117831 -0.000527947 -0.000307255)
(0.117337 -0.000915921 -0.000695106)
(0.105527 -0.000411232 -0.000989888)
(0.116455 0.00063242 -0.000204841)
(0.120034 0.000406336 -9.50474e-05)
(0.115768 -0.000421233 0.000712009)
(0.114569 -6.10792e-05 0.000338471)
(0.116502 0.000186432 0.000698756)
(0.106298 -0.00035232 0.000325183)
(0.122924 -0.00114442 0.000345161)
(0.120513 -0.00117544 0.000613667)
(0.120921 -0.0010521 0.000463074)
(0.122917 -0.00109023 0.00020201)
(0.119485 -0.000355961 -0.000659128)
(0.118327 -0.000313 -0.000261988)
(0.117471 -0.000161131 -0.000264405)
(0.105925 0.00013066 -0.000291627)
(0.122023 0.000379938 -8.19991e-05)
(0.120982 0.000261486 -0.000129694)
(0.121574 -0.000396808 -9.80198e-05)
(0.116579 0.000165584 -0.000328198)
(0.118304 -0.000487167 -0.000474393)
(0.118237 -0.000494731 -0.000625098)
(0.121143 -0.000552336 -0.000604991)
(0.122162 8.13384e-05 -0.000683565)
(0.121959 0.000158689 -0.000691735)
(0.120859 0.000100747 -0.000665994)
(0.114598 0.000419153 -0.000789913)
(0.117378 -8.90033e-05 5.98561e-05)
(0.115574 -0.000444981 8.91841e-05)
(0.116572 -0.000593597 0.000446741)
(0.106086 -0.000447038 -4.45649e-05)
(0.122034 0.000575356 0.000333817)
(0.117989 0.000461759 -0.000283496)
(0.117788 -0.000252295 -4.73297e-05)
(0.121661 -0.00078956 -0.000104335)
(0.117935 -0.000536823 -7.65686e-06)
(0.121424 -0.000689217 0.000242225)
(0.12256 0.000141294 0.00021098)
(0.121812 7.76725e-05 -1.9875e-06)
(0.122455 7.44417e-05 -4.2936e-05)
(0.121927 6.82957e-05 0.000195109)
(0.122087 -0.000295019 -6.03835e-05)
(0.115685 -0.000307398 6.35589e-05)
(0.121123 -0.000376865 -0.000282796)
(0.121588 -4.66144e-05 -0.000512429)
(0.122945 3.32466e-05 -0.000288494)
(0.121028 -0.000233364 -0.000138923)
(0.121525 -0.000321491 0.000289118)
(0.123266 -0.000160665 0.000147552)
(0.123994 -0.000333119 0.000102246)
(0.122064 -3.77537e-05 -0.000593012)
(0.121967 -8.09668e-05 -0.000498737)
(0.12425 -3.74105e-06 -0.000627029)
(0.120875 0.000247385 -0.000497976)
(0.122702 0.000183303 -0.000354664)
(0.123059 -0.000202125 -0.000703002)
(0.119305 -0.000795104 -0.000242318)
(0.12388 8.93205e-05 -0.000646471)
(0.12161 -0.000472587 0.000274709)
(0.123306 8.29644e-05 0.000427764)
(0.123192 -8.45188e-05 0.000182376)
(0.123342 -0.000341598 0.000194335)
(0.121368 8.74678e-05 0.000162921)
(0.122178 -0.00016774 0.000293665)
(0.114546 -3.88664e-05 9.50832e-05)
(0.116491 -0.00010907 -0.000588774)
(0.116553 -0.000336683 -0.000274995)
(0.117187 -0.00071456 -0.000354305)
(0.120481 -0.000638882 -0.000405218)
(0.120995 -0.000510793 -0.000418532)
(0.121625 -0.000387734 0.000203346)
(0.121363 -0.000317575 -1.06931e-05)
(0.123746 -0.00023803 -0.000280652)
(0.123718 -0.000225231 5.82276e-05)
(0.122883 1.79962e-05 -0.000220192)
(0.121331 -0.000223571 -0.000400763)
(0.120916 0.000212563 -0.000114918)
(0.122846 0.000363319 1.24046e-05)
(0.122557 0.000297358 -0.000431246)
(0.124014 -4.20035e-05 -0.000727679)
(0.123085 7.40081e-05 -0.000260709)
(0.123908 -0.000178868 -0.00065094)
(0.122665 -0.000494218 -6.00587e-05)
(0.121623 -0.000304238 -4.91388e-05)
(0.120357 -0.000969402 0.000182389)
(0.123101 -0.00070501 7.1169e-05)
(0.122542 -0.000165021 7.25248e-05)
(0.118964 -0.000176622 -0.000335586)
(0.123346 -0.000185353 9.57437e-06)
(0.118796 6.73473e-05 -0.000686857)
(0.123503 -5.74168e-05 -7.72867e-06)
(0.124279 -0.000206913 -0.000408045)
(0.123125 -3.89231e-05 -0.000243255)
(0.122646 -3.34081e-05 0.000307463)
(0.114929 -1.20971e-05 -9.33309e-05)
(0.115945 -0.000238511 -0.000427989)
(0.107452 -0.000104449 -0.000268317)
(0.116516 -0.000619329 -0.000897414)
(0.105987 -0.000298632 -0.000230628)
(0.124231 0.000204012 0.000731872)
(0.122148 0.000220422 0.000217564)
(0.12084 -0.000543911 -0.000468583)
(0.114881 -0.000347615 -0.00035525)
(0.122263 -0.000199289 -0.000797053)
(0.12196 -0.000212408 -0.000599077)
(0.12068 -0.000349651 -0.000317979)
(0.114355 -0.00033056 -0.000413978)
(0.12386 0.000316921 0.000707361)
(0.123908 0.000119748 0.000739808)
(0.124029 0.000195438 0.000633858)
(0.123057 0.000350249 0.000694922)
(0.122067 0.000614525 0.000340242)
(0.122209 0.000336297 0.000245288)
(0.123538 0.000414997 0.00029334)
(0.115637 -0.000235003 -0.000407335)
(0.117471 -9.86853e-05 -0.00022827)
(0.105616 -0.000350481 -0.000425869)
(0.118387 0.000262094 -0.000342071)
(0.117114 -0.000103266 -0.0002663)
(0.116446 0.000305106 -0.000337827)
(0.106529 -5.46996e-05 -0.000701729)
(0.123597 -0.000124284 9.10044e-05)
(0.12204 -0.000269235 -0.000400144)
(0.123623 -0.000432471 -0.000100972)
(0.120721 -9.22756e-06 -0.000214808)
(0.122474 -0.000144229 -0.000309425)
(0.116945 -0.000350616 -0.000512303)
(0.117633 -0.000220745 -0.000626069)
(0.106403 -0.000384996 -0.000389841)
(0.118425 -0.000348855 -0.000121198)
(0.11616 -8.63031e-05 1.508e-05)
(0.115728 3.99193e-06 0.00026055)
(0.107478 -0.000112671 0.000143345)
(0.124149 -0.000671138 0.000225085)
(0.122336 -0.000432085 0.000486598)
(0.122163 -0.000456433 0.000106021)
(0.124017 -0.000423668 -2.56982e-05)
(0.118035 -0.000127144 -0.00130643)
(0.117789 5.49789e-07 -0.000874408)
(0.120786 -0.000268902 -0.000861125)
(0.106705 -0.000303932 -0.00116463)
(0.120634 0.000189512 0.000186101)
(0.121065 -0.00043848 0.000226777)
(0.121214 -0.000165103 0.000212687)
(0.115175 -0.000329905 0.000259311)
(0.118451 -0.000683361 -0.000461438)
(0.121782 -0.0003754 -0.000656331)
(0.121596 -0.000118745 -0.000839531)
(0.122205 -0.000108501 -7.81864e-05)
(0.123926 -0.000162311 0.000116434)
(0.122973 7.85735e-05 0.000387831)
(0.119149 0.000178893 -0.00117487)
(0.116672 0.000407009 -0.000854768)
(0.118586 0.000822082 -0.000890185)
(0.105085 -0.000381036 -0.000894686)
(0.125185 -7.64486e-05 5.91146e-05)
(0.124898 -0.000246739 -2.13184e-05)
(0.123327 2.15109e-05 -6.64713e-05)
(0.124964 2.4954e-05 -1.04603e-05)
(0.123158 -0.000160376 -0.000459311)
(0.120418 -0.000184599 -0.000302835)
(0.119885 -5.84616e-05 -0.000696486)
(0.122864 -0.000283113 -0.000193196)
(0.119192 -0.00102229 -0.000378693)
(0.119551 -0.000938872 -7.4949e-05)
(0.106479 -0.000303524 -0.00053571)
(0.118001 -0.000668013 0.000923028)
(0.116807 -0.000285209 0.000918718)
(0.118626 -0.000549822 0.000673592)
(0.105096 8.80398e-05 0.000177864)
(0.121328 -0.000331197 1.04842e-05)
(0.116296 -0.000292071 4.73847e-05)
(0.118643 -0.000299563 -0.000718526)
(0.124885 -0.000198408 -0.000210141)
(0.123267 -0.000180325 -0.000334231)
(0.116599 0.000262446 0.000243945)
(0.11571 0.000134616 0.000259594)
(0.11766 -0.000154714 -0.00016051)
(0.105374 -0.000161584 0.000174792)
(0.119002 -0.000186575 -0.000817349)
(0.118813 0.000383396 -0.000548259)
(0.106588 -0.00040274 -0.000924436)
(0.116061 -0.000199791 0.00029984)
(0.118595 -0.000105164 0.000290182)
(0.116385 -0.000534606 0.000104652)
(0.107034 -0.000308516 0.000101596)
(0.116096 -0.0010102 -0.000397578)
(0.11902 -0.000700661 0.000218328)
(0.117197 -0.00102348 -0.000240223)
(0.10484 -0.00054189 -0.00038508)
(0.118858 0.000506405 -0.000583895)
(0.120343 0.000272026 -6.41894e-05)
(0.120723 7.05658e-05 -0.000397883)
(0.114023 0.000306495 -0.000305519)
(0.117163 0.000315368 0.000180173)
(0.116341 0.000234914 0.000328054)
(0.107012 2.29522e-06 0.000241112)
(0.123689 -0.000550339 1.2261e-05)
(0.123259 -0.00037144 0.000160085)
(0.124101 -0.000503575 -3.2912e-06)
(0.123692 -0.000467273 0.000196029)
(0.122135 -0.000334879 0.000238164)
(0.122322 -0.000250606 2.49508e-05)
(0.124266 -0.00033114 0.000300344)
(0.124537 -0.000337962 0.000265568)
(0.114998 0.000170354 -0.00110566)
(0.115101 0.000116343 -0.000459655)
(0.117163 0.00021615 -0.00077406)
(0.107865 -0.00024694 -0.000563824)
(0.1177 -0.000421352 0.00054523)
(0.117973 -0.00136643 -0.000131866)
(0.11828 -0.000697 0.00020571)
(0.110127 -0.000549724 -7.38283e-06)
(0.119699 0.00096933 -0.000139508)
(0.121618 0.000611077 -0.000377783)
(0.12164 0.000565168 -0.000620324)
(0.115865 0.000241858 -0.000653795)
(0.118217 5.93026e-05 0.000139914)
(0.115674 -5.14554e-05 -3.51641e-05)
(0.115028 -0.000212227 -0.000196468)
(0.106958 0.000184158 -6.91329e-05)
(0.122422 -4.97563e-05 0.000472576)
(0.115972 4.94342e-05 -1.93e-05)
(0.122656 -0.000499009 -0.00036434)
(0.123862 -0.000120403 -0.000373447)
(0.122912 -0.000129901 -0.000239191)
(0.122872 -0.000134451 -0.000297852)
(0.120932 0.000419374 9.98968e-05)
(0.119735 0.000333968 0.000224165)
(0.115623 0.000446353 0.000325772)
(0.123292 0.00021032 -6.1024e-05)
(0.122331 0.000269655 0.000375601)
(0.123028 0.000179374 0.000247358)
(0.123009 0.000353446 0.000323654)
(0.122831 -0.00014447 -7.24709e-05)
(0.122769 -0.000455617 -0.000153947)
(0.115253 -0.000275081 -0.000144348)
(0.121027 -0.000251129 -0.00018692)
(0.119749 -0.000377018 5.80212e-05)
(0.120989 -0.000402489 0.000158528)
(0.113323 -0.000151816 -0.000258866)
(0.121085 -1.97659e-05 -6.01072e-06)
(0.121422 0.000249416 0.000102761)
(0.114834 0.00017847 0.000240789)
(0.117457 -0.000485813 0.000642951)
(0.121175 -0.000500828 0.000396875)
(0.121407 -0.00074522 0.000620374)
(0.119085 -1.90609e-05 0.000241807)
(0.120633 -0.000346053 -0.000114767)
(0.120833 -0.000317067 9.95846e-05)
(0.114692 -0.000157553 0.000214059)
(0.117641 0.000376904 -0.000163673)
(0.114985 0.000233339 -0.000515242)
(0.10584 0.000875071 -0.000514059)
(0.122614 -0.000219184 -4.88956e-05)
(0.124001 -0.000219657 -0.00011747)
(0.1246 0.000344639 -0.000193142)
(0.120912 -1.37286e-05 0.00037854)
(0.121523 -4.61582e-05 0.000566374)
(0.114245 -0.000365204 0.000737613)
(0.122934 0.000275321 7.1138e-05)
(0.123628 -7.77309e-05 8.93555e-05)
(0.123484 0.000231495 -9.18235e-05)
(0.123708 0.000243134 -7.61766e-05)
(0.117842 -7.0207e-05 -9.20161e-05)
(0.118592 -0.000145579 0.000183757)
(0.117985 -0.000365992 1.46118e-05)
(0.105713 0.000114198 0.000107907)
(0.115794 3.53857e-05 0.000409141)
(0.115621 -0.000199037 0.000408936)
(0.117029 -9.3949e-05 0.000626739)
(0.10605 -0.000255233 0.000364099)
(0.12249 -0.000311744 -0.000242681)
(0.123316 -0.000172566 0.000246816)
(0.124169 -0.000419241 2.0067e-05)
(0.123857 -8.85119e-05 0.000222787)
(0.122413 -0.000381444 -0.000364418)
(0.123595 3.87667e-05 -0.000481707)
(0.121981 0.000160038 -0.000370686)
(0.119773 -0.000240229 0.000710174)
(0.121912 -0.000295103 0.000143604)
(0.121519 -0.000175869 0.000267315)
(0.120296 -0.000239898 0.000758038)
(0.120203 -0.000108231 0.000184998)
(0.121939 -0.000394519 8.43249e-05)
(0.115218 -0.000118848 0.000309341)
(0.122336 -0.00034587 -0.000694717)
(0.122496 -6.89257e-05 -0.000595436)
(0.120322 -0.000143208 -0.000334373)
(0.114799 0.000142345 -0.000597743)
(0.122034 -0.000171306 -0.000804019)
(0.118449 -0.000247657 -0.000756421)
(0.121914 5.31906e-05 -0.000665892)
(0.118232 0.000342358 0.000297452)
(0.121791 0.00048507 0.000443233)
(0.119178 0.000216606 0.000644857)
(0.122192 0.000343276 0.000267172)
(0.123547 0.000247944 -0.000554151)
(0.120758 0.0003992 -0.00055186)
(0.121379 -4.24409e-05 -0.000794142)
(0.118365 -4.73301e-05 -5.0776e-05)
(0.106603 -0.000185152 -0.000343048)
(0.117663 -1.23547e-05 -7.73104e-05)
(0.120871 -0.00024525 -9.71578e-05)
(0.124137 0.000220763 0.000141722)
(0.123918 -0.000115579 9.9014e-05)
(0.123517 6.35328e-05 0.000338189)
(0.123988 -6.29612e-05 0.000431688)
(0.122791 -0.000513281 0.000135484)
(0.122894 -0.000611798 1.55261e-05)
(0.122614 -0.000458428 7.444e-05)
(0.122844 -0.00051705 -0.000116998)
(0.12301 -0.000390634 0.000212112)
(0.122671 -0.000566069 0.00018696)
(0.120919 -0.000423354 0.000461752)
(0.119384 -0.00129262 -7.40299e-05)
(0.121862 -0.00132927 -0.000381236)
(0.120919 -0.00104821 -0.000624171)
(0.119414 -8.88252e-05 -0.00028744)
(0.119132 0.000297055 -0.000498623)
(0.114921 8.86866e-05 0.00026808)
(0.12259 8.21176e-05 -0.0004423)
(0.115879 -0.000193163 -0.000341842)
(0.11934 0.00057486 -0.000514347)
(0.119535 0.000631224 -0.000722829)
(0.120752 0.000184328 -0.000547271)
(0.114259 -8.50944e-05 -0.000493231)
(0.123703 0.000212256 -0.000385651)
(0.122112 0.000336187 -0.000421263)
(0.122716 0.000123825 -0.000605187)
(0.106675 5.63683e-05 -0.000177464)
(0.120744 0.000117633 -0.000263249)
(0.115536 -0.000121479 -0.000149409)
(0.118533 0.0001676 -6.85011e-05)
(0.121368 0.000157178 0.000268179)
(0.118169 0.00020413 -0.000145977)
(0.121654 0.000490404 3.24472e-05)
(0.121971 7.86932e-05 -0.000243499)
(0.121417 8.04648e-05 -0.000420073)
(0.120723 8.61201e-05 -6.64539e-05)
(0.116556 0.000318942 -0.00030849)
(0.123913 -0.00010452 -0.000412975)
(0.122302 -0.000195912 -0.000579092)
(0.123462 -0.00029254 -0.000556673)
(0.122105 -0.000479812 -0.000393618)
(0.121781 -0.000639821 -0.000437052)
(0.123803 -0.000495003 -0.000251706)
(0.122895 -0.0005152 -0.000119599)
(0.123416 0.000142839 -0.000412582)
(0.123681 -0.00011917 -0.00029696)
(0.117008 -0.000681807 -0.000430526)
(0.118069 -0.000897573 -0.000460738)
(0.105676 -2.93876e-05 -0.000400943)
(0.120426 -0.000780325 0.00031319)
(0.121261 -0.000318114 7.0253e-05)
(0.123878 -0.000378497 -0.000158549)
(0.121456 -0.000186896 -0.000267546)
(0.124053 -0.000408133 -0.000208378)
(0.12341 -7.38703e-05 0.000236563)
(0.12322 5.77245e-05 -8.19891e-05)
(0.122546 0.000275211 0.000265252)
(0.119024 -0.000290309 -0.000486959)
(0.122885 -0.000332346 -0.000604257)
(0.113522 0.000116206 0.000119728)
(0.115637 -0.000321518 0.000658888)
(0.115257 -0.000509284 0.000255775)
(0.104086 -0.000556183 0.000330815)
(0.122235 -0.000356969 -3.49685e-05)
(0.121283 -0.00045108 0.000340374)
(0.116157 -0.000309262 0.000934702)
(0.115774 -0.00109871 -0.000342274)
(0.107274 -0.000622579 -0.000197076)
(0.120676 0.00034443 -0.000135149)
(0.120943 0.000463001 0.000254973)
(0.103332 0.000145382 -0.000219805)
(0.121638 -0.000211433 0.000338441)
(0.124015 -0.000376157 0.000292389)
(0.116565 -0.000431783 0.000341887)
(0.119267 0.000314508 0.000336972)
(0.120052 -0.000415673 9.18005e-05)
(0.117264 0.0004991 -0.000236722)
(0.117409 0.000220125 -0.000264071)
(0.117866 0.000434241 -0.000591074)
(0.105602 2.65094e-05 -0.000105302)
(0.12158 -3.45074e-05 0.000114114)
(0.120918 1.50537e-05 9.20401e-05)
(0.120432 1.00048e-05 0.000183821)
(0.122587 0.00076468 -0.000314374)
(0.123454 0.000821359 -0.000277261)
(0.120586 0.000142202 -0.000215769)
(0.121442 9.32398e-05 -0.000377722)
(0.123553 -0.000701374 -0.000175878)
(0.123104 -1.33021e-05 0.000288743)
(0.118183 -0.000551031 -1.01083e-05)
(0.11796 -0.000300896 -9.25444e-05)
(0.104913 -0.000338208 0.000143164)
(0.116723 -0.000954668 0.000265087)
(0.11534 -0.00064308 0.000654138)
(0.106804 -0.000618894 0.00021157)
(0.12282 -0.000614171 0.000375355)
(0.121118 -0.000107901 0.000580255)
(0.122187 -0.000453184 0.000649833)
(0.120849 -0.000267041 0.000119513)
(0.123368 0.000100491 -0.000639837)
(0.124126 -2.19529e-05 -0.000605562)
(0.121977 0.00012862 -0.000424736)
(0.117425 0.000495421 0.000126572)
(0.118293 0.000112718 6.84508e-05)
(0.104746 0.000292296 -0.000493306)
(0.123444 -0.00061654 0.000124749)
(0.123361 -0.000637348 0.000378689)
(0.123232 -0.00041689 0.000283996)
(0.12011 -0.000108792 -0.000198309)
(0.117837 5.91688e-05 -0.000489612)
(0.107064 -7.35224e-05 -0.00037175)
(0.115863 -0.000266726 0.000243668)
(0.115853 -0.000542638 8.74725e-05)
(0.107461 -0.000330428 -4.18283e-05)
(0.120286 0.000239615 -0.000469785)
(0.119895 0.000210024 -0.000350269)
(0.121465 0.000317768 -0.000181208)
(0.115178 -0.00022867 -0.000379998)
(0.120991 -0.000369907 -0.000298257)
(0.122792 -0.000537265 8.50334e-05)
(0.120747 -0.000297182 0.000483844)
(0.122285 -0.000392679 8.48259e-05)
(0.118957 -0.00118547 0.000224332)
(0.120639 -0.000906226 -2.70647e-06)
(0.120845 -0.000782376 -0.000107296)
(0.113503 -0.000889385 -0.000217583)
(0.11605 -0.00034579 0.000595393)
(0.119998 1.66607e-05 0.000565002)
(0.118645 0.000112264 0.000180483)