/*--------------------------------*- C++ -*----------------------------------*\
| =========                 |                                                 |
| \\      /  F ield         | OpenFOAM: The Open Source CFD Toolbox           |
|  \\    /   O peration     | Version:  2212                                  |
|   \\  /    A nd           | Website:  www.openfoam.com                      |
|    \\/     M anipulation  |                                                 |
\*---------------------------------------------------------------------------*/
FoamFile
{
    version     2.0;
    format      ascii;
    arch        "LSB;label=32;scalar=64";
    class       volScalarField;
    location    "0.032";
    object      epsilon;
}
// * * * * * * * * * * * * * * * * * * * * * * * * * * * * * * * * * * * * * //

dimensions      [0 2 -3 0 0 0 0];

internalField   nonuniform List<scalar> 
31639
(
0.825914
0.820718
0.826735
0.823328
0.837101
0.823143
0.848401
0.832587
0.829191
0.821454
0.826594
0.821622
0.81892
0.8176
0.815595
0.847811
0.82977
0.837002
0.832477
0.821485
0.865412
0.829877
0.820628
0.837378
0.842496
0.829098
0.818891
0.691083
0.840826
0.825747
0.820792
0.839637
0.820107
0.842124
0.863356
0.825357
0.86321
0.826441
0.82207
0.876902
0.853008
0.857645
0.816295
0.828251
0.830809
0.820973
0.821206
0.835113
0.827161
0.823025
0.820637
0.864395
0.829415
0.873657
0.833935
0.833193
0.864465
0.82269
0.819283
0.863592
0.830328
0.832248
0.852575
0.81862
0.828229
0.820312
0.823075
0.822103
0.859331
0.821921
0.822578
0.812643
0.818115
0.820258
0.829094
0.86707
0.819496
0.836343
0.817486
0.830757
0.840265
0.878824
0.819992
0.823106
0.812241
0.820392
0.821979
0.821309
0.849069
0.822849
0.821264
0.830516
0.857163
0.819085
0.837442
0.819121
0.830588
0.819797
0.822184
0.862138
0.825512
0.820962
0.813834
0.862446
0.857047
0.822258
0.862744
0.869608
0.845812
0.872419
0.808378
0.857362
0.824398
0.83909
0.817355
0.867156
0.846671
0.843344
0.830549
0.821442
0.828816
0.822469
0.817212
0.828531
0.834764
0.825125
0.823394
0.842492
0.843058
0.816865
0.817569
0.813295
0.813008
0.839117
0.82634
0.820642
0.859473
0.86499
0.820267
0.821891
0.821183
0.822968
0.822124
0.863213
0.874661
0.818599
0.824327
0.862376
0.855996
0.82266
0.857427
0.830884
0.834496
0.826567
0.861113
0.821866
0.830144
0.859706
0.848529
0.838604
0.820114
0.865138
0.857729
0.865305
0.867449
0.819722
0.864705
0.823942
0.821239
0.855787
0.81128
0.818737
0.860898
0.819178
0.81918
0.825397
0.821711
0.824651
0.820492
0.813104
0.818142
0.827112
0.809263
0.87391
0.833931
0.823095
0.810666
0.82408
0.867908
0.861426
0.832962
0.828292
0.823281
0.820021
0.819365
0.836424
0.842728
0.817928
0.858575
0.834654
0.822751
0.826613
0.807827
0.808815
0.837923
0.823037
0.818265
0.814386
0.824687
0.876693
0.821779
0.839685
0.825278
0.82569
0.833784
0.817163
0.857224
0.844884
0.82955
0.822831
0.81786
0.83862
0.862943
0.832441
0.8644
0.843058
0.825262
0.846198
0.86158
0.829403
0.825465
0.824095
0.852142
0.869511
0.822601
0.823262
0.852939
0.816262
0.859959
0.861361
0.818165
0.820209
0.816914
0.844558
0.862078
0.830101
0.814557
0.817851
0.849892
0.821377
0.811167
0.868549
0.848587
0.823316
0.8273
0.842796
0.858901
0.817713
0.816727
0.845134
0.822511
0.819783
0.833566
0.821929
0.819779
0.834869
0.854498
0.84021
0.809171
0.811328
0.809442
0.83691
0.837479
0.837478
0.823709
0.827993
0.859007
0.837582
0.851209
0.820392
0.83583
0.825965
0.825222
0.842489
0.855246
0.866294
0.857348
0.870134
0.815897
0.854175
0.83338
0.814516
0.836427
0.854076
0.828175
0.838986
0.865354
0.825219
0.845116
0.867013
0.823522
0.84863
0.820234
0.81544
0.862301
0.834288
0.815983
0.86572
0.869941
0.819685
0.822162
0.808509
0.86397
0.866966
0.81958
0.847978
0.837954
0.824809
0.826239
0.819264
0.821127
0.822
0.858176
0.817002
0.872001
0.873347
0.824702
0.819788
0.818789
0.822032
0.827885
0.853089
0.812044
0.815996
0.824202
0.832337
0.826419
0.820224
0.810676
0.827357
0.819096
0.820925
0.816318
0.826108
0.815738
0.829351
0.8231
0.808796
0.861448
0.838189
0.824819
0.836231
0.831921
0.813701
0.8187
0.861241
0.817424
0.820818
0.865969
0.827691
0.856887
0.834983
0.817303
0.866434
0.822263
0.82165
0.8606
0.82985
0.858889
0.828267
0.829536
0.834546
0.871177
0.826921
0.855642
0.82731
0.820271
0.825449
0.829873
0.861761
0.813813
0.857477
0.817932
0.866684
0.819212
0.815904
0.820242
0.819562
0.836625
0.832934
0.822926
0.82807
0.820071
0.872462
0.82712
0.819994
0.81392
0.816776
0.829249
0.829213
0.83003
0.866881
0.838297
0.824725
0.818171
0.867908
0.823836
0.820601
0.823115
0.808675
0.815406
0.838791
0.816115
0.848912
0.82642
0.823171
0.86866
0.830976
0.824847
0.861341
0.857847
0.859911
0.847096
0.871787
0.824257
0.808479
0.846101
0.833322
0.859758
0.817658
0.820961
0.82116
0.821617
0.834027
0.825057
0.826402
0.846869
0.818975
0.818066
0.861543
0.820369
0.827318
0.819442
0.828115
0.823727
0.815377
0.827425
0.824393
0.823157
0.831458
0.857628
0.823997
0.870632
0.850919
0.819194
0.865656
0.880088
0.838162
0.819516
0.824665
0.863745
0.827232
0.849055
0.81768
0.829799
0.701656
0.817015
0.873973
0.81697
0.819009
0.826664
0.817294
0.836439
0.850429
0.828815
0.815788
0.817339
0.867258
0.866933
0.819965
0.864222
0.856771
0.825733
0.868676
0.834985
0.849386
0.832024
0.855339
0.820926
0.820194
0.81965
0.818617
0.863212
0.821809
0.823892
0.832065
0.829755
0.820796
0.817163
0.833689
0.843151
0.822512
0.820799
0.817246
0.835663
0.822029
0.820576
0.866956
0.878008
0.825829
0.832753
0.820015
0.822914
0.832578
0.840438
0.818277
0.826741
0.843034
0.825198
0.856564
0.820408
0.834374
0.826635
0.866603
0.852112
0.852081
0.816656
0.816262
0.862709
0.827449
0.84414
0.824817
0.828294
0.815819
0.835462
0.863637
0.821766
0.816288
0.852216
0.822308
0.825172
0.811399
0.820297
0.697214
0.856914
0.818064
0.821185
0.859482
0.858816
0.822601
0.819925
0.827295
0.860187
0.838895
0.82187
0.820011
0.853805
0.860146
0.824221
0.820734
0.864238
0.865252
0.824396
0.863242
0.820223
0.827205
0.863166
0.817221
0.837793
0.841203
0.877815
0.822196
0.846895
0.854312
0.818511
0.822421
0.821773
0.819164
0.864488
0.834163
0.829378
0.835394
0.871016
0.850818
0.84228
0.813086
0.819944
0.82832
0.816852
0.819145
0.848141
0.816984
0.829391
0.832445
0.852205
0.82139
0.83094
0.834808
0.862267
0.867963
0.82008
0.840138
0.823368
0.820108
0.853129
0.828061
0.820044
0.847077
0.826951
0.853861
0.817362
0.822464
0.872236
0.821738
0.822748
0.691853
0.859659
0.870551
0.842259
0.820296
0.822576
0.82417
0.819315
0.820221
0.821836
0.823274
0.863602
0.818694
0.871524
0.821776
0.837268
0.837258
0.822591
0.819498
0.850461
0.861876
0.874411
0.83648
0.819083
0.840365
0.821552
0.847913
0.816843
0.863558
0.817065
0.825011
0.823222
0.82056
0.813229
0.820675
0.843073
0.828351
0.827801
0.826897
0.859195
0.817098
0.853985
0.823536
0.841476
0.822084
0.857286
0.819181
0.86234
0.819725
0.841676
0.829843
0.82477
0.818532
0.851226
0.806618
0.856603
0.880781
0.869294
0.868747
0.855264
0.826693
0.87378
0.806984
0.830897
0.872035
0.82473
0.863602
0.831589
0.814158
0.832149
0.827658
0.818807
0.816245
0.826641
0.829149
0.814636
0.841176
0.834997
0.86031
0.718404
0.823927
0.820578
0.827032
0.823204
0.86135
0.823078
0.827219
0.819995
0.816084
0.817336
0.820603
0.821959
0.823693
0.826615
0.825389
0.825828
0.859651
0.822094
0.836273
0.827725
0.812156
0.816155
0.837849
0.82838
0.825586
0.824904
0.844887
0.871282
0.820453
0.830111
0.843092
0.86884
0.816281
0.857641
0.810012
0.836028
0.816684
0.834937
0.823834
0.83387
0.864845
0.821006
0.848415
0.835067
0.855933
0.816214
0.818157
0.818217
0.82336
0.814285
0.829715
0.844974
0.824869
0.865294
0.815173
0.828682
0.812199
0.861305
0.816227
0.817403
0.819979
0.847752
0.823473
0.817406
0.822388
0.860636
0.865677
0.815604
0.857464
0.839123
0.828908
0.824173
0.814196
0.861667
0.813241
0.818723
0.850882
0.854634
0.811286
0.855604
0.844198
0.861597
0.828169
0.848842
0.839328
0.823674
0.860524
0.817676
0.818459
0.820524
0.827132
0.818365
0.86438
0.815578
0.832028
0.840279
0.821936
0.821782
0.829746
0.824668
0.81765
0.831302
0.82664
0.830963
0.816972
0.8372
0.822057
0.816332
0.857042
0.809324
0.830859
0.817674
0.835239
0.827968
0.822739
0.825556
0.81133
0.832635
0.822948
0.829114
0.833586
0.858062
0.826149
0.821241
0.871891
0.835237
0.821055
0.837285
0.82141
0.820372
0.81807
0.815895
0.823202
0.825129
0.824017
0.828873
0.822325
0.840148
0.861226
0.821197
0.873155
0.822801
0.835928
0.82135
0.826377
0.825249
0.866574
0.825184
0.859354
0.821884
0.849602
0.818768
0.819652
0.819415
0.860032
0.821157
0.824178
0.838629
0.829345
0.834159
0.870379
0.825544
0.825111
0.822208
0.816007
0.818892
0.817418
0.848572
0.82088
0.849435
0.836319
0.823352
0.852361
0.855122
0.833058
0.820488
0.841136
0.830872
0.83505
0.8389
0.816703
0.844649
0.821896
0.833528
0.874279
0.831364
0.814498
0.832428
0.842479
0.815502
0.820135
0.85967
0.86062
0.824769
0.825289
0.810569
0.845712
0.81686
0.823053
0.859309
0.825675
0.816496
0.818699
0.829932
0.814713
0.829361
0.814105
0.811412
0.832212
0.85423
0.824293
0.820371
0.846954
0.817968
0.867102
0.819119
0.827823
0.860927
0.824384
0.836703
0.818045
0.833896
0.82837
0.869868
0.869756
0.832882
0.855375
0.81589
0.819756
0.82034
0.822382
0.846813
0.821331
0.83067
0.839398
0.841004
0.815557
0.822408
0.830402
0.867169
0.826402
0.824747
0.81647
0.823202
0.874358
0.854078
0.822899
0.819003
0.843521
0.819908
0.843097
0.821051
0.830905
0.828718
0.816185
0.83747
0.859934
0.819691
0.84177
0.859679
0.844487
0.818074
0.841185
0.828133
0.828548
0.840714
0.865561
0.820548
0.856989
0.828844
0.838253
0.856672
0.834616
0.863464
0.823134
0.832175
0.824801
0.876617
0.85721
0.813598
0.825031
0.83621
0.818134
0.829318
0.815403
0.864624
0.862829
0.832281
0.82767
0.824673
0.827084
0.817468
0.835942
0.819087
0.829845
0.83574
0.816602
0.874876
0.830433
0.819632
0.820419
0.830569
0.831806
0.842597
0.818904
0.824021
0.866458
0.82491
0.852298
0.824075
0.835387
0.815514
0.8667
0.816997
0.828391
0.829625
0.82046
0.8696
0.816236
0.825951
0.81632
0.858836
0.82727
0.826621
0.809657
0.829753
0.824906
0.82096
0.821037
0.846025
0.834281
0.868067
0.869825
0.866609
0.853191
0.824328
0.866665
0.824598
0.821035
0.839614
0.824476
0.822482
0.822666
0.821383
0.825824
0.845467
0.824267
0.841935
0.849905
0.816553
0.817779
0.821498
0.816877
0.841082
0.83287
0.828807
0.818224
0.829427
0.824982
0.84147
0.827988
0.836645
0.83003
0.81706
0.821532
0.819435
0.820883
0.818981
0.833436
0.823274
0.826048
0.865699
0.876779
0.818157
0.85182
0.840746
0.841132
0.861358
0.82974
0.824466
0.861911
0.839995
0.819359
0.823604
0.822001
0.817059
0.866745
0.822325
0.842292
0.836827
0.82483
0.82723
0.872318
0.850272
0.850996
0.833094
0.827978
0.827021
0.830493
0.832458
0.819852
0.832207
0.843864
0.840247
0.882371
0.839506
0.826567
0.833983
0.837567
0.826954
0.861114
0.827055
0.840345
0.835097
0.829522
0.817836
0.866583
0.823618
0.862699
0.817321
0.826261
0.840302
0.832934
0.831551
0.829314
0.846086
0.826026
0.840642
0.843047
0.831
0.874297
0.812635
0.823932
0.830651
0.815231
0.826438
0.857268
0.847534
0.829839
0.862371
0.818345
0.833595
0.823871
0.817903
0.822971
0.861285
0.869333
0.859879
0.827609
0.874774
0.815976
0.823813
0.85592
0.836505
0.821931
0.826262
0.846845
0.845246
0.820976
0.823237
0.830068
0.832091
0.85039
0.821937
0.834679
0.830868
0.840503
0.823182
0.834192
0.824856
0.83465
0.872488
0.869571
0.827745
0.837455
0.834445
0.881232
0.823511
0.829475
0.819417
0.867807
0.837694
0.821703
0.832003
0.847856
0.866793
0.828845
0.855909
0.837519
0.834605
0.820634
0.823662
0.822189
0.872504
0.868049
0.820158
0.84246
0.841864
0.836029
0.87414
0.812915
0.819257
0.849059
0.817063
0.82132
0.829179
0.821625
0.828459
0.826796
0.823487
0.867069
0.833687
0.822674
0.871626
0.82737
0.823954
0.8489
0.818801
0.771058
0.81986
0.817809
0.822213
0.873123
0.820802
0.825796
0.86915
0.83358
0.818001
0.848385
0.826641
0.861889
0.860498
0.823651
0.837241
0.820069
0.825874
0.81865
0.812874
0.818793
0.817024
0.816467
0.831573
0.857733
0.819953
0.834654
0.824942
0.838833
0.849435
0.849047
0.829349
0.869087
0.828837
0.828468
0.827609
0.878713
0.825884
0.878521
0.825029
0.876055
0.829579
0.831106
0.834905
0.822308
0.858643
0.858802
0.824547
0.831247
0.839277
0.825303
0.847262
0.813512
0.830922
0.820658
0.858439
0.85429
0.81786
0.818535
0.836291
0.835549
0.851798
0.829366
0.821362
0.818453
0.822659
0.825982
0.8206
0.82302
0.822838
0.862293
0.818749
0.828901
0.819314
0.826964
0.831213
0.875512
0.841155
0.823966
0.832212
0.82567
0.831233
0.820824
0.815757
0.821603
0.824916
0.816726
0.821358
0.841088
0.840752
0.812132
0.821366
0.826127
0.866854
0.82822
0.858247
0.822369
0.859059
0.860378
0.814328
0.860576
0.853444
0.827969
0.81988
0.821475
0.839152
0.819341
0.83174
0.868944
0.873258
0.853033
0.843095
0.823103
0.830935
0.831556
0.872469
0.834379
0.823313
0.821973
0.862112
0.862084
0.828899
0.832267
0.837799
0.839548
0.86566
0.844713
0.851229
0.825184
0.817971
0.862658
0.83016
0.82773
0.855753
0.870422
0.820781
0.841808
0.843506
0.815741
0.833279
0.815739
0.830313
0.814657
0.846239
0.826855
0.843382
0.81947
0.840719
0.827181
0.825358
0.815011
0.854052
0.813413
0.812369
0.826155
0.818975
0.826259
0.855303
0.73079
0.825316
0.845633
0.824315
0.834052
0.812874
0.863923
0.820511
0.827494
0.871611
0.834594
0.824005
0.867451
0.854352
0.822565
0.819236
0.822186
0.841529
0.862168
0.817716
0.831352
0.826331
0.828973
0.818181
0.863826
0.824715
0.822279
0.863052
0.858203
0.876641
0.84463
0.815303
0.842868
0.826386
0.822205
0.831682
0.832106
0.86479
0.868224
0.832543
0.83123
0.866942
0.831071
0.839062
0.870386
0.825635
0.839155
0.864516
0.829974
0.814347
0.871621
0.875774
0.820373
0.829027
0.851481
0.828672
0.850286
0.856728
0.8622
0.830346
0.858267
0.869747
0.82471
0.811445
0.824803
0.838436
0.824539
0.825242
0.824836
0.678301
0.834989
0.855736
0.815449
0.83279
0.81526
0.837912
0.818231
0.850152
0.819085
0.82035
0.828533
0.867874
0.854396
0.868837
0.839117
0.859557
0.833356
0.84704
0.836005
0.818514
0.830011
0.841785
0.824663
0.831275
0.822712
0.817866
0.865352
0.824248
0.821874
0.8216
0.817532
0.825868
0.849793
0.835237
0.820787
0.861104
0.840261
0.821124
0.817413
0.813137
0.831007
0.832736
0.868026
0.854064
0.818971
0.826345
0.83095
0.815485
0.843895
0.837893
0.853124
0.865616
0.864566
0.872787
0.817494
0.821481
0.820391
0.816185
0.83859
0.832745
0.885657
0.820519
0.831468
0.828214
0.811025
0.824772
0.821638
0.82564
0.827491
0.71354
0.844209
0.829194
0.826612
0.821054
0.832589
0.830172
0.824044
0.821131
0.844831
0.818159
0.836152
0.81674
0.818411
0.866365
0.819423
0.825583
0.833294
0.817294
0.851677
0.866938
0.819232
0.826694
0.850313
0.816163
0.816896
0.816526
0.812728
0.836409
0.827673
0.829325
0.827393
0.880292
0.883114
0.824216
0.844812
0.854937
0.820289
0.859189
0.833652
0.822722
0.837856
0.839309
0.815331
0.84401
0.83091
0.82622
0.83566
0.820977
0.840699
0.866837
0.82516
0.877848
0.885358
0.728249
0.847313
0.867484
0.830184
0.824579
0.858053
0.839328
0.87276
0.863654
0.817054
0.827294
0.862494
0.871194
0.817207
0.863321
0.821595
0.830269
0.841048
0.815371
0.863287
0.861567
0.826392
0.830519
0.86617
0.861533
0.840292
0.843301
0.826244
0.818185
0.874335
0.827718
0.86397
0.877943
0.846813
0.839439
0.847322
0.839339
0.845805
0.819604
0.866159
0.859945
0.820713
0.818641
0.821825
0.877944
0.874143
0.83657
0.818222
0.81574
0.823662
0.833722
0.812892
0.816033
0.85323
0.821777
0.84201
0.855047
0.873651
0.815037
0.818638
0.824609
0.818735
0.822757
0.862444
0.838109
0.866171
0.887231
0.841467
0.867389
0.847827
0.821337
0.776996
0.857276
0.821708
0.819804
0.823324
0.827659
0.893572
0.823513
0.851268
0.829889
0.866718
0.825158
0.869064
0.825274
0.842948
0.847525
0.83839
0.871563
0.844786
0.816714
0.820772
0.827762
0.825162
0.829489
0.865149
0.826543
0.722477
0.822058
0.826483
0.823902
0.836875
0.804127
0.830307
0.837124
0.837135
0.836507
0.822174
0.826712
0.83462
0.853684
0.830706
0.836111
0.818759
0.821437
0.822377
0.837079
0.835881
0.813959
0.829794
0.81137
0.81802
0.826656
0.83336
0.762028
0.81396
0.841642
0.827369
0.825737
0.815517
0.859609
0.846659
0.824262
0.813329
0.820803
0.817208
0.822061
0.822289
0.823176
0.85569
0.854315
0.819809
0.82375
0.825619
0.821902
0.851756
0.818415
0.872908
0.819432
0.834231
0.814948
0.8327
0.824222
0.814329
0.818696
0.856535
0.823415
0.822444
0.836728
0.850106
0.830214
0.81792
0.821814
0.820173
0.820931
0.830165
0.8576
0.819707
0.845364
0.82702
0.839258
0.839092
0.860866
0.864207
0.837968
0.824546
0.826689
0.84709
0.839165
0.860612
0.832755
0.825564
0.869817
0.852379
0.846405
0.827596
0.83033
0.835274
0.789726
0.83524
0.744825
0.850571
0.818568
0.821244
0.825599
0.803298
0.829248
0.87289
0.848552
0.831701
0.850191
0.84609
0.823416
0.828836
0.825178
0.808513
0.866823
0.809564
0.823089
0.836965
0.821801
0.813959
0.826724
0.800961
0.825676
0.843175
0.851659
0.822752
0.873389
0.873632
0.841317
0.828182
0.840988
0.836012
0.82637
0.836015
0.873164
0.837069
0.829269
0.832421
0.867924
0.848545
0.843109
0.809939
0.819156
0.839524
0.823862
0.830129
0.82617
0.857589
0.820565
0.864489
0.815645
0.811447
0.816542
0.815158
0.821589
0.815197
0.856626
0.815815
0.819873
0.852591
0.820482
0.82042
0.8403
0.827232
0.837231
0.820867
0.829079
0.816597
0.823262
0.825059
0.823994
0.816675
0.865804
0.811149
0.864913
0.847276
0.830291
0.824794
0.821018
0.826318
0.80043
0.822305
0.860824
0.831037
0.82433
0.826715
0.818552
0.864661
0.866231
0.820094
0.879726
0.816319
0.823791
0.872214
0.826502
0.832752
0.837962
0.856958
0.847835
0.865623
0.833172
0.8684
0.82738
0.809699
0.876836
0.831487
0.82533
0.821548
0.815592
0.844258
0.820349
0.829622
0.851784
0.83039
0.823905
0.837777
0.851997
0.811941
0.830398
0.824267
0.844597
0.812938
0.831817
0.838998
0.849803
0.835411
0.80897
0.81518
0.826553
0.855289
0.821282
0.822268
0.820948
0.833194
0.887905
0.813588
0.846435
0.812757
0.817399
0.825287
0.845664
0.826227
0.8253
0.824737
0.812052
0.833034
0.859528
0.852072
0.824715
0.821856
0.776238
0.841049
0.823602
0.855787
0.821675
0.868587
0.822142
0.824976
0.822499
0.859832
0.822838
0.858714
0.827814
0.835192
0.844041
0.837142
0.85297
0.839682
0.828111
0.857743
0.842089
0.812811
0.876299
0.83313
0.825696
0.874722
0.841129
0.810015
0.836382
0.826842
0.828869
0.827758
0.809269
0.838039
0.865002
0.866459
0.698498
0.82246
0.808263
0.817623
0.821574
0.851855
0.851481
0.815548
0.831299
0.860699
0.821955
0.814165
0.846005
0.810513
0.81261
0.816332
0.8601
0.83356
0.827961
0.874752
0.808032
0.809804
0.822167
0.815568
0.823636
0.825466
0.863209
0.828374
0.845224
0.817491
0.816452
0.793434
0.81042
0.822263
0.840241
0.817864
0.821442
0.810904
0.856493
0.833794
0.82349
0.807581
0.827679
0.826651
0.838884
0.830591
0.864564
0.823979
0.855458
0.832341
0.825703
0.831084
0.837775
0.832357
0.833314
0.829007
0.831943
0.818241
0.793351
0.820066
0.867054
0.82217
0.817345
0.850975
0.818323
0.809214
0.811577
0.826703
0.867702
0.821556
0.818487
0.823188
0.830413
0.828355
0.868572
0.862541
0.819026
0.86056
0.81848
0.826142
0.853663
0.835096
0.819098
0.840363
0.849424
0.845231
0.841598
0.824476
0.815188
0.84052
0.824589
0.808851
0.82736
0.864707
0.818506
0.827902
0.811085
0.859045
0.847529
0.827992
0.686192
0.845065
0.816761
0.823582
0.824771
0.79637
0.821768
0.829138
0.843849
0.820573
0.841181
0.82953
0.823135
0.815567
0.814424
0.813254
0.814682
0.813389
0.849224
0.862507
0.826684
0.722847
0.832214
0.819283
0.812019
0.8121
0.82369
0.811138
0.834491
0.812135
0.859963
0.823071
0.838163
0.818051
0.809359
0.809417
0.831389
0.828432
0.834351
0.821049
0.836345
0.832562
0.834801
0.841458
0.849221
0.850431
0.860213
0.839416
0.829404
0.86249
0.824259
0.813997
0.81636
0.808667
0.824665
0.814401
0.814348
0.795055
0.826898
0.818327
0.813801
0.829126
0.874789
0.81309
0.839949
0.817368
0.8269
0.820991
0.822419
0.828957
0.871176
0.842037
0.863063
0.822332
0.826797
0.85694
0.836666
0.825925
0.840242
0.830503
0.842257
0.857126
0.819289
0.853304
0.850805
0.722168
0.736634
0.807793
0.850229
0.827655
0.821066
0.853158
0.821443
0.817308
0.803777
0.818033
0.859258
0.821273
0.698015
0.817537
0.841717
0.85221
0.813626
0.862598
0.84519
0.837976
0.820669
0.81051
0.810055
0.838352
0.819886
0.773657
0.829355
0.824209
0.82064
0.829236
0.853233
0.807332
0.816766
0.821439
0.715113
0.857284
0.809202
0.86038
0.854939
0.816964
0.823181
0.841642
0.840247
0.83345
0.815707
0.837066
0.71165
0.871153
0.822187
0.866575
0.829672
0.850341
0.829278
0.821511
0.823349
0.851938
0.84095
0.826082
0.826167
0.833579
0.819705
0.824237
0.825316
0.817398
0.849793
0.824899
0.845147
0.802973
0.81065
0.810912
0.824792
0.81485
0.832091
0.828792
0.859646
0.81241
0.812074
0.872585
0.819398
0.820653
0.832905
0.860955
0.82524
0.837208
0.846922
0.703517
0.843381
0.819184
0.886816
0.825549
0.879715
0.857503
0.828954
0.824393
0.867433
0.827432
0.820188
0.730488
0.869381
0.81863
0.821844
0.88772
0.82239
0.883535
0.887569
0.829127
0.824825
0.839422
0.814172
0.825437
0.814085
0.837745
0.797298
0.844973
0.827009
0.825229
0.809166
0.852066
0.782457
0.838747
0.842408
0.817833
0.808923
0.830565
0.828889
0.824324
0.81473
0.820983
0.829629
0.827857
0.81721
0.820436
0.809379
0.81238
0.82682
0.827492
0.782006
0.775816
0.813149
0.830872
0.842721
0.799015
0.8059
0.843218
0.826527
0.780474
0.854435
0.844414
0.81395
0.778817
0.822532
0.82429
0.823631
0.856308
0.82787
0.849391
0.847435
0.834914
0.867331
0.814309
0.819676
0.817768
0.819742
0.858481
0.832227
0.817733
0.825181
0.826299
0.686673
0.821157
0.831494
0.827674
0.804989
0.814211
0.697066
0.819321
0.816708
0.842885
0.87143
0.846796
0.811744
0.812322
0.845996
0.856586
0.820188
0.824455
0.818174
0.85533
0.873703
0.844402
0.845282
0.820962
0.821581
0.830826
0.825902
0.819449
0.738743
0.822904
0.821171
0.826538
0.838407
0.821121
0.79433
0.854149
0.835658
0.823343
0.760778
0.755133
0.823103
0.830902
0.813465
0.872071
0.813082
0.807253
0.811683
0.808425
0.803495
0.819013
0.826577
0.820433
0.815592
0.827581
0.810855
0.819994
0.821861
0.826426
0.809442
0.808741
0.853226
0.843174
0.866309
0.836356
0.796397
0.82615
0.85658
0.829903
0.841482
0.852421
0.832001
0.817795
0.812939
0.805023
0.819633
0.825932
0.811698
0.860225
0.819969
0.85121
0.827951
0.805249
0.823222
0.814931
0.814516
0.805133
0.841251
0.849805
0.840408
0.848445
0.831933
0.712736
0.821658
0.830753
0.811695
0.825805
0.841787
0.840607
0.716963
0.823849
0.819471
0.761146
0.8526
0.85244
0.814111
0.81347
0.85318
0.691195
0.81198
0.862883
0.818771
0.828208
0.822242
0.867044
0.819971
0.851363
0.845732
0.853024
0.811559
0.819758
0.830026
0.826792
0.827071
0.825829
0.867227
0.872527
0.83162
0.825721
0.831708
0.813315
0.857621
0.809596
0.846447
0.758447
0.823301
0.839227
0.854654
0.839154
0.814834
0.854494
0.847834
0.802493
0.801027
0.820227
0.836028
0.843838
0.860452
0.815765
0.831496
0.781895
0.813241
0.827402
0.819115
0.809164
0.781334
0.779811
0.815241
0.844272
0.822521
0.815275
0.812301
0.836386
0.756042
0.776301
0.804066
0.757669
0.808236
0.807839
0.838884
0.804634
0.819087
0.76396
0.745169
0.860169
0.821546
0.739015
0.849184
0.834211
0.798558
0.823891
0.766173
0.85841
0.861641
0.823848
0.711351
0.828681
0.870739
0.821685
0.821585
0.856977
0.824644
0.755533
0.868838
0.831676
0.820145
0.824886
0.820535
0.81632
0.810313
0.809077
0.813081
0.812463
0.818757
0.801863
0.79665
0.814178
0.799949
0.810311
0.826533
0.836882
0.795702
0.807784
0.823387
0.827743
0.835595
0.832039
0.860645
0.811651
0.836489
0.821158
0.823598
0.800227
0.822168
0.859479
0.832552
0.84347
0.850848
0.779207
0.851546
0.776273
0.820787
0.828882
0.819863
0.79791
0.859279
0.814103
0.793101
0.851546
0.814422
0.807526
0.713144
0.772353
0.833432
0.841974
0.80087
0.776154
0.788112
0.857941
0.805172
0.786697
0.818944
0.854975
0.839855
0.781577
0.818277
0.777499
0.824196
0.811565
0.827085
0.83136
0.798572
0.783556
0.833612
0.853285
0.820847
0.838904
0.869919
0.748748
0.818777
0.848942
0.836885
0.861682
0.820929
0.805804
0.814606
0.698013
0.822387
0.830347
0.818213
0.810878
0.810689
0.816341
0.812972
0.837978
0.826611
0.821409
0.822002
0.837169
0.83588
0.839717
0.748114
0.84445
0.75621
0.805454
0.822907
0.78672
0.824931
0.841939
0.830884
0.826467
0.807562
0.77361
0.785536
0.702029
0.820918
0.809706
0.839801
0.830452
0.865407
0.808819
0.830269
0.785393
0.78887
0.795428
0.772824
0.821419
0.821476
0.810385
0.815656
0.799447
0.864248
0.845051
0.863766
0.755489
0.814555
0.700131
0.689626
0.83356
0.758759
0.86469
0.821165
0.865984
0.85579
0.791425
0.853574
0.843523
0.789822
0.744666
0.815318
0.864034
0.812009
0.825852
0.793636
0.818605
0.808005
0.788567
0.780771
0.856391
0.834752
0.816111
0.833518
0.817347
0.835547
0.806673
0.825027
0.821324
0.835949
0.810287
0.691765
0.687009
0.769457
0.820219
0.798312
0.82022
0.741214
0.869393
0.820217
0.835753
0.788187
0.87005
0.800694
0.792803
0.844638
0.877674
0.778982
0.831314
0.708624
0.779737
0.727865
0.816052
0.859376
0.845089
0.807881
0.843232
0.757178
0.844612
0.717963
0.816716
0.815569
0.825084
0.75747
0.872499
0.771626
0.818338
0.765087
0.77829
0.828959
0.795332
0.877723
0.796579
0.824211
0.797621
0.812759
0.823667
0.783805
0.840229
0.858532
0.802904
0.864768
0.718938
0.860262
0.842821
0.794457
0.807612
0.821136
0.822625
0.770558
0.852991
0.816189
0.755792
0.812129
0.853653
0.743224
0.824717
0.723589
0.815652
0.835016
0.822521
0.772744
0.824214
0.822929
0.854159
0.820143
0.82559
0.849747
0.705854
0.797877
0.801756
0.843623
0.836017
0.748744
0.82289
0.777346
0.775667
0.717229
0.685958
0.697739
0.837803
0.797576
0.834958
0.808296
0.833128
0.825414
0.825758
0.792963
0.709348
0.798263
0.821665
0.809782
0.818023
0.750244
0.869107
0.8046
0.819111
0.828676
0.789102
0.793485
0.820442
0.819544
0.789775
0.824276
0.790501
0.788502
0.788366
0.852759
0.753329
0.777136
0.764733
0.809541
0.768368
0.762873
0.784519
0.845212
0.759174
0.867373
0.844841
0.838781
0.723702
0.82219
0.80834
0.760167
0.804338
0.826401
0.826861
0.695583
0.815647
0.76075
0.820327
0.846858
0.82714
0.767059
0.834805
0.820148
0.810752
0.764806
0.763334
0.824516
0.817554
0.722474
0.717646
0.81778
0.727945
0.734964
0.787916
0.750151
0.823773
0.744939
0.759216
0.771616
0.801259
0.78293
0.760239
0.716472
0.812117
0.76057
0.84579
0.833604
0.82427
0.817119
0.786661
0.729268
0.775214
0.706945
0.710582
0.823871
0.830929
0.789589
0.832638
0.811697
0.816893
0.810837
0.718886
0.777689
0.85946
0.806687
0.843355
0.744971
0.834697
0.819895
0.852405
0.852748
0.802078
0.764462
0.771885
0.789717
0.815396
0.833354
0.826249
0.77011
0.747426
0.871383
0.760943
0.704711
0.738899
0.805372
0.774121
0.797585
0.763311
0.793347
0.798705
0.709185
0.848888
0.838512
0.755306
0.824032
0.772917
0.781932
0.823939
0.768955
0.861692
0.787371
0.777394
0.829574
0.743686
0.754175
0.827773
0.801772
0.737354
0.820578
0.816912
0.79915
0.813247
0.772034
0.802939
0.747838
0.785787
0.814232
0.789684
0.783864
0.809762
0.798627
0.734976
0.73931
0.71528
0.820466
0.827502
0.723672
0.818357
0.838029
0.762561
0.768395
0.849828
0.724794
0.779164
0.747406
0.754427
0.827781
0.796028
0.850458
0.83007
0.789751
0.77641
0.793214
0.785741
0.725781
0.739434
0.776844
0.7217
0.861429
0.773289
0.799897
0.750253
0.792852
0.843738
0.762082
0.726883
0.773677
0.741532
0.811623
0.818661
0.775839
0.709068
0.756821
0.7384
0.83015
0.837255
0.83802
0.831618
0.799562
0.823844
0.820177
0.855848
0.809629
0.828994
0.75738
0.819827
0.796238
0.776494
0.692628
0.856458
0.776719
0.818195
0.755022
0.817836
0.684215
0.709447
0.723929
0.813033
0.750593
0.747482
0.798905
0.77686
0.834673
0.753017
0.811158
0.843403
0.82636
0.826105
0.683379
0.771588
0.835158
0.744638
0.777313
0.753163
0.714925
0.781168
0.764691
0.763333
0.76806
0.76552
0.734648
0.738749
0.821777
0.812343
0.823413
0.794448
0.750087
0.760734
0.752438
0.801977
0.780338
0.822832
0.734308
0.760157
0.721349
0.81336
0.739498
0.734553
0.833601
0.821731
0.764829
0.798595
0.689562
0.724814
0.774566
0.712705
0.786241
0.809425
0.825833
0.804924
0.833777
0.80737
0.782444
0.77442
0.744236
0.741861
0.740645
0.854275
0.756355
0.805505
0.782649
0.751913
0.773237
0.841707
0.83762
0.856273
0.836541
0.68443
0.733809
0.867478
0.802442
0.758555
0.831206
0.85029
0.852312
0.780881
0.757558
0.789589
0.707074
0.691569
0.794807
0.703356
0.783535
0.754272
0.725641
0.74239
0.764805
0.77699
0.830828
0.709744
0.706302
0.76396
0.733859
0.767443
0.723569
0.753729
0.749158
0.79102
0.734264
0.798741
0.823064
0.803308
0.7839
0.748552
0.786129
0.780338
0.792119
0.722748
0.766178
0.795305
0.811728
0.766103
0.827876
0.733388
0.817143
0.689898
0.727088
0.713997
0.838206
0.800235
0.816716
0.84611
0.78546
0.775881
0.824991
0.788812
0.789733
0.731703
0.756601
0.807795
0.736725
0.811071
0.790739
0.691334
0.755236
0.748174
0.73385
0.690056
0.759577
0.757815
0.821741
0.715934
0.796491
0.801697
0.701146
0.73854
0.816402
0.737836
0.773778
0.755303
0.77914
0.690681
0.720727
0.754826
0.743932
0.740374
0.739663
0.74078
0.706605
0.8051
0.795723
0.735241
0.723075
0.776434
0.805138
0.756122
0.790797
0.813366
0.694031
0.710711
0.765496
0.690392
0.838177
0.796757
0.720991
0.745085
0.785482
0.710114
0.828073
0.823
0.691504
0.827548
0.808686
0.779173
0.698325
0.730089
0.708067
0.759704
0.815271
0.842723
0.725219
0.722193
0.764289
0.725792
0.850811
0.747835
0.724862
0.695481
0.73658
0.727898
0.744925
0.753969
0.761868
0.766747
0.735313
0.741711
0.708606
0.827655
0.735365
0.688262
0.747489
0.742327
0.708332
0.802299
0.745245
0.815313
0.752563
0.800457
0.828441
0.78173
0.771378
0.746034
0.778488
0.839431
0.753172
0.740626
0.706327
0.790705
0.710118
0.683801
0.701821
0.797856
0.702695
0.699593
0.7752
0.797456
0.784754
0.801625
0.705
0.701307
0.739328
0.758588
0.733746
0.820287
0.724281
0.821046
0.687223
0.685042
0.739207
0.717941
0.780203
0.752371
0.790268
0.74657
0.728528
0.739667
0.74325
0.808615
0.730036
0.72113
0.812617
0.724341
0.810641
0.69081
0.699473
0.747459
0.73235
0.740345
0.725023
0.75193
0.813695
0.844062
0.851983
0.826643
0.691015
0.698911
0.741303
0.765842
0.694236
0.695131
0.714494
0.693762
0.792548
0.818676
0.737422
0.785195
0.817805
0.696309
0.759434
0.747767
0.74754
0.807111
0.706538
0.776805
0.779077
0.806256
0.82616
0.738406
0.733573
0.810018
0.840345
0.793415
0.699129
0.815252
0.806044
0.778687
0.817437