/*--------------------------------*- C++ -*----------------------------------*\
| =========                 |                                                 |
| \\      /  F ield         | OpenFOAM: The Open Source CFD Toolbox           |
|  \\    /   O peration     | Version:  2212                                  |
|   \\  /    A nd           | Website:  www.openfoam.com                      |
|    \\/     M anipulation  |                                                 |
\*---------------------------------------------------------------------------*/
FoamFile
{
    version     2.0;
    format      ascii;
    arch        "LSB;label=32;scalar=64";
    class       volScalarField;
    location    "0.032";
    object      k;
}
// * * * * * * * * * * * * * * * * * * * * * * * * * * * * * * * * * * * * * //

dimensions      [0 2 -2 0 0 0 0];

internalField   nonuniform List<scalar> 
31639
(
0.0222763
0.0217547
0.0221113
0.0228828
0.0220448
0.0215547
0.0217584
0.0224643
0.0222601
0.0225549
0.0225801
0.0224907
0.0219287
0.0226788
0.0214626
0.0214396
0.0223789
0.0217857
0.0212388
0.0218305
0.0202605
0.0226888
0.0227483
0.021373
0.0212277
0.0221381
0.0217997
0.0188838
0.0217192
0.022823
0.0225712
0.0216018
0.0226897
0.0212682
0.0207293
0.0227732
0.0198518
0.023006
0.0226345
0.0196373
0.0206577
0.0205593
0.0224168
0.0226386
0.0227043
0.0225813
0.0215164
0.0217741
0.0223385
0.0228116
0.0225095
0.0197623
0.0229635
0.0202173
0.0215672
0.0222545
0.0203862
0.0219074
0.021734
0.0203423
0.0220579
0.022573
0.0212883
0.0216961
0.0222342
0.022797
0.0219748
0.0219074
0.0209995
0.0227699
0.022732
0.0209449
0.022342
0.0218533
0.0228592
0.0207028
0.0225357
0.0218093
0.021546
0.0225778
0.0211951
0.0195842
0.0226653
0.0221347
0.0220727
0.0225148
0.0227787
0.0226536
0.0207703
0.0229098
0.0220111
0.0220459
0.0204698
0.0216373
0.0209144
0.0215504
0.0218453
0.021847
0.0219861
0.0204151
0.0228825
0.0225321
0.0215418
0.0201907
0.0203815
0.0226381
0.0201511
0.020016
0.0210478
0.0202196
0.0221531
0.0204611
0.0216854
0.0215425
0.0218589
0.0201576
0.0218792
0.0218678
0.022647
0.021727
0.0224865
0.0224855
0.0223355
0.0222177
0.0220831
0.0227419
0.0218537
0.0211304
0.0209228
0.0223879
0.0225154
0.0223413
0.0224164
0.0216604
0.0224666
0.0219051
0.0203677
0.0201
0.0224277
0.0218737
0.0218312
0.0225637
0.02258
0.0200518
0.0198546
0.0227419
0.0225212
0.0205677
0.0204031
0.0225823
0.0211905
0.0221157
0.0212956
0.022413
0.0207397
0.0227954
0.0219761
0.0209947
0.0206885
0.0213494
0.0225866
0.0208838
0.0211779
0.0202798
0.0206277
0.0215917
0.020701
0.0227998
0.0224515
0.0200691
0.0209679
0.0213563
0.0207066
0.0219275
0.0228676
0.0225327
0.0220189
0.0228512
0.021997
0.0217992
0.0215839
0.0216994
0.0212436
0.0198067
0.0222369
0.0229046
0.0213956
0.0227624
0.0206014
0.0203256
0.0231701
0.0225552
0.0222826
0.0217056
0.0218418
0.0216423
0.0216706
0.0223527
0.0202283
0.0216368
0.0226788
0.0229176
0.0220626
0.022131
0.0221212
0.0218213
0.0215596
0.0213942
0.0225255
0.0198663
0.0217378
0.021748
0.0221915
0.0225671
0.0224567
0.0226217
0.020751
0.0213751
0.0226114
0.0225741
0.0222365
0.0218244
0.0202459
0.0219281
0.0202907
0.0220438
0.0224918
0.0213485
0.0206247
0.0224225
0.0222119
0.0229446
0.0207694
0.0204446
0.0222675
0.0223571
0.0203256
0.0226012
0.021265
0.0201369
0.0215582
0.0221737
0.0217227
0.0214424
0.0213954
0.0224368
0.021459
0.0213357
0.0204874
0.0217276
0.0213115
0.0208002
0.0214773
0.0228296
0.0226569
0.0216003
0.0207557
0.0223199
0.0222465
0.0220253
0.0228545
0.0225671
0.0223336
0.0226288
0.0215406
0.0219002
0.0200043
0.0212612
0.0223957
0.0213284
0.0221062
0.0214853
0.0221222
0.0229862
0.0228465
0.0220387
0.0203957
0.0217891
0.0210964
0.0225468
0.0218684
0.0227093
0.0228817
0.0216145
0.0205496
0.0212328
0.0207424
0.0203457
0.0224366
0.0208849
0.0228333
0.0215507
0.0213911
0.0208043
0.0230042
0.0215813
0.0216725
0.022666
0.0221807
0.0213216
0.0217587
0.0207841
0.0218074
0.0215322
0.020698
0.0216689
0.0214439
0.0194352
0.0200517
0.0224738
0.0227574
0.0221807
0.0202844
0.0208945
0.0223446
0.0208705
0.0208296
0.0227392
0.0228558
0.0214517
0.02258
0.0227852
0.0206676
0.0227223
0.0201426
0.0202981
0.0226086
0.0224255
0.0225036
0.0227882
0.0224364
0.0207896
0.0215939
0.0215737
0.0226593
0.0229606
0.0229515
0.0216113
0.0212387
0.0222404
0.0223602
0.0221799
0.0213181
0.0218031
0.0214696
0.0218338
0.022385
0.0213416
0.0206624
0.0224114
0.0230245
0.0216132
0.0228654
0.022566
0.0216952
0.0207006
0.0216333
0.021678
0.0202726
0.0228806
0.020826
0.0222101
0.0225175
0.0200327
0.0218038
0.0217099
0.0203759
0.0220798
0.020801
0.021848
0.0229102
0.0224129
0.0200314
0.022188
0.0207707
0.0222068
0.022543
0.0227013
0.0226916
0.0208811
0.0222671
0.0202042
0.0214981
0.0201753
0.0226778
0.0223814
0.0225999
0.0225011
0.0210166
0.0229473
0.0217673
0.0222465
0.0216502
0.021124
0.0218566
0.022282
0.0220476
0.0222858
0.0221442
0.0224569
0.021785
0.0206725
0.0219936
0.0224327
0.0222712
0.0200273
0.0226822
0.02249
0.021753
0.0219885
0.0221924
0.0221496
0.0226503
0.0202108
0.022223
0.0226584
0.0200764
0.0220507
0.0221521
0.0208316
0.0203157
0.0204065
0.0216453
0.0204458
0.0217403
0.0215415
0.0215605
0.0229143
0.0205751
0.0224238
0.0227142
0.0217703
0.0223861
0.0216434
0.022667
0.0218283
0.0221893
0.0227892
0.0217171
0.0204464
0.0218195
0.0227855
0.0225415
0.0223975
0.0228245
0.0214077
0.0222197
0.0224755
0.0228578
0.0229067
0.0206886
0.0216721
0.0197358
0.0219925
0.0215694
0.0206466
0.0203744
0.0216287
0.0223218
0.02254
0.0204333
0.0223621
0.021464
0.0216619
0.0224963
0.0177645
0.0215609
0.0202572
0.0214074
0.0225189
0.0229756
0.022294
0.0219331
0.0198925
0.0223782
0.021769
0.0223189
0.0203253
0.0206666
0.0216697
0.0205294
0.0207496
0.0221736
0.0202987
0.0215884
0.0202483
0.0224047
0.0205118
0.0227728
0.02247
0.0224739
0.0226029
0.0213428
0.0225108
0.0226666
0.022134
0.02257
0.0218631
0.0224267
0.023094
0.0215253
0.0226466
0.0227574
0.0216678
0.0210563
0.0228079
0.0218218
0.0198688
0.0202148
0.0218892
0.0227792
0.0227191
0.0216313
0.023078
0.0231848
0.0223121
0.0220075
0.0218174
0.0218204
0.0208032
0.0216586
0.0223107
0.0228397
0.0212431
0.0209903
0.020909
0.021244
0.0216165
0.0197789
0.0223882
0.0214173
0.022272
0.0218658
0.0224101
0.021952
0.0207003
0.022093
0.0226042
0.020996
0.0224836
0.0229309
0.0216392
0.0216176
0.018988
0.0210341
0.0216966
0.0218457
0.0207512
0.020626
0.0218913
0.0208852
0.0223479
0.021278
0.0218346
0.0225857
0.0217558
0.0202235
0.0214929
0.0219104
0.0226757
0.0204877
0.0196667
0.0225748
0.0203454
0.0219932
0.0229691
0.0204955
0.0217612
0.0228596
0.022071
0.0204872
0.0225858
0.0220759
0.0203731
0.022462
0.0219975
0.0215321
0.0223844
0.019976
0.0212643
0.0219
0.0216437
0.0217029
0.0222562
0.0230548
0.0225233
0.0222844
0.0227603
0.0225072
0.0223596
0.0212421
0.0222811
0.0228085
0.0232211
0.0210042
0.0218806
0.0221176
0.0233076
0.0207795
0.0199582
0.0227398
0.0208636
0.0229499
0.0214083
0.0205755
0.0219688
0.0225582
0.0221614
0.0222758
0.020095
0.0223942
0.0219891
0.0201643
0.0227263
0.0224957
0.0185767
0.0206651
0.020987
0.0217201
0.0219144
0.0218935
0.0217241
0.0218236
0.0224906
0.0218471
0.0217707
0.020751
0.0227716
0.0203332
0.0218018
0.0218391
0.0215396
0.0229421
0.0217792
0.0210815
0.020192
0.0207577
0.0218039
0.0226214
0.0207241
0.0228276
0.0220427
0.0224196
0.0206275
0.0214115
0.0224103
0.0228599
0.022606
0.0222855
0.0218939
0.0219884
0.0229109
0.0228778
0.0227226
0.0212075
0.0225217
0.020612
0.0227338
0.022671
0.0216513
0.0208342
0.0214628
0.0196238
0.0226084
0.0221676
0.0230185
0.0217601
0.0212373
0.0204767
0.0224182
0.0202058
0.01991
0.0209462
0.0213426
0.0206352
0.0217915
0.0204855
0.0221166
0.0222677
0.019813
0.0228576
0.0207441
0.0211328
0.0213749
0.0213936
0.0224421
0.0226593
0.0228265
0.0227149
0.0217289
0.0218121
0.0216665
0.0216596
0.0201662
0.0164418
0.0227442
0.0216151
0.0224417
0.022544
0.0204494
0.02264
0.0228205
0.022352
0.0223826
0.0223191
0.0220308
0.0227596
0.0228883
0.021934
0.0225942
0.0225941
0.0208703
0.0225785
0.0214905
0.0224462
0.0212129
0.0216548
0.0212101
0.0230034
0.0215646
0.0219299
0.0219609
0.0208432
0.022795
0.0221093
0.0215589
0.0206785
0.0222748
0.0200279
0.0224225
0.0225168
0.0212813
0.0229351
0.0229237
0.0228727
0.0204281
0.0218037
0.0220516
0.022048
0.02078
0.0223286
0.0225032
0.021263
0.0218251
0.0211617
0.0223625
0.0216549
0.0216971
0.0200653
0.0223484
0.022208
0.0224771
0.0213836
0.0217321
0.0219977
0.0217181
0.0214264
0.0220771
0.0223942
0.021595
0.0200398
0.020111
0.021544
0.019806
0.0204383
0.0221045
0.0220577
0.0224069
0.0199915
0.0215209
0.0226665
0.0208039
0.020204
0.021838
0.0207814
0.0225372
0.0210829
0.0227652
0.0213027
0.0214599
0.0228068
0.0200844
0.0214162
0.0215025
0.0224842
0.0227618
0.0226207
0.0209075
0.0222525
0.0227753
0.021497
0.0227934
0.0224536
0.0223454
0.0226902
0.0218354
0.0230838
0.0229318
0.0230185
0.0222016
0.0215355
0.021989
0.0217184
0.0203388
0.0213762
0.0223356
0.0225092
0.0229571
0.0216883
0.022856
0.0225399
0.0212141
0.0225993
0.0225809
0.0224063
0.0225524
0.0205669
0.0214832
0.0225762
0.019977
0.0219046
0.0216393
0.0218354
0.0215507
0.0227721
0.0222998
0.0224601
0.021744
0.0223546
0.0219697
0.022687
0.0219718
0.0217461
0.0207144
0.0225826
0.020946
0.0214728
0.0218886
0.0213854
0.0220763
0.0228457
0.0206617
0.0228299
0.0206799
0.0219892
0.0218276
0.0215446
0.0216772
0.0227303
0.0204814
0.0223705
0.0226084
0.0228951
0.0220531
0.0221565
0.0198314
0.0227012
0.0225512
0.0222872
0.0223225
0.0225143
0.0218081
0.0223382
0.021898
0.0207772
0.0218457
0.0227813
0.0200558
0.0210169
0.0232932
0.0224971
0.0213101
0.0215582
0.0221491
0.0213158
0.0215763
0.0208965
0.0224725
0.022891
0.0199634
0.0220684
0.0225642
0.0225837
0.0230504
0.0214384
0.0225283
0.0209125
0.0208269
0.0228254
0.0226047
0.0215991
0.020706
0.0223518
0.0225785
0.0212685
0.0227192
0.0225243
0.0226037
0.0223169
0.0224716
0.0220336
0.0219417
0.0214944
0.0213441
0.020265
0.0220447
0.0219107
0.0207224
0.0226142
0.0202466
0.0214153
0.0217645
0.0206976
0.0216592
0.0214788
0.022211
0.0220787
0.0225689
0.0206321
0.0207138
0.0216524
0.0204541
0.0212388
0.0225421
0.0215934
0.0226369
0.0221519
0.0217268
0.0227853
0.021567
0.0221206
0.0216244
0.0216716
0.0222503
0.021055
0.0219429
0.0224732
0.0226469
0.0229346
0.0206626
0.0203514
0.0217752
0.0225874
0.0208229
0.0214577
0.0224075
0.0217506
0.0232167
0.0217413
0.021449
0.0225635
0.0204877
0.0225871
0.0229889
0.0207706
0.0213133
0.0216252
0.0215539
0.0228789
0.0227667
0.0223974
0.0209836
0.0224928
0.0204689
0.0216352
0.0227736
0.0215631
0.0231514
0.0201696
0.0217735
0.0222738
0.0219054
0.0203847
0.0202425
0.0225081
0.0227716
0.0215825
0.0227071
0.0222454
0.0216321
0.0206105
0.0211786
0.022207
0.0218424
0.0217982
0.0229044
0.0225808
0.0231879
0.0227048
0.022203
0.0222556
0.0223162
0.0208336
0.022632
0.0222586
0.0219323
0.0221545
0.0228604
0.0218698
0.0227244
0.0216334
0.0199094
0.0229261
0.0214516
0.0226968
0.0215001
0.022472
0.0208907
0.0222572
0.0231942
0.0218495
0.021825
0.0204703
0.0223868
0.0227605
0.0220974
0.0204917
0.0232917
0.0218708
0.0220178
0.0227892
0.0226371
0.0224416
0.0216723
0.0220425
0.0231281
0.0208748
0.021031
0.0208093
0.0211962
0.0220792
0.0203331
0.0228294
0.0225999
0.0230988
0.0216042
0.0217205
0.0218998
0.0226296
0.0219213
0.0222105
0.0227051
0.0229646
0.0220983
0.0225054
0.0218457
0.0215344
0.0222653
0.0215413
0.0230069
0.0228845
0.0228346
0.0229809
0.0227
0.0213452
0.023118
0.0221244
0.0221506
0.0214937
0.022088
0.0228955
0.0217962
0.0224532
0.0215738
0.02181
0.0223691
0.021055
0.0205711
0.0216074
0.0218971
0.0230287
0.0214626
0.0202802
0.0221773
0.0225607
0.0212515
0.0214906
0.0218791
0.0228406
0.0227407
0.0214727
0.0214403
0.0218345
0.0226669
0.0215712
0.0220195
0.0219667
0.0204023
0.0216945
0.0216564
0.0224464
0.0226817
0.0219217
0.0228229
0.0224972
0.0218061
0.0221563
0.0205903
0.0209495
0.0204166
0.0228925
0.0220973
0.0229713
0.0235564
0.0224497
0.0203634
0.0225069
0.0216577
0.0224314
0.0223102
0.0224102
0.0204281
0.0229166
0.0207133
0.0218476
0.0220565
0.0219457
0.0231862
0.0217864
0.0224507
0.0207691
0.0217179
0.0221181
0.0227666
0.0212017
0.0212676
0.0222417
0.0226178
0.0223233
0.0222466
0.0228485
0.0207097
0.0220048
0.0217168
0.0213025
0.0224561
0.0229842
0.0228547
0.0225391
0.0229553
0.0208587
0.0207714
0.0208353
0.0229948
0.0205384
0.0223686
0.0221837
0.0206522
0.0215664
0.0224923
0.0227359
0.0212875
0.0215502
0.0214465
0.0219427
0.0228906
0.0220951
0.020667
0.0218889
0.0230549
0.0227451
0.0231352
0.0227999
0.0234068
0.0228733
0.022706
0.021069
0.0205103
0.0219962
0.0212782
0.0228994
0.0207622
0.0220933
0.0217913
0.0228097
0.0210393
0.0224746
0.0224654
0.0222391
0.0217781
0.020729
0.0226312
0.0216257
0.023094
0.0220133
0.0231373
0.0228621
0.0219496
0.0205019
0.0206815
0.0216467
0.0223578
0.0214409
0.0232713
0.0209128
0.0226124
0.0223494
0.021701
0.0221999
0.022576
0.022813
0.022765
0.022922
0.0220943
0.022241
0.0204115
0.021404
0.0227858
0.0210474
0.0223512
0.0216508
0.0207542
0.021747
0.0215242
0.0216972
0.0223023
0.02255
0.0208775
0.0216253
0.0219915
0.0207196
0.0214214
0.0216143
0.0218719
0.0223954
0.0208237
0.0207484
0.021757
0.0216265
0.0227471
0.0230577
0.0227035
0.0213661
0.021518
0.0219258
0.0212835
0.0228252
0.0207309
0.021839
0.0218643
0.0229099
0.0225983
0.0220351
0.0222089
0.0227135
0.0207986
0.0220349
0.0228626
0.021459
0.01942
0.0218923
0.0208131
0.0221605
0.0202801
0.0229388
0.0229996
0.0228789
0.0220476
0.0208104
0.0205439
0.0225939
0.0229924
0.0229456
0.0219918
0.0222529
0.0222397
0.0230122
0.0226414
0.0203042
0.0221117
0.0220533
0.0222164
0.0216329
0.0224557
0.0201497
0.0229284
0.0225861
0.0220078
0.0220285
0.0223808
0.0218292
0.0228743
0.0222953
0.0209196
0.0216986
0.0224927
0.0215936
0.0220455
0.0223176
0.0203192
0.0208084
0.0227319
0.0230233
0.0226274
0.0229853
0.0223834
0.0225579
0.0221801
0.021993
0.0221791
0.0226365
0.0215856
0.0219776
0.0212239
0.0218398
0.0226461
0.02013
0.0221077
0.0202672
0.0225795
0.0203266
0.020462
0.0215865
0.0200043
0.0221625
0.0222363
0.022572
0.0226034
0.0213865
0.0211638
0.0232062
0.0214539
0.0209303
0.0220329
0.0212882
0.0227666
0.0223558
0.0221714
0.0208337
0.0227013
0.0226919
0.0227853
0.0205195
0.0212855
0.0219748
0.0226661
0.0231857
0.0205932
0.0204871
0.0227344
0.0222885
0.022908
0.0217956
0.0200892
0.0223511
0.0226459
0.020518
0.0202438
0.0226501
0.0208123
0.0207801
0.0226757
0.0230409
0.0222956
0.0232461
0.0216314
0.0217497
0.0227564
0.0213454
0.0226989
0.0215096
0.0222829
0.0226901
0.0215559
0.0205194
0.0223809
0.0224987
0.0215249
0.0217152
0.0219629
0.0212481
0.0200102
0.0220678
0.0224627
0.0227701
0.0215073
0.0223056
0.0204432
0.0223937
0.0230091
0.0203691
0.0227797
0.0220135
0.019667
0.0204983
0.0219543
0.0217645
0.0224864
0.0216404
0.020886
0.0225473
0.0230176
0.0228333
0.0222867
0.0227292
0.0205275
0.0227448
0.0218249
0.0205862
0.0206646
0.0195843
0.0205972
0.0222328
0.0217461
0.0221882
0.0218817
0.0209143
0.0211852
0.0201003
0.0201227
0.023239
0.0230701
0.0209069
0.022878
0.022785
0.0209185
0.0217405
0.0221824
0.0212809
0.0214054
0.0226894
0.0211415
0.0201529
0.0227763
0.0230576
0.0214631
0.0228266
0.0218571
0.0211395
0.0208112
0.0218659
0.0204879
0.0207108
0.0220379
0.0221428
0.0217146
0.0229038
0.0227537
0.0217556
0.0228262
0.0163068
0.021882
0.0204538
0.0218166
0.0228989
0.0216117
0.0213424
0.0216457
0.0207175
0.0221306
0.0217277
0.0212934
0.0206272
0.0198961
0.0199071
0.0216081
0.0205776
0.0218818
0.0205227
0.0216912
0.0226716
0.0222596
0.0218002
0.0220209
0.0224112
0.0217685
0.022434
0.0203356
0.0219921
0.0228431
0.02281
0.0215369
0.0231731
0.0210605
0.0226392
0.021626
0.0204052
0.0226768
0.0228272
0.0222322
0.0223011
0.022825
0.0222538
0.0199692
0.0200382
0.0215485
0.0229658
0.0221491
0.0224914
0.0214948
0.0216816
0.0210514
0.0203932
0.0203723
0.0204349
0.0223236
0.0220379
0.0227559
0.021379
0.0215865
0.0231253
0.0205546
0.0218683
0.0229544
0.0228156
0.0210728
0.0214966
0.0224538
0.0229074
0.0228308
0.018769
0.0222337
0.022574
0.0222367
0.0218998
0.0232258
0.0226347
0.0227913
0.0220246
0.0213152
0.0218611
0.0229092
0.0223236
0.0217597
0.0205673
0.0226336
0.0226387
0.0228424
0.0224322
0.0202215
0.0197032
0.0215905
0.0224453
0.0220039
0.0219819
0.022386
0.0224273
0.0224569
0.0215233
0.0224711
0.0219337
0.022634
0.0207799
0.0207545
0.0214388
0.023045
0.0207148
0.0225599
0.0206172
0.0217638
0.0218523
0.0230449
0.0218404
0.0225105
0.022933
0.0226793
0.0221166
0.0226191
0.0219013
0.0215513
0.0200577
0.022934
0.0196194
0.020514
0.0190726
0.0199761
0.0202536
0.0216376
0.0220018
0.0206851
0.0214912
0.0196786
0.0208962
0.021431
0.0227747
0.0202496
0.0205965
0.0224373
0.0202734
0.0216385
0.0225227
0.0223871
0.0217071
0.0207145
0.0202733
0.0214491
0.0229711
0.0212634
0.0205698
0.0223113
0.021544
0.0220963
0.0216901
0.0208497
0.02286
0.0200696
0.0205759
0.0218922
0.0229059
0.0215677
0.0218204
0.0219784
0.0218811
0.0199519
0.0209368
0.0214959
0.0227996
0.022337
0.0204738
0.0198692
0.0218272
0.0228642
0.0216083
0.0217896
0.0213674
0.0213988
0.0216682
0.0204338
0.0227515
0.0214071
0.0204648
0.0197934
0.0223426
0.0217947
0.0228738
0.0220081
0.0225368
0.0205207
0.0217805
0.0200417
0.0198503
0.0228126
0.0208546
0.0219006
0.0218438
0.0216004
0.0205159
0.0228075
0.0225051
0.0228164
0.0222274
0.019378
0.0218411
0.0199547
0.0229645
0.0207239
0.0228061
0.0197088
0.0221495
0.0226136
0.0215341
0.0216094
0.0199185
0.021279
0.0217451
0.0225471
0.0223281
0.0227722
0.0228399
0.0205301
0.0228466
0.0199425
0.0220423
0.0221972
0.0226134
0.0227015
0.0215795
0.0229823
0.0217549
0.0213046
0.0212951
0.0220407
0.0227805
0.021155
0.0209052
0.0228161
0.0224579
0.021678
0.0231196
0.0221436
0.0222807
0.0226076
0.022533
0.0228082
0.0215807
0.0213655
0.0226649
0.0225659
0.0197867
0.0216113
0.0211856
0.0229104
0.0220863
0.0225219
0.0206228
0.020502
0.0219189
0.0223529
0.022556
0.0227725
0.022615
0.0219694
0.0223193
0.0206994
0.0222837
0.0217937
0.0227205
0.02278
0.0227277
0.0220442
0.022754
0.0211022
0.0227301
0.0211166
0.0215081
0.0215742
0.0219141
0.0214298
0.0223884
0.0203977
0.0226272
0.0225912
0.0218419
0.0205729
0.0230274
0.0222893
0.0226768
0.0217003
0.0218657
0.0225516
0.0203766
0.0227196
0.0219416
0.0220276
0.0211131
0.0212278
0.0213263
0.0204013
0.0214629
0.0229788
0.0220314
0.0199352
0.0223826
0.0202828
0.0221869
0.0221121
0.0200732
0.0202008
0.021384
0.022045
0.0225681
0.0214936
0.0219855
0.0218393
0.0198666
0.0215161
0.0227266
0.0227328
0.0227364
0.0221196
0.0222663
0.0206431
0.0205483
0.0229613
0.0218244
0.0222562
0.0225419
0.0231123
0.0219556
0.022025
0.0200047
0.0223243
0.0226415
0.0214694
0.0227993
0.0225786
0.0221755
0.0210368
0.0224057
0.0216423
0.0199065
0.0219217
0.0208869
0.0204959
0.0222369
0.0219285
0.0227865
0.0227107
0.0220704
0.0229193
0.0197728
0.0214982
0.0229529
0.0229752
0.0202417
0.022228
0.0207725
0.021148
0.0226977
0.0214326
0.0222387
0.0231055
0.0223674
0.0199079
0.0225152
0.0205439
0.0225755
0.0222352
0.0220203
0.0225586
0.0220023
0.0225675
0.0205147
0.0226491
0.0227373
0.020782
0.0221407
0.0217695
0.0217325
0.0225802
0.0218159
0.0225275
0.0229139
0.0227644
0.021802
0.022801
0.0218498
0.0222942
0.0211468
0.0210838
0.020407
0.0200375
0.0221891
0.0222652
0.0217558
0.0228509
0.0212483
0.0228066
0.0201116
0.0230254
0.0229077
0.0223278
0.0227392
0.0210909
0.0200721
0.0216858
0.0205345
0.0225004
0.0219016
0.0201083
0.0216252
0.0230263
0.0225328
0.0202716
0.0211722
0.0199462
0.0231099
0.0204496
0.022599
0.0208966
0.0207356
0.0228446
0.0228435
0.0227319
0.0223235
0.020374
0.0221818
0.0229521
0.0208067
0.0228172
0.0222896
0.0230164
0.0199633
0.0222839
0.0214409
0.0222897
0.0216109
0.0214868
0.0215054
0.0214967
0.0217653
0.0217184
0.0221852
0.0216111
0.0229231
0.0208957
0.0216738
0.0219225
0.0224306
0.022976
0.0207347
0.022371
0.0205864
0.0214696
0.0227011
0.0228229
0.0219008
0.0221893
0.0224026
0.0213846
0.0216558
0.0217643
0.0204059
0.0202326
0.0221541
0.0225355
0.0211796
0.0216304
0.0225747
0.0206235
0.0220433
0.0207374
0.0222834
0.0228392
0.0218682
0.0203571
0.0225753
0.0203367
0.0222217
0.0229046
0.0198875
0.0231472
0.0208064
0.0215206
0.021628
0.0203529
0.0213811
0.0212341
0.0199671
0.0228176
0.0228824
0.0196293
0.0214545
0.0221786
0.0221768
0.022156
0.0230421
0.022707
0.0214599
0.0211494
0.0202059
0.0198843
0.0190732
0.0229074
0.0223377
0.0222542
0.0222913
0.0203904
0.0203906
0.0215807
0.0227518
0.0199279
0.0222096
0.0216837
0.021883
0.0221711
0.0211459
0.022419
0.0213907
0.021924
0.0230271
0.0194161
0.0218069
0.022479
0.0225872
0.0222219
0.0225461
0.0220524
0.0204486
0.0230462
0.0234527
0.0217545
0.0218266
0.0208687
0.0216023
0.0222985
0.0226617
0.0218363
0.0216405
0.0214054
0.0201508
0.0215493
0.0228525
0.0220901
0.0231447
0.0220179
0.021954
0.0230018
0.0206273
0.022515
0.020382
0.0229735
0.0223545
0.0214778
0.0232595
0.0213817
0.0218684
0.0230041
0.0216192
0.022814
0.0221115
0.0224298
0.020515
0.021826
0.0216377
0.021073
0.0224712
0.0212776
0.0213671
0.0229518
0.0206168
0.0227262
0.0218001
0.022732
0.0214826
0.0221405
0.0205989
0.0208565
0.0230059
0.0205957
0.0217411
0.0225506
0.0203425
0.0218205
0.0225328
0.0214119
0.020611
0.0212621
0.0217411
0.021467
0.0224599
0.021858
0.0227488
0.0219198
0.0226809
0.0199921
0.0207652
0.0229106
0.021513
0.0203046
0.0206748
0.021931
0.0185242
0.0202252
0.0217553
0.0216581
0.022913
0.021068
0.0225425
0.0227461
0.0228893
0.0225375
0.0228194
0.0214675
0.021142
0.0224159
0.0215391
0.0212322
0.0226871
0.0216324
0.0200719
0.0202467
0.0216846
0.0190155
0.0224412
0.0224566
0.0211883
0.0224447
0.0225268
0.0223025
0.0232446
0.0215875
0.0205004
0.0213647
0.0216392
0.0224867
0.0211991
0.022136
0.0229114
0.0216774
0.0214461
0.0219214
0.0229455
0.0224894
0.0234478
0.0228244
0.0219943
0.0222188
0.0209225
0.0215766
0.0228636
0.0211175
0.02286
0.0212065
0.0224458
0.0197351
0.022393
0.0217199
0.0224334
0.0213401
0.0222747
0.0216864
0.0224525
0.0197415
0.0210582
0.0217121
0.0214779
0.0219666
0.0219146
0.02187
0.0227638
0.0221726
0.0202901
0.0212698
0.0204529
0.022021
0.0218503
0.020611
0.0233079
0.0218745
0.0218855
0.022576
0.0210936
0.0207086
0.0227707
0.0206273
0.0201484
0.0200711
0.020113
0.0202062
0.0213735
0.0228458
0.0225388
0.0217425
0.0219807
0.0224275
0.021556
0.0223932
0.0201559
0.0226364
0.0168213
0.0224727
0.020306
0.0203046
0.0225127
0.0202881
0.0219694
0.022342
0.0225364
0.0210807
0.0219854
0.021589
0.021677
0.020618
0.0224342
0.0220661
0.0225825
0.0219064
0.0205365
0.0221461
0.0215969
0.021598
0.0201622
0.0209503
0.0208204
0.0200631
0.0202805
0.0217421
0.0215496
0.0206602
0.0214953
0.0227526
0.0226631
0.0229505
0.0167276
0.0203034
0.0227339
0.0204671
0.0225326
0.0201243
0.0227621
0.0225904
0.0225936
0.0204921
0.0218267
0.0228898
0.0228568
0.0222477
0.0227367
0.0217617
0.0220847
0.0216283
0.0203204
0.0221206
0.0214052
0.0215715
0.0216225
0.0205209
0.0216292
0.0226316
0.0211378
0.0211241
0.0203777
0.0222698
0.0222679
0.0199798
0.0217076
0.0217517
0.0223643
0.0205974
0.0219343
0.0219666
0.0232987
0.01817
0.0219989
0.0216073
0.0202598
0.0226314
0.0209132
0.0208149
0.0222414
0.0227997
0.0201174
0.0226791
0.0220909
0.0204618
0.020201
0.0227376
0.0227802
0.0202907
0.0218188
0.0201048
0.0210159
0.022867
0.0214048
0.0222733
0.0225031
0.0228358
0.02136
0.0214164
0.0213079
0.0218547
0.0220685
0.0212765
0.0224983
0.0204607
0.0207316
0.0219976
0.0217582
0.0222571
0.0214288
0.0223412
0.0224464
0.0218387
0.022708
0.0223086
0.0215667
0.0210803
0.0223332
0.0214712
0.021074
0.0221295
0.0229051
0.0224361
0.0218908
0.0205215
0.0222132
0.0211981
0.0202721
0.0214067
0.0219333
0.0202882
0.0222586
0.0210282
0.0194721
0.0201663
0.0223123
0.0191199
0.0215537
0.0225064
0.0221504
0.0204253
0.0222375
0.0233803
0.0205175
0.0201535
0.0206734
0.022543
0.0217217
0.0215672
0.0226638
0.0203001
0.0224278
0.0217565
0.0228538
0.0229762
0.0170705
0.0218345
0.0224407
0.0226073
0.0217153
0.0214763
0.0185801
0.0220568
0.0227591
0.0213068
0.0201747
0.0217551
0.0224598
0.0220787
0.0201757
0.0220491
0.0224225
0.0226803
0.0215919
0.0220093
0.020028
0.0203647
0.0203033
0.0218342
0.0214927
0.0221576
0.0229048
0.0226314
0.0195182
0.0225853
0.0226542
0.0222211
0.0214864
0.0225437
0.0210907
0.020682
0.0214261
0.0219368
0.0210982
0.0199781
0.0222361
0.021537
0.0224945
0.0208809
0.0194769
0.0212522
0.0226451
0.0222871
0.0210506
0.0214538
0.0225812
0.0226341
0.0212264
0.0214976
0.0224427
0.0228546
0.0223321
0.0228727
0.0222598
0.0221094
0.0200674
0.0217713
0.0205645
0.0224937
0.0222477
0.021275
0.0203897
0.0229694
0.0201345
0.0214495
0.0205348
0.0216767
0.0196081
0.0219583
0.0216911
0.0217338
0.0217491
0.0210177
0.0226962
0.0205582
0.0223399
0.0216085
0.0216101
0.0198302
0.0224311
0.0219732
0.0205344
0.0210789
0.0217807
0.0217242
0.0221236
0.0183209
0.0220607
0.0215325
0.0217396
0.0211387
0.0212532
0.0212064
0.0184618
0.0226417
0.02177
0.0140308
0.0205913
0.0222607
0.0225848
0.0223374
0.0207735
0.0185363
0.0225127
0.0205209
0.0224169
0.0228443
0.0220834
0.0208297
0.0225897
0.020188
0.0197297
0.0198481
0.022125
0.021594
0.0213799
0.0228972
0.0223806
0.0220374
0.0209177
0.0197442
0.0230369
0.021893
0.0231053
0.0224413
0.0204698
0.0214444
0.0220359
0.0204248
0.0217425
0.0213552
0.0218971
0.0235799
0.0218569
0.0217194
0.0203468
0.0218402
0.0213454
0.0223109
0.0215572
0.0201891
0.0206962
0.0221029
0.0223642
0.0205626
0.0223272
0.0210545
0.0221995
0.0209358
0.020803
0.0185322
0.0227616
0.0225009
0.0221577
0.0227173
0.0214777
0.0207137
0.0199507
0.0187199
0.0219851
0.0201465
0.0216523
0.0213875
0.02262
0.0215349
0.022457
0.0210728
0.0146198
0.0205548
0.0225099
0.0154222
0.021852
0.0230238
0.0220538
0.0228403
0.0203195
0.0206174
0.0208816
0.0228691
0.0184004
0.0229341
0.0205327
0.0191695
0.0224217
0.0206734
0.0225949
0.0151414
0.0197347
0.0220735
0.022496
0.0228088
0.0222452
0.0226435
0.0221555
0.0221045
0.0225002
0.0223417
0.0215728
0.0212876
0.0184974
0.022477
0.0212446
0.0212214
0.0227786
0.0228203
0.0221682
0.0203249
0.0226944
0.0222478
0.0215372
0.0206536
0.020109
0.0222603
0.0227865
0.0225164
0.0226195
0.0220008
0.0218709
0.0202524
0.0224772
0.0218017
0.0220097
0.0215173
0.0201163
0.0190881
0.0213438
0.0232382
0.0222042
0.0218761
0.0207099
0.0212471
0.0209777
0.020391
0.0225872
0.0214239
0.0174249
0.0180868
0.0195445
0.0205383
0.0222632
0.0216334
0.021919
0.0212692
0.0194971
0.0219774
0.0225153
0.0197023
0.0231768
0.0200616
0.0227635
0.0208934
0.0224767
0.0225008
0.0218761
0.0222588
0.0213761
0.0206497
0.0208403
0.0212385
0.0222545
0.0219195
0.0207872
0.0209773
0.0219521
0.0201381
0.0217683
0.0208215
0.0224987
0.0211281
0.0215606
0.0177712
0.0225687
0.0229157
0.0218798
0.0223015
0.0213327
0.0215647
0.022451
0.022162
0.0220461
0.0228853
0.0218972
0.0202176
0.0200236
0.0233155
0.0202632
0.0202193
0.0199453
0.022239
0.0228326
0.0218298
0.0228822
0.0233109
0.0227973
0.0221897
0.0213121
0.0203252
0.0219099
0.0194561
0.0220676
0.021887
0.0214726
0.0213707
0.0208588
0.0217188
0.0229093
0.0196201
0.0210986
0.021821
0.019811
0.0225769
0.0190751
0.0195554
0.0201901
0.0225128
0.0206257
0.0202628
0.0207491
0.0199223
0.0217838
0.0183076
0.0185828
0.0217377
0.0203561
0.0197058
0.0216193
0.0204517
0.0210647
0.0217673
0.0209662
0.0201967
0.021988
0.0207358
0.0211488
0.020184
0.021285
0.0213026
0.0189122
0.022707
0.0216182
0.0219715
0.0210894
0.0204758
0.020154
0.021573
0.0215264
0.0226978
0.0218846
0.0223737
0.0211283
0.0217673
0.0225384
0.0225336
0.0183604
0.0187047
0.0199813
0.022465
0.0200804
0.0217589
0.0178584
0.0210416
0.0218896
0.0212438
0.0215628
0.0209121
0.0212698
0.0212823
0.0228501
0.0206046
0.0213186
0.0230017
0.0199435
0.0214464
0.0203447
0.0222887
0.0207598
0.0201176
0.021715
0.0202991
0.0184239
0.0191665
0.0202412
0.02101
0.0188943
0.0228145
0.0207947
0.0197744
0.021327
0.0224718
0.021387
0.0192065
0.0229585
0.0219103
0.0201427
0.0213345
0.0215749
0.0204477
0.0215261
0.0216709
0.0214775
0.0201088
0.0197581
0.0214702
0.0206192
0.0191143
0.0196124
0.0198201
0.0217894
0.0198621
0.0223712
0.0214881
0.0216302
0.0208318
0.022545
0.0201927
0.0217491
0.0209404
0.0150458
0.0226906
0.0192664
0.0217539
0.0224938
0.0226312
0.0184881
0.0223652
0.0227343
0.0204286
0.02189
0.0214257
0.0208207
0.0184674
0.0215888
0.0206483
0.0225129
0.0230827
0.0209445
0.0227746
0.0204368
0.0205606
0.0198103
0.0184692
0.0189853
0.0227436
0.0188729
0.0224
0.0206569
0.0194526
0.0211992
0.0227303
0.0188973
0.0157854
0.0204425
0.0220385
0.0224942
0.0218637
0.0145191
0.021071
0.0223069
0.0219692
0.0229108
0.0211195
0.0190625
0.0226675
0.0190402
0.0218676
0.021123
0.0209325
0.0208312
0.0220182
0.0203009
0.0201871
0.0187771
0.0203903
0.022183
0.0215644
0.0214612
0.0197927
0.0205822
0.0208924
0.0203331
0.0220582
0.0196769
0.0200723
0.0218226
0.0224634
0.0196585
0.0223327
0.0207397
0.0231524
0.0193656
0.0226408
0.0212396
0.0218487
0.0218375
0.0208233
0.0202707
0.0230953
0.021588
0.0216008
0.0213478
0.0199639
0.0222243
0.0226414
0.0198731
0.0202076
0.0208914
0.0192277
0.0207185
0.0217637
0.018473
0.0228127
0.018665
0.0209174
0.0216576
0.0190644
0.020776
0.0213003
0.0202307
0.0214205
0.0202038
0.0216121
0.0193418
0.0219951
0.01941
0.0208957
0.017284
0.0214446
0.0195642
0.020067
0.0220035
0.0199546
0.0205842
0.0229703
0.0217982
0.0219114
0.0225163
0.0189032
0.0216023
0.020565
0.0215563
0.0216477
0.0209891
0.0225825
0.0218256
0.0199375
0.0197981
0.0222218
0.0214641
0.0215971
0.0185978
0.0225181
0.0231138
0.0222015
0.021504
0.0201312
0.0204196
0.0210412
0.0198177
0.0199433
0.0220455
0.0212105
0.0207723
0.0210662
0.0210051
0.0213395
0.0193238
0.0205696
0.0200238
0.0185355
0.0227658
0.0212676
0.0203433
0.0224506
0.0213073
0.0208858
0.0219244
0.0188268
0.0200691
0.019281
0.0195325
0.0228779
0.0219034
0.018089
0.0224883
0.0191821
0.0213504
0.0216198
0.0212175
0.0223955
0.0208644
0.0215419
0.0210835
0.0208395
0.0207097
0.0222611
0.0192697
0.0197248
0.0207812
0.0186541
0.0208189
0.0189719
0.0203271
0.0225852
0.0214893
0.0179128
0.0180787
0.0199584
0.0194375
0.0206738
0.0200077
0.0209436
0.0218381
0.0182931
0.0217433
0.0211548
0.0207345
0.0192112
0.0212683
0.0189486
0.0176603
0.020082
0.0198094
0.0198322
0.0206024
0.0205306
0.0209568
0.0196303
0.0222303
0.0197917
0.0211473
0.0200501
0.0212933
0.0205671
0.019402
0.0217262
0.0210264
0.0185332
0.020029
0.0207867
0.0229626