/*--------------------------------*- C++ -*----------------------------------*\
| =========                 |                                                 |
| \\      /  F ield         | OpenFOAM: The Open Source CFD Toolbox           |
|  \\    /   O peration     | Version:  2212                                  |
|   \\  /    A nd           | Website:  www.openfoam.com                      |
|    \\/     M anipulation  |                                                 |
\*---------------------------------------------------------------------------*/
FoamFile
{
    version     2.0;
    format      ascii;
    arch        "LSB;label=32;scalar=64";
    class       volScalarField;
    location    "0.032";
    object      nut;
}
// * * * * * * * * * * * * * * * * * * * * * * * * * * * * * * * * * * * * * //

dimensions      [0 2 -1 0 0 0 0];

internalField   nonuniform List<scalar> 
31639
(
5.40748e-05
5.18984e-05
5.32236e-05
5.72387e-05
5.2249e-05
5.07984e-05
5.02222e-05
5.45505e-05
5.37829e-05
5.57368e-05
5.55141e-05
5.54083e-05
5.2848e-05
5.66162e-05
5.08315e-05
4.87951e-05
5.43205e-05
5.10342e-05
4.87673e-05
5.2212e-05
4.26893e-05
5.58279e-05
5.67536e-05
4.90967e-05
4.81373e-05
5.32005e-05
5.22295e-05
4.64396e-05
5.04923e-05
5.67731e-05
5.58623e-05
5.00183e-05
5.64977e-05
4.83425e-05
4.47941e-05
5.6552e-05
4.10891e-05
5.76384e-05
5.60889e-05
3.9578e-05
4.5025e-05
4.43561e-05
5.54044e-05
5.56905e-05
5.58416e-05
5.59001e-05
5.07376e-05
5.10951e-05
5.42951e-05
5.69039e-05
5.55677e-05
4.06637e-05
5.722e-05
4.21063e-05
5.01994e-05
5.34973e-05
4.32679e-05
5.25033e-05
5.18903e-05
4.31255e-05
5.27376e-05
5.51021e-05
4.78402e-05
5.17517e-05
5.37197e-05
5.70187e-05
5.28024e-05
5.2541e-05
4.6185e-05
5.67722e-05
5.65383e-05
4.85848e-05
5.49127e-05
5.23994e-05
5.67233e-05
4.44883e-05
5.57749e-05
5.1185e-05
5.11086e-05
5.52246e-05
4.81171e-05
3.92784e-05
5.63842e-05
5.35715e-05
5.39846e-05
5.56105e-05
5.6812e-05
5.62356e-05
4.57281e-05
5.74068e-05
5.30935e-05
5.26683e-05
4.39953e-05
5.14424e-05
4.70089e-05
5.10274e-05
5.17099e-05
5.23984e-05
5.2914e-05
4.3508e-05
5.70854e-05
5.56573e-05
5.13183e-05
4.25417e-05
4.36223e-05
5.60938e-05
4.23602e-05
4.14641e-05
4.71392e-05
4.21755e-05
5.46381e-05
4.39476e-05
5.13382e-05
4.97767e-05
5.26127e-05
4.21719e-05
5.08852e-05
5.10324e-05
5.55775e-05
5.17207e-05
5.49071e-05
5.53258e-05
5.49413e-05
5.36204e-05
5.25774e-05
5.64127e-05
5.22015e-05
4.7697e-05
4.67333e-05
5.52227e-05
5.58055e-05
5.52346e-05
5.56263e-05
5.03215e-05
5.49742e-05
5.26236e-05
4.34406e-05
4.20362e-05
5.51896e-05
5.23929e-05
5.22345e-05
5.56775e-05
5.58153e-05
4.19209e-05
4.05627e-05
5.68621e-05
5.53763e-05
4.41488e-05
4.37684e-05
5.57904e-05
4.71335e-05
5.29792e-05
4.89101e-05
5.4697e-05
4.49558e-05
5.69029e-05
5.23589e-05
4.61437e-05
4.53979e-05
4.89167e-05
5.59847e-05
4.53708e-05
4.70607e-05
4.27762e-05
4.41468e-05
5.11859e-05
4.46024e-05
5.67815e-05
5.52413e-05
4.23578e-05
4.87731e-05
5.01359e-05
4.48239e-05
5.28256e-05
5.74521e-05
5.53615e-05
5.31023e-05
5.69888e-05
5.30755e-05
5.25989e-05
5.12475e-05
5.12356e-05
5.0189e-05
4.04018e-05
5.33654e-05
5.73636e-05
5.08217e-05
5.65862e-05
4.40113e-05
4.31629e-05
5.8006e-05
5.52782e-05
5.42784e-05
5.17086e-05
5.24015e-05
5.03993e-05
5.0153e-05
5.49778e-05
4.28929e-05
5.04802e-05
5.62618e-05
5.71843e-05
5.42299e-05
5.44998e-05
5.25602e-05
5.20696e-05
5.11244e-05
5.05828e-05
5.53733e-05
4.05162e-05
5.17509e-05
5.0695e-05
5.37052e-05
5.5511e-05
5.44351e-05
5.6362e-05
4.5209e-05
4.86701e-05
5.54693e-05
5.57384e-05
5.44122e-05
5.11165e-05
4.27498e-05
5.19864e-05
4.28667e-05
5.1875e-05
5.51693e-05
4.84735e-05
4.44348e-05
5.45566e-05
5.37918e-05
5.74947e-05
4.55593e-05
4.32639e-05
5.42494e-05
5.46432e-05
4.35926e-05
5.63217e-05
4.73257e-05
4.23685e-05
5.11244e-05
5.39505e-05
5.19871e-05
4.89961e-05
4.77899e-05
5.45798e-05
5.08792e-05
5.00934e-05
4.4448e-05
5.17279e-05
5.03918e-05
4.48315e-05
4.89223e-05
5.69733e-05
5.58445e-05
4.98242e-05
4.51412e-05
5.48311e-05
5.45369e-05
5.16605e-05
5.71539e-05
5.59108e-05
5.38543e-05
5.60701e-05
5.09405e-05
5.17034e-05
4.21482e-05
4.84207e-05
5.5787e-05
5.04617e-05
5.43359e-05
4.96416e-05
5.25927e-05
5.67808e-05
5.70306e-05
5.27943e-05
4.35836e-05
5.10147e-05
4.70569e-05
5.57688e-05
5.14944e-05
5.61937e-05
5.71013e-05
4.99079e-05
4.44384e-05
4.68373e-05
4.5165e-05
4.28154e-05
5.5529e-05
4.59579e-05
5.63036e-05
5.13176e-05
4.9236e-05
4.56091e-05
5.75087e-05
4.99626e-05
4.88505e-05
5.60303e-05
5.23932e-05
4.71907e-05
5.17407e-05
4.58128e-05
5.21809e-05
5.11716e-05
4.47137e-05
5.06525e-05
5.0719e-05
3.92685e-05
4.15962e-05
5.54559e-05
5.6693e-05
5.47658e-05
4.28615e-05
4.53214e-05
5.48271e-05
4.623e-05
4.66e-05
5.64207e-05
5.69023e-05
5.05524e-05
5.5883e-05
5.6843e-05
4.47969e-05
5.68751e-05
4.18752e-05
4.24586e-05
5.57816e-05
5.52108e-05
5.56642e-05
5.68555e-05
5.4724e-05
4.55972e-05
5.16804e-05
5.13338e-05
5.60664e-05
5.70047e-05
5.73672e-05
5.12473e-05
5.00784e-05
5.38066e-05
5.49362e-05
5.39337e-05
5.01048e-05
5.17896e-05
5.08558e-05
5.17324e-05
5.47902e-05
5.06826e-05
4.46043e-05
5.39312e-05
5.78448e-05
5.02755e-05
5.65611e-05
5.63231e-05
5.17421e-05
4.478e-05
5.15275e-05
5.15269e-05
4.27128e-05
5.69257e-05
4.55545e-05
5.317e-05
5.58344e-05
4.16858e-05
5.20351e-05
5.16264e-05
4.34185e-05
5.28729e-05
4.53391e-05
5.18673e-05
5.69464e-05
5.41737e-05
4.14532e-05
5.35817e-05
4.53789e-05
5.36469e-05
5.57584e-05
5.61893e-05
5.5842e-05
4.55368e-05
5.48336e-05
4.28452e-05
5.08541e-05
4.22691e-05
5.65002e-05
5.52557e-05
5.60419e-05
5.55993e-05
4.75158e-05
5.68975e-05
5.18191e-05
5.37896e-05
5.14415e-05
4.60308e-05
5.19803e-05
5.44931e-05
5.37506e-05
5.47262e-05
5.32205e-05
5.47365e-05
5.14594e-05
4.43681e-05
5.19325e-05
5.49158e-05
5.45615e-05
4.15922e-05
5.62047e-05
5.54742e-05
5.17392e-05
5.38094e-05
5.43596e-05
5.26408e-05
5.65768e-05
4.3306e-05
5.37834e-05
5.6132e-05
4.17604e-05
5.26623e-05
5.35424e-05
4.53434e-05
4.3301e-05
4.3584e-05
4.9778e-05
4.31559e-05
5.16071e-05
5.16567e-05
4.94466e-05
5.67079e-05
4.43151e-05
5.53465e-05
5.65607e-05
5.19449e-05
5.48947e-05
5.05492e-05
5.60464e-05
5.1891e-05
5.23257e-05
5.70729e-05
5.18867e-05
4.36716e-05
5.22303e-05
5.64788e-05
5.58072e-05
5.45194e-05
5.69195e-05
5.05854e-05
5.37021e-05
5.51477e-05
5.71252e-05
5.67973e-05
4.49165e-05
5.13003e-05
4.02642e-05
5.1157e-05
5.11129e-05
4.43193e-05
4.24508e-05
5.02314e-05
5.47194e-05
5.54461e-05
4.35046e-05
5.44052e-05
4.88344e-05
5.16479e-05
5.48899e-05
4.04783e-05
5.12091e-05
4.22573e-05
5.04852e-05
5.57248e-05
5.74707e-05
5.47319e-05
5.17615e-05
4.18776e-05
5.43795e-05
5.22809e-05
5.4851e-05
4.28714e-05
4.43401e-05
5.15411e-05
4.38903e-05
4.5227e-05
5.3589e-05
4.26895e-05
5.02347e-05
4.34424e-05
5.42983e-05
4.42704e-05
5.68555e-05
5.54029e-05
5.5459e-05
5.61679e-05
4.74928e-05
5.54949e-05
5.61237e-05
5.29913e-05
5.5253e-05
5.24122e-05
5.53941e-05
5.75753e-05
4.9458e-05
5.61184e-05
5.67874e-05
5.17036e-05
4.77503e-05
5.69541e-05
5.22281e-05
4.09817e-05
4.18874e-05
5.2217e-05
5.60792e-05
5.66507e-05
5.11744e-05
5.75722e-05
5.75629e-05
5.4755e-05
5.27248e-05
5.08166e-05
5.19289e-05
4.5472e-05
5.14604e-05
5.36918e-05
5.67951e-05
4.68663e-05
4.65355e-05
4.61773e-05
4.97367e-05
5.15208e-05
4.08113e-05
5.4518e-05
4.89055e-05
5.41259e-05
5.19502e-05
5.54036e-05
5.19114e-05
4.46544e-05
5.34569e-05
5.63349e-05
4.6555e-05
5.53273e-05
5.73507e-05
5.19384e-05
5.12726e-05
4.65408e-05
4.64677e-05
5.17892e-05
5.23037e-05
4.50911e-05
4.45833e-05
5.24322e-05
4.78791e-05
5.4332e-05
4.73708e-05
5.11478e-05
5.58608e-05
5.19485e-05
4.31119e-05
4.83349e-05
5.24202e-05
5.63849e-05
4.37114e-05
4.0231e-05
5.56358e-05
4.31562e-05
5.30745e-05
5.74009e-05
4.37991e-05
5.21519e-05
5.6136e-05
5.21175e-05
4.30334e-05
5.58389e-05
5.17907e-05
4.3726e-05
5.54773e-05
5.29536e-05
5.07767e-05
5.50508e-05
4.15432e-05
4.8786e-05
5.20451e-05
5.04678e-05
4.86689e-05
5.2397e-05
5.67949e-05
5.61526e-05
5.45081e-05
5.6286e-05
5.5814e-05
5.493e-05
4.78816e-05
5.46895e-05
5.64516e-05
5.82976e-05
4.6592e-05
5.2458e-05
5.29847e-05
5.85668e-05
4.50681e-05
4.13031e-05
5.67493e-05
4.66304e-05
5.75719e-05
5.02961e-05
4.46609e-05
5.24559e-05
5.58491e-05
5.21814e-05
5.40043e-05
4.25627e-05
5.52206e-05
5.29102e-05
4.1954e-05
5.65674e-05
5.53571e-05
4.48915e-05
4.47085e-05
4.55355e-05
5.04105e-05
5.26902e-05
5.24442e-05
5.15357e-05
5.2317e-05
5.55024e-05
5.22693e-05
5.18137e-05
4.48754e-05
5.70042e-05
4.26946e-05
5.20565e-05
5.12683e-05
4.98723e-05
5.75868e-05
5.20928e-05
4.70316e-05
4.25754e-05
4.43492e-05
5.11511e-05
5.62283e-05
4.59968e-05
5.70857e-05
5.15727e-05
5.53807e-05
4.43448e-05
5.04985e-05
5.47873e-05
5.71314e-05
5.60506e-05
5.49636e-05
5.25675e-05
5.16135e-05
5.70314e-05
5.69045e-05
5.61961e-05
4.71116e-05
5.58688e-05
4.47748e-05
5.64809e-05
5.49721e-05
5.13211e-05
4.55692e-05
5.06101e-05
4.01912e-05
5.61194e-05
5.25456e-05
5.74648e-05
5.16691e-05
4.95912e-05
4.43319e-05
5.60761e-05
4.2896e-05
4.05059e-05
4.54243e-05
4.71894e-05
4.48086e-05
5.16977e-05
4.32249e-05
5.45525e-05
5.37089e-05
4.05144e-05
5.70154e-05
4.48455e-05
4.83336e-05
5.05059e-05
4.95002e-05
5.47671e-05
5.64359e-05
5.74515e-05
5.61756e-05
5.12493e-05
5.25622e-05
5.02266e-05
5.0566e-05
4.25436e-05
3.38666e-05
5.65059e-05
5.12435e-05
5.48065e-05
5.55647e-05
4.36943e-05
5.60471e-05
5.66595e-05
5.48359e-05
5.52496e-05
5.48522e-05
5.32316e-05
5.67179e-05
5.72404e-05
5.2381e-05
5.56645e-05
5.56342e-05
4.56013e-05
5.58101e-05
4.97035e-05
5.47827e-05
4.98659e-05
5.17106e-05
4.8324e-05
5.74907e-05
5.06947e-05
5.247e-05
5.1374e-05
4.48757e-05
5.69989e-05
5.29977e-05
4.96158e-05
4.42937e-05
5.47053e-05
4.20927e-05
5.58623e-05
5.45803e-05
4.99099e-05
5.67009e-05
5.74081e-05
5.64651e-05
4.34271e-05
5.21143e-05
5.15839e-05
5.23914e-05
4.54042e-05
5.49746e-05
5.5705e-05
4.97307e-05
5.20675e-05
4.94956e-05
5.42445e-05
4.99473e-05
5.13643e-05
4.18765e-05
5.51423e-05
5.35642e-05
5.59834e-05
4.77799e-05
5.20757e-05
5.32795e-05
5.17705e-05
4.87384e-05
5.32694e-05
5.52173e-05
5.10356e-05
4.1996e-05
4.20489e-05
5.12174e-05
4.11738e-05
4.48027e-05
5.30514e-05
5.31307e-05
5.54979e-05
4.17439e-05
5.12558e-05
5.64774e-05
4.57785e-05
4.2987e-05
5.29048e-05
4.54277e-05
5.415e-05
4.64301e-05
5.63206e-05
4.81153e-05
4.93817e-05
5.68352e-05
4.21886e-05
5.04833e-05
5.08419e-05
5.54504e-05
5.6374e-05
5.6274e-05
4.55135e-05
5.46429e-05
5.61091e-05
4.94967e-05
5.6888e-05
5.52152e-05
5.41594e-05
5.61874e-05
5.24805e-05
5.76895e-05
5.72537e-05
5.73873e-05
5.43006e-05
4.98566e-05
5.29358e-05
5.20032e-05
4.34401e-05
5.08138e-05
5.40396e-05
5.57677e-05
5.67893e-05
5.11306e-05
5.71455e-05
5.53862e-05
4.99221e-05
5.52048e-05
5.57639e-05
5.44962e-05
5.49135e-05
4.4367e-05
5.02784e-05
5.58564e-05
4.11946e-05
5.17014e-05
5.13281e-05
5.12496e-05
5.08867e-05
5.68904e-05
5.47084e-05
5.56458e-05
5.16913e-05
5.45073e-05
5.27174e-05
5.58868e-05
5.28359e-05
5.06581e-05
4.48404e-05
5.58912e-05
4.52225e-05
5.04342e-05
5.15833e-05
5.01128e-05
5.30782e-05
5.69202e-05
4.43372e-05
5.68459e-05
4.47885e-05
5.29481e-05
5.04705e-05
5.1022e-05
5.15965e-05
5.6748e-05
4.38984e-05
5.48491e-05
5.58164e-05
5.62545e-05
5.2777e-05
5.29656e-05
4.06671e-05
5.61826e-05
5.54715e-05
5.43716e-05
5.49585e-05
5.57101e-05
5.23643e-05
5.29239e-05
5.25742e-05
4.57391e-05
5.13575e-05
5.67303e-05
4.24715e-05
4.64893e-05
5.86173e-05
5.55167e-05
4.85899e-05
5.03424e-05
5.28742e-05
4.87456e-05
5.13017e-05
4.65279e-05
5.53002e-05
5.65788e-05
4.10261e-05
5.27221e-05
5.62592e-05
5.51424e-05
5.67598e-05
5.07229e-05
5.56945e-05
4.57848e-05
4.53609e-05
5.6852e-05
5.5723e-05
5.17992e-05
4.5626e-05
5.50453e-05
5.57449e-05
4.73768e-05
5.62627e-05
5.59231e-05
5.61667e-05
5.40091e-05
5.57833e-05
5.2683e-05
5.32234e-05
5.12449e-05
4.92678e-05
4.32673e-05
5.30603e-05
5.26675e-05
4.56314e-05
5.62691e-05
4.25478e-05
5.03897e-05
5.14994e-05
4.47833e-05
5.12152e-05
4.9624e-05
5.4275e-05
5.26111e-05
5.53401e-05
4.40429e-05
4.43981e-05
5.06605e-05
4.40198e-05
4.97588e-05
5.57886e-05
5.11554e-05
5.60791e-05
5.21525e-05
5.17269e-05
5.62499e-05
4.98718e-05
5.23647e-05
5.1603e-05
5.13969e-05
5.36572e-05
4.60097e-05
5.24371e-05
5.51128e-05
5.65352e-05
5.75069e-05
4.39466e-05
4.3645e-05
5.18586e-05
5.60649e-05
4.62624e-05
5.05408e-05
5.35985e-05
5.18578e-05
5.83836e-05
5.13344e-05
5.07304e-05
5.47123e-05
4.39303e-05
5.60161e-05
5.65046e-05
4.51651e-05
4.84118e-05
5.1448e-05
4.97052e-05
5.68871e-05
5.63023e-05
5.37019e-05
4.57832e-05
5.54913e-05
4.40002e-05
5.08265e-05
5.56841e-05
4.88485e-05
5.77977e-05
4.24029e-05
5.18354e-05
5.3656e-05
5.23596e-05
4.2662e-05
4.30211e-05
5.60418e-05
5.65665e-05
5.01339e-05
5.67206e-05
5.37033e-05
5.16496e-05
4.42174e-05
4.67856e-05
5.33274e-05
5.18785e-05
5.18566e-05
5.70859e-05
5.61369e-05
5.78882e-05
5.66433e-05
5.34648e-05
5.33398e-05
5.48873e-05
4.46502e-05
5.55115e-05
5.44023e-05
5.27685e-05
5.31852e-05
5.65443e-05
5.1087e-05
5.67537e-05
5.11158e-05
4.1173e-05
5.73451e-05
4.85925e-05
5.62608e-05
4.98007e-05
5.57308e-05
4.53191e-05
5.4571e-05
5.84473e-05
5.17897e-05
5.22509e-05
4.3368e-05
5.52602e-05
5.64487e-05
5.38348e-05
4.40036e-05
5.90197e-05
5.20795e-05
5.38876e-05
5.63318e-05
5.59086e-05
5.52111e-05
5.14862e-05
5.16868e-05
5.77045e-05
4.51786e-05
4.57645e-05
4.49714e-05
4.73926e-05
5.32243e-05
4.29335e-05
5.68841e-05
5.5988e-05
5.71928e-05
5.09497e-05
5.16244e-05
5.24684e-05
5.61115e-05
5.23704e-05
5.25126e-05
5.62889e-05
5.63745e-05
5.17118e-05
5.58256e-05
5.25217e-05
5.08044e-05
5.4619e-05
4.96532e-05
5.71979e-05
5.68685e-05
5.7353e-05
5.7306e-05
5.62146e-05
4.8731e-05
5.80923e-05
5.26557e-05
5.3201e-05
5.08877e-05
5.34477e-05
5.75744e-05
5.20862e-05
5.5402e-05
5.02602e-05
5.20008e-05
5.45171e-05
4.60879e-05
4.34376e-05
5.13584e-05
5.06605e-05
5.67696e-05
4.92884e-05
4.29736e-05
5.33479e-05
5.55615e-05
4.71586e-05
4.9484e-05
5.25806e-05
5.70083e-05
5.66212e-05
5.0788e-05
4.77322e-05
5.21777e-05
5.4899e-05
5.00446e-05
5.29044e-05
5.24983e-05
4.29463e-05
4.98177e-05
4.96009e-05
5.44305e-05
5.59211e-05
5.22965e-05
5.64481e-05
5.47189e-05
5.21992e-05
5.3089e-05
4.52164e-05
4.70094e-05
4.25164e-05
5.61828e-05
5.31671e-05
5.69448e-05
5.96266e-05
5.48507e-05
4.33392e-05
5.51241e-05
5.02353e-05
5.42276e-05
5.40033e-05
5.52673e-05
4.334e-05
5.73873e-05
4.47593e-05
5.256e-05
5.29906e-05
5.15831e-05
5.80889e-05
5.13719e-05
5.46994e-05
4.58843e-05
5.13906e-05
5.23754e-05
5.53332e-05
4.86835e-05
4.65606e-05
5.47875e-05
5.58796e-05
5.39934e-05
5.46372e-05
5.68524e-05
4.50269e-05
5.14188e-05
5.11492e-05
4.736e-05
5.54591e-05
5.70358e-05
5.70602e-05
5.59001e-05
5.76266e-05
4.54642e-05
4.4667e-05
4.54365e-05
5.7501e-05
4.33988e-05
5.51878e-05
5.37629e-05
4.48477e-05
5.00414e-05
5.53955e-05
5.63055e-05
4.81602e-05
4.94495e-05
5.04225e-05
5.2638e-05
5.68126e-05
5.28039e-05
4.52042e-05
5.2463e-05
5.73126e-05
5.60383e-05
5.73127e-05
5.68345e-05
5.91101e-05
5.70849e-05
5.55931e-05
4.57902e-05
4.35392e-05
5.26069e-05
4.86578e-05
5.65577e-05
4.40249e-05
5.33449e-05
5.15235e-05
5.7145e-05
4.59073e-05
5.42676e-05
5.52787e-05
5.34999e-05
5.03457e-05
4.46154e-05
5.56138e-05
4.91761e-05
5.73119e-05
5.22557e-05
5.87109e-05
5.71116e-05
5.27379e-05
4.33575e-05
4.43466e-05
5.14196e-05
5.34014e-05
4.91458e-05
5.82992e-05
4.50285e-05
5.66096e-05
5.48722e-05
4.99189e-05
5.42861e-05
5.58501e-05
5.64885e-05
5.67682e-05
5.70793e-05
5.31379e-05
5.40621e-05
4.32454e-05
4.94572e-05
5.67995e-05
4.57412e-05
5.43434e-05
5.1202e-05
4.56666e-05
5.19834e-05
5.40767e-05
5.16786e-05
5.47383e-05
5.56611e-05
4.49288e-05
5.12777e-05
5.27082e-05
4.44539e-05
4.95441e-05
5.1401e-05
5.07485e-05
5.46065e-05
4.52799e-05
4.50259e-05
5.17248e-05
5.02765e-05
5.67866e-05
5.79378e-05
5.66672e-05
5.05439e-05
5.08949e-05
5.29563e-05
4.99334e-05
5.63861e-05
4.5095e-05
5.23501e-05
5.15476e-05
5.72618e-05
5.47922e-05
5.14447e-05
5.22836e-05
5.59854e-05
4.47969e-05
5.27223e-05
5.67828e-05
5.00768e-05
3.86273e-05
5.22284e-05
4.43778e-05
5.35713e-05
4.22525e-05
5.70857e-05
5.72832e-05
5.64256e-05
5.32026e-05
4.5393e-05
4.423e-05
5.57196e-05
5.72376e-05
5.64595e-05
5.27413e-05
5.26017e-05
5.47187e-05
5.73584e-05
5.62195e-05
4.3222e-05
5.1509e-05
5.35193e-05
5.42688e-05
5.03631e-05
5.43156e-05
4.28987e-05
5.70485e-05
5.58973e-05
5.326e-05
5.30877e-05
5.45785e-05
5.2262e-05
5.72176e-05
5.43696e-05
4.56765e-05
5.17551e-05
5.49316e-05
5.12204e-05
5.28928e-05
5.39294e-05
4.24418e-05
4.63279e-05
5.64426e-05
5.73251e-05
5.58094e-05
5.72034e-05
5.49344e-05
5.61408e-05
5.38899e-05
5.27719e-05
5.42068e-05
5.61471e-05
4.98575e-05
5.17053e-05
4.99192e-05
5.2264e-05
5.58704e-05
4.20711e-05
5.31108e-05
4.30744e-05
5.57964e-05
4.32862e-05
4.37976e-05
5.15001e-05
4.18502e-05
5.17971e-05
5.37471e-05
5.59286e-05
5.5975e-05
4.90548e-05
4.92001e-05
5.82723e-05
4.76718e-05
4.51491e-05
5.12177e-05
4.83775e-05
5.66739e-05
5.41325e-05
5.3203e-05
4.47739e-05
5.55881e-05
5.62882e-05
5.68451e-05
4.39553e-05
4.73002e-05
5.24311e-05
5.55563e-05
5.77488e-05
4.54616e-05
4.36373e-05
5.50682e-05
5.25241e-05
5.72355e-05
5.22688e-05
4.21045e-05
5.41601e-05
5.57612e-05
4.42755e-05
4.23737e-05
5.62543e-05
4.63093e-05
4.60735e-05
5.67297e-05
5.73388e-05
5.48441e-05
5.85736e-05
5.16938e-05
5.03102e-05
5.63662e-05
4.86214e-05
5.65871e-05
4.95286e-05
5.4024e-05
5.61401e-05
5.13109e-05
4.43698e-05
5.54228e-05
5.60793e-05
5.04734e-05
5.18203e-05
5.2542e-05
4.75074e-05
4.93121e-05
5.31054e-05
5.37014e-05
5.66082e-05
4.99137e-05
5.50866e-05
4.35379e-05
5.50059e-05
5.75806e-05
4.28412e-05
5.59579e-05
5.29285e-05
4.01306e-05
4.42631e-05
5.27365e-05
5.20394e-05
5.53494e-05
5.00844e-05
4.55369e-05
5.59538e-05
5.73556e-05
5.67841e-05
5.39254e-05
5.68281e-05
4.39025e-05
5.64548e-05
5.21349e-05
4.41935e-05
4.47823e-05
3.93764e-05
4.52056e-05
5.45649e-05
5.04947e-05
5.36172e-05
5.24114e-05
4.73338e-05
4.8543e-05
4.2047e-05
4.19744e-05
5.83811e-05
5.76261e-05
4.53766e-05
5.66813e-05
5.56859e-05
4.52471e-05
5.15221e-05
5.27737e-05
4.71463e-05
4.96851e-05
5.68957e-05
4.61515e-05
4.17373e-05
5.69113e-05
5.77168e-05
4.86912e-05
5.65903e-05
5.05665e-05
4.69449e-05
4.52095e-05
5.18226e-05
4.40164e-05
4.43857e-05
5.30008e-05
5.43814e-05
5.14511e-05
5.63102e-05
5.65111e-05
5.16182e-05
5.68515e-05
3.52825e-05
5.16102e-05
4.39997e-05
5.25313e-05
5.66677e-05
5.15611e-05
4.8925e-05
5.15357e-05
4.54383e-05
5.38145e-05
5.17929e-05
4.9252e-05
4.41233e-05
4.16983e-05
4.10508e-05
5.00787e-05
4.43363e-05
5.17103e-05
4.47516e-05
5.06525e-05
5.6517e-05
5.37272e-05
5.08118e-05
5.29219e-05
5.43784e-05
5.18384e-05
5.53828e-05
4.30093e-05
5.28102e-05
5.71407e-05
5.69945e-05
5.10627e-05
5.85192e-05
4.69751e-05
5.52275e-05
5.12817e-05
4.35181e-05
5.50796e-05
5.71135e-05
5.44209e-05
5.50468e-05
5.64233e-05
5.35235e-05
4.13456e-05
4.23125e-05
5.10279e-05
5.7444e-05
5.31351e-05
5.58292e-05
4.92744e-05
5.04936e-05
4.6751e-05
4.32404e-05
4.32041e-05
4.30604e-05
5.48636e-05
5.32091e-05
5.68082e-05
5.03997e-05
5.00102e-05
5.77972e-05
4.29333e-05
5.24548e-05
5.70331e-05
5.65669e-05
4.92782e-05
5.04251e-05
5.52256e-05
5.72011e-05
5.66921e-05
4.44332e-05
5.27006e-05
5.53098e-05
5.3837e-05
5.25718e-05
5.83116e-05
5.55425e-05
5.67321e-05
5.31674e-05
4.84006e-05
5.25714e-05
5.64908e-05
5.49144e-05
5.20685e-05
4.39437e-05
5.62652e-05
5.58707e-05
5.63545e-05
5.54127e-05
4.32108e-05
4.03022e-05
5.12108e-05
5.48462e-05
5.12464e-05
5.32838e-05
5.52114e-05
5.54406e-05
5.58466e-05
4.98473e-05
5.49074e-05
5.22084e-05
5.57254e-05
4.41469e-05
4.38985e-05
5.01885e-05
5.65763e-05
4.5172e-05
5.58405e-05
4.45258e-05
5.11361e-05
5.22375e-05
5.70456e-05
5.11496e-05
5.59345e-05
5.60812e-05
5.57117e-05
5.32822e-05
5.51015e-05
5.25836e-05
4.97218e-05
4.17704e-05
5.73672e-05
3.94633e-05
4.27783e-05
4.49556e-05
4.23856e-05
4.25586e-05
5.07559e-05
5.28355e-05
4.48792e-05
4.95261e-05
3.99335e-05
4.55027e-05
5.05913e-05
5.64273e-05
4.27877e-05
4.3824e-05
5.54436e-05
4.28473e-05
5.12906e-05
5.49876e-05
5.36314e-05
5.20103e-05
4.4734e-05
4.29339e-05
5.01041e-05
5.71817e-05
4.69791e-05
4.42009e-05
5.33168e-05
4.95351e-05
5.31829e-05
5.17506e-05
4.4747e-05
5.68216e-05
4.19588e-05
4.34005e-05
5.09372e-05
5.62532e-05
4.94085e-05
5.10541e-05
5.13999e-05
5.25745e-05
4.13632e-05
4.58766e-05
5.06714e-05
5.71481e-05
5.46404e-05
4.29709e-05
4.06464e-05
5.12548e-05
5.75019e-05
5.15148e-05
5.18792e-05
4.92862e-05
5.06975e-05
5.1782e-05
4.40428e-05
5.66905e-05
4.89827e-05
4.40824e-05
4.03594e-05
5.51228e-05
5.22219e-05
5.71046e-05
5.32431e-05
5.55593e-05
4.39435e-05
5.09424e-05
4.17357e-05
3.99708e-05
5.56614e-05
4.51267e-05
5.0915e-05
5.22853e-05
5.40439e-05
4.4188e-05
5.69747e-05
5.56026e-05
5.69069e-05
5.3724e-05
3.78209e-05
5.21339e-05
4.20985e-05
5.71921e-05
4.4597e-05
5.67294e-05
4.02263e-05
5.35021e-05
5.45988e-05
4.9243e-05
5.01282e-05
4.09692e-05
4.8239e-05
5.21069e-05
5.57444e-05
5.42052e-05
5.65607e-05
5.66007e-05
4.38462e-05
5.68357e-05
4.95426e-05
5.31929e-05
5.36545e-05
5.58595e-05
5.54231e-05
5.21195e-05
5.72521e-05
5.08825e-05
4.8797e-05
4.87901e-05
5.31779e-05
5.64956e-05
4.82591e-05
4.6074e-05
5.63997e-05
5.42895e-05
5.16566e-05
5.85636e-05
5.36623e-05
5.33744e-05
5.5031e-05
5.61405e-05
5.6423e-05
5.166e-05
5.02233e-05
5.59277e-05
5.49942e-05
4.62398e-05
5.16418e-05
4.79949e-05
5.70965e-05
5.31677e-05
5.59783e-05
4.45283e-05
4.46814e-05
5.24586e-05
5.52895e-05
5.57863e-05
5.71126e-05
5.59926e-05
5.28267e-05
5.44642e-05
4.50652e-05
5.23119e-05
5.21425e-05
5.64007e-05
5.6568e-05
5.65629e-05
5.13469e-05
5.69356e-05
4.59125e-05
5.67455e-05
4.81065e-05
5.10879e-05
5.03066e-05
5.24379e-05
5.07549e-05
5.51016e-05
4.37181e-05
5.59612e-05
5.58488e-05
5.13144e-05
4.48084e-05
5.74833e-05
5.46671e-05
5.6316e-05
5.16736e-05
5.24156e-05
5.51357e-05
4.35733e-05
5.6674e-05
5.12548e-05
5.28032e-05
4.78024e-05
4.83328e-05
4.75488e-05
4.33453e-05
4.94756e-05
5.76345e-05
5.28424e-05
4.22234e-05
5.373e-05
4.3022e-05
5.32011e-05
5.33033e-05
4.16914e-05
4.30872e-05
4.86229e-05
5.28501e-05
5.52054e-05
4.97774e-05
5.50857e-05
5.13938e-05
4.76907e-05
4.89844e-05
5.6788e-05
5.6634e-05
5.63532e-05
5.48174e-05
5.38087e-05
4.39371e-05
4.47833e-05
5.70515e-05
5.04211e-05
5.26902e-05
5.55397e-05
5.80043e-05
5.25756e-05
5.39992e-05
4.15506e-05
5.54049e-05
5.60538e-05
4.95649e-05
5.69268e-05
5.63682e-05
5.35341e-05
4.97267e-05
5.47207e-05
4.99958e-05
4.18762e-05
5.25681e-05
4.49554e-05
4.3276e-05
5.28969e-05
5.22559e-05
5.55657e-05
5.55251e-05
5.30502e-05
5.65496e-05
4.02981e-05
4.96918e-05
5.71771e-05
5.70712e-05
4.24868e-05
5.24044e-05
4.60615e-05
4.96969e-05
5.66029e-05
4.92446e-05
5.40267e-05
5.78798e-05
5.45011e-05
4.15925e-05
5.56009e-05
4.3939e-05
5.62363e-05
5.48358e-05
5.34453e-05
5.61853e-05
5.30303e-05
5.62272e-05
4.42164e-05
5.65914e-05
5.67508e-05
4.55907e-05
5.37718e-05
5.19878e-05
5.05857e-05
5.54716e-05
5.11615e-05
5.56409e-05
5.69961e-05
5.71145e-05
5.19635e-05
5.67107e-05
5.21449e-05
5.47743e-05
4.64848e-05
4.9322e-05
4.33341e-05
4.26486e-05
5.33695e-05
5.40943e-05
5.18846e-05
5.68724e-05
5.07653e-05
5.69288e-05
4.22883e-05
5.74167e-05
5.72935e-05
5.42723e-05
5.68523e-05
4.63008e-05
4.18596e-05
5.16095e-05
4.31385e-05
5.58164e-05
5.24057e-05
4.17227e-05
5.09234e-05
5.73026e-05
5.45315e-05
4.31578e-05
4.75843e-05
4.13652e-05
5.76904e-05
4.33405e-05
5.55542e-05
4.85367e-05
4.41323e-05
5.64875e-05
5.69035e-05
5.66082e-05
5.49912e-05
4.42509e-05
5.39806e-05
5.71489e-05
4.57422e-05
5.64268e-05
5.42715e-05
5.69101e-05
4.20988e-05
5.5043e-05
4.98244e-05
5.4248e-05
4.97666e-05
5.11126e-05
5.0039e-05
4.95709e-05
5.01711e-05
5.08156e-05
5.47568e-05
5.15634e-05
5.7216e-05
4.59456e-05
5.14779e-05
5.26027e-05
5.51578e-05
5.70222e-05
4.35783e-05
5.53616e-05
4.5062e-05
5.10421e-05
5.67415e-05
5.68038e-05
5.10463e-05
5.36327e-05
5.47302e-05
4.99033e-05
5.19764e-05
5.11762e-05
4.36008e-05
4.32383e-05
5.35607e-05
5.56135e-05
5.20094e-05
5.00666e-05
5.5689e-05
4.47304e-05
5.32227e-05
4.45595e-05
5.43576e-05
5.69065e-05
5.23279e-05
4.3377e-05
5.57437e-05
4.33466e-05
5.36866e-05
5.65329e-05
4.21735e-05
5.76022e-05
4.56775e-05
4.96407e-05
5.0838e-05
4.3465e-05
4.88591e-05
4.99255e-05
4.09469e-05
5.62431e-05
5.70722e-05
3.96442e-05
4.92511e-05
5.46537e-05
5.29217e-05
5.34324e-05
5.76502e-05
5.60605e-05
5.12159e-05
4.80367e-05
4.24798e-05
4.1069e-05
4.68733e-05
5.74221e-05
5.55607e-05
5.45146e-05
5.44335e-05
4.39265e-05
4.39466e-05
5.13955e-05
5.60426e-05
4.15253e-05
5.40104e-05
5.19751e-05
5.09429e-05
5.45827e-05
4.95236e-05
5.54124e-05
4.78788e-05
5.18973e-05
5.76382e-05
3.87867e-05
5.29666e-05
5.61584e-05
5.58481e-05
5.44935e-05
5.55458e-05
5.30219e-05
4.35968e-05
5.77054e-05
5.85674e-05
5.21026e-05
5.25153e-05
4.93995e-05
5.18243e-05
5.4423e-05
5.50076e-05
5.24709e-05
5.13097e-05
5.08531e-05
4.26681e-05
5.01245e-05
5.70756e-05
5.43815e-05
5.82486e-05
5.27806e-05
5.17091e-05
5.73296e-05
4.42924e-05
5.53692e-05
4.37057e-05
5.70683e-05
5.44689e-05
4.99548e-05
5.81186e-05
4.94331e-05
5.16498e-05
5.74509e-05
5.05623e-05
5.72487e-05
5.54645e-05
5.52135e-05
4.36858e-05
5.21468e-05
5.15534e-05
4.69656e-05
5.55353e-05
5.03531e-05
5.06297e-05
5.73493e-05
4.40876e-05
5.65796e-05
5.22573e-05
5.64962e-05
5.00176e-05
5.32597e-05
4.39668e-05
4.53886e-05
5.81599e-05
4.43624e-05
5.19755e-05
5.53993e-05
4.36279e-05
5.13138e-05
5.57877e-05
4.91003e-05
4.50106e-05
4.8137e-05
5.05474e-05
5.03045e-05
5.56928e-05
5.11581e-05
5.64836e-05
5.34622e-05
5.59587e-05
4.15998e-05
4.74124e-05
5.70605e-05
5.13546e-05
4.31933e-05
4.53912e-05
5.22799e-05
4.50064e-05
4.35651e-05
5.21527e-05
5.12596e-05
5.7289e-05
5.01619e-05
5.56544e-05
5.61603e-05
5.58781e-05
5.57103e-05
5.57138e-05
5.00004e-05
4.88722e-05
5.54493e-05
5.1268e-05
4.98892e-05
5.68608e-05
5.17792e-05
4.2697e-05
4.27749e-05
5.11926e-05
4.50206e-05
5.44627e-05
5.53983e-05
4.97585e-05
5.5829e-05
5.54471e-05
5.51891e-05
5.82725e-05
5.1644e-05
4.39832e-05
4.99113e-05
5.02802e-05
5.56307e-05
4.99732e-05
5.44841e-05
5.6825e-05
5.10503e-05
4.96122e-05
5.26759e-05
5.66567e-05
5.4674e-05
5.92741e-05
5.57198e-05
5.12674e-05
5.22448e-05
4.57996e-05
4.99149e-05
5.67241e-05
4.65342e-05
5.70599e-05
4.97231e-05
5.55434e-05
4.33463e-05
5.47255e-05
5.21336e-05
5.56188e-05
5.15511e-05
5.40023e-05
5.17238e-05
5.57512e-05
4.23042e-05
4.56229e-05
5.21804e-05
4.94278e-05
5.31314e-05
5.22705e-05
5.24327e-05
5.67072e-05
5.33758e-05
4.2531e-05
4.83547e-05
4.36226e-05
5.30725e-05
5.19708e-05
4.46161e-05
5.8438e-05
5.21409e-05
5.13042e-05
5.52328e-05
4.75442e-05
4.50299e-05
5.69583e-05
4.48768e-05
4.29433e-05
5.0205e-05
4.94246e-05
4.54897e-05
4.83569e-05
5.6755e-05
5.56835e-05
4.98692e-05
5.29356e-05
5.53882e-05
5.20286e-05
5.51702e-05
4.25525e-05
5.61527e-05
3.64836e-05
5.55964e-05
4.40887e-05
4.35397e-05
5.60625e-05
4.29456e-05
5.13957e-05
5.36111e-05
5.56987e-05
4.93463e-05
5.37028e-05
5.00359e-05
5.15809e-05
4.94523e-05
5.46166e-05
5.31686e-05
5.59289e-05
5.2084e-05
4.44865e-05
5.46747e-05
5.13959e-05
5.11084e-05
5.11615e-05
4.60786e-05
4.82127e-05
4.21065e-05
4.32978e-05
5.20768e-05
5.07721e-05
4.56441e-05
4.94908e-05
5.59017e-05
5.66695e-05
5.66326e-05
3.53868e-05
4.2588e-05
5.65745e-05
4.3506e-05
5.50754e-05
4.28638e-05
5.623e-05
5.59085e-05
5.57995e-05
4.43615e-05
5.09855e-05
5.70828e-05
5.69122e-05
5.34399e-05
5.67598e-05
5.171e-05
5.31871e-05
5.15053e-05
4.37315e-05
5.33872e-05
4.87918e-05
5.21558e-05
5.19065e-05
4.67372e-05
5.10481e-05
5.65712e-05
4.8327e-05
4.84564e-05
4.34745e-05
5.49416e-05
5.49548e-05
4.11735e-05
5.17572e-05
5.18884e-05
5.4045e-05
4.43492e-05
5.247e-05
5.18723e-05
5.76849e-05
4.22354e-05
5.16441e-05
5.12935e-05
4.16563e-05
5.5837e-05
4.47449e-05
4.54733e-05
5.37077e-05
5.67502e-05
4.19902e-05
5.59452e-05
5.35496e-05
5.15843e-05
4.22453e-05
5.68385e-05
5.68287e-05
4.17406e-05
5.20985e-05
4.11737e-05
4.47854e-05
5.67598e-05
4.99924e-05
5.31901e-05
5.59772e-05
5.68578e-05
5.04401e-05
4.92744e-05
5.12513e-05
5.0873e-05
5.30003e-05
4.93707e-05
5.62994e-05
4.42193e-05
4.94364e-05
5.19231e-05
5.05783e-05
5.45146e-05
5.10894e-05
5.40857e-05
5.47067e-05
5.20714e-05
5.6962e-05
5.45571e-05
5.04576e-05
4.83103e-05
5.493e-05
5.05718e-05
4.93836e-05
5.42536e-05
5.7108e-05
5.47485e-05
5.51513e-05
4.88543e-05
5.46126e-05
4.86744e-05
4.38891e-05
5.16165e-05
5.37241e-05
4.3933e-05
5.39488e-05
5.09904e-05
3.99381e-05
4.33451e-05
5.50472e-05
4.22453e-05
5.08315e-05
5.53062e-05
5.36133e-05
4.38481e-05
5.37592e-05
5.79208e-05
4.47079e-05
4.37827e-05
4.43486e-05
5.61662e-05
5.18068e-05
5.11919e-05
5.63937e-05
4.32022e-05
5.43968e-05
5.20966e-05
5.69652e-05
5.74993e-05
3.8193e-05
5.22519e-05
5.45077e-05
5.55754e-05
5.27211e-05
5.09828e-05
4.45721e-05
5.34407e-05
5.70803e-05
4.8474e-05
4.20362e-05
5.03019e-05
5.59289e-05
5.40083e-05
4.33043e-05
5.10804e-05
5.51691e-05
5.61529e-05
5.12836e-05
5.09706e-05
4.13193e-05
4.42029e-05
4.38907e-05
5.22629e-05
5.06029e-05
5.31835e-05
5.71699e-05
5.62529e-05
4.64119e-05
5.57886e-05
5.62477e-05
5.37665e-05
4.95583e-05
5.57039e-05
5.0399e-05
4.50708e-05
4.94424e-05
5.26029e-05
5.26595e-05
4.75692e-05
5.40636e-05
5.02416e-05
5.5983e-05
4.49978e-05
4.19902e-05
5.03549e-05
5.68594e-05
5.5298e-05
4.96351e-05
5.05778e-05
5.55207e-05
5.61987e-05
4.97191e-05
5.02587e-05
5.59047e-05
5.73295e-05
5.4614e-05
5.69735e-05
5.50934e-05
5.43986e-05
4.24776e-05
5.05935e-05
4.39344e-05
5.44467e-05
5.59348e-05
4.93084e-05
4.36812e-05
5.72156e-05
4.33592e-05
4.85763e-05
4.56143e-05
5.17111e-05
4.25651e-05
5.39055e-05
5.16637e-05
5.14718e-05
5.24482e-05
4.62167e-05
5.65397e-05
4.46864e-05
5.425e-05
5.21868e-05
5.10551e-05
4.34284e-05
5.5596e-05
5.3971e-05
4.51109e-05
4.70567e-05
5.08039e-05
5.00619e-05
5.29498e-05
4.23843e-05
5.33077e-05
5.02294e-05
5.24027e-05
4.86993e-05
4.82934e-05
4.81487e-05
4.27852e-05
5.60032e-05
5.20504e-05
2.32778e-05
4.47576e-05
5.23185e-05
5.63885e-05
5.52033e-05
4.5522e-05
4.47393e-05
5.61763e-05
4.39222e-05
5.52372e-05
5.67097e-05
5.33797e-05
4.50366e-05
5.60099e-05
4.30839e-05
4.14237e-05
4.15642e-05
5.42862e-05
5.11947e-05
4.95636e-05
5.70702e-05
5.4506e-05
5.29264e-05
4.54086e-05
4.02108e-05
5.74338e-05
5.22419e-05
5.77691e-05
5.57286e-05
4.39716e-05
5.11215e-05
5.163e-05
4.9503e-05
5.16775e-05
4.89067e-05
5.04922e-05
5.9633e-05
5.27654e-05
4.96853e-05
4.39464e-05
5.34953e-05
5.11923e-05
5.46187e-05
5.00274e-05
4.34727e-05
4.48019e-05
5.38986e-05