/*--------------------------------*- C++ -*----------------------------------*\
| =========                 |                                                 |
| \\      /  F ield         | OpenFOAM: The Open Source CFD Toolbox           |
|  \\    /   O peration     | Version:  2212                                  |
|   \\  /    A nd           | Website:  www.openfoam.com                      |
|    \\/     M anipulation  |                                                 |
\*---------------------------------------------------------------------------*/
FoamFile
{
    version     2.0;
    format      ascii;
    arch        "LSB;label=32;scalar=64";
    class       volScalarField;
    location    "0.032";
    object      p;
}
// * * * * * * * * * * * * * * * * * * * * * * * * * * * * * * * * * * * * * //

dimensions      [0 2 -2 0 0 0 0];

internalField   nonuniform List<scalar> 
31639
(
0.013767
0.00959654
0.015758
0.00703673
0.00967997
0.0135134
0.0151137
0.0144046
0.0102466
0.00874324
0.0150202
0.0097639
0.0101446
0.0131886
0.0114872
0.0161067
0.0186686
0.0191022
0.00313907
0.0146517
0.0106536
0.00824149
0.0112279
0.0069466
0.0120438
0.0142573
0.0138673
0.0437567
0.014485
0.014448
0.00776799
0.020624
0.0102893
0.00558393
0.0250782
0.0143949
0.00828371
0.0150099
0.0149982
0.0122804
0.00982769
0.0140528
0.0109966
0.0152685
0.015722
0.00657539
0.0098419
0.00778689
0.0168393
0.00707652
0.00653303
0.0052519
0.0255036
0.0155854
0.00510955
0.0190803
0.00838976
0.0139455
0.00960875
0.00669948
0.00736475
0.014089
0.0116761
0.0143586
0.0253156
0.00414089
0.00254481
0.00804137
0.00994416
0.00622701
0.00887044
0.0188028
0.00865015
0.00372425
0.0256425
0.0204053
0.00887342
0.00822507
0.00952586
0.00901122
0.0137198
0.0131574
0.0129651
0.00723446
0.0128229
0.0119012
0.0110325
0.00777817
0.00250565
0.0103678
0.00588893
0.0187095
0.00689824
0.00917501
0.00439658
0.0138603
0.00749081
0.00529693
0.0100431
0.013313
0.0236841
0.0236767
0.0120732
0.00918642
0.00510362
0.00638232
0.0134841
0.00677642
0.00783404
0.0121923
0.0150659
0.0131558
0.014052
0.00827941
0.0036928
0.0146779
0.0251573
0.0155462
0.023801
0.00739907
0.0208215
0.00641342
0.00333005
0.00705993
0.0134325
0.013179
0.00951365
0.00716198
0.00873617
0.010582
0.0249189
0.00110421
0.0159297
0.00375272
0.00449581
0.00801317
0.00838072
0.00917792
0.00658213
0.00734793
0.00728901
0.0108176
0.0117873
0.00675162
0.00985755
0.012831
0.0239657
0.00835859
0.0123931
0.025591
0.00750354
0.0172084
0.00538066
0.00483663
0.00627892
0.00481087
0.00353645
0.0088213
0.0167824
0.00795571
0.00438649
0.018854
0.00844609
0.014021
0.0200288
0.0200999
0.0156198
0.0175324
0.00551752
0.00384091
0.0179076
0.0131925
0.0178646
0.0102467
0.0127326
0.0085848
0.0115263
0.0207426
0.00804022
0.0121325
0.01007
0.0165697
0.0140991
0.0146768
0.0147363
0.0143838
0.017282
0.0121291
0.0132084
0.0163523
0.016649
0.00871054
0.0169099
0.00516634
0.00587332
0.0061164
0.005893
0.00934992
0.00602028
0.0148797
0.0125054
0.0189279
0.0165915
0.0175745
0.00855954
0.00715265
0.0029915
0.00506906
0.0211351
0.00577916
0.00576019
0.0122831
0.0238244
0.0127351
0.0153294
0.0128403
0.0128866
0.0128347
0.0179685
0.00963208
0.00996696
0.0122569
0.0129692
0.0179829
0.0156432
0.00894055
0.0161572
0.0157919
0.0111951
0.0205119
0.00541395
0.0148562
0.0188598
0.0163403
0.016798
0.00287361
0.00265289
0.0171076
0.0140822
0.00509526
0.00724595
0.0154163
0.0179122
0.0168494
0.00744772
0.0193165
0.0057109
0.01998
0.0163112
0.00290291
0.000840155
0.00658378
0.0167173
0.0191868
0.00931729
0.00997506
0.0139481
0.00431137
0.0137832
0.0159405
0.00667162
0.00536504
0.00933635
0.013196
0.00945465
0.0127908
0.00212016
0.0242589
0.0151989
0.0135979
0.0310639
0.00634111
0.0138655
0.0171765
0.00827294
0.0161941
0.00589979
0.0180415
0.00802344
0.00658812
0.0202108
0.0207787
0.0206484
0.0274177
0.0148023
0.0148417
0.0180704
0.0172451
0.00328911
0.0166332
0.0185262
0.00149429
0.00535263
0.00538126
0.0156767
0.00463364
0.0187586
0.00250366
0.00737595
0.00850513
0.00791298
0.0179902
0.00571646
0.00514048
0.0114545
0.00460566
0.0130672
0.00304456
0.0110555
0.018091
0.00764959
0.0302808
0.0242418
0.0107479
0.00988562
0.0139033
0.00266736
0.0209096
0.0162177
0.0159383
0.0153105
0.00640686
0.0233951
0.0047509
0.0125994
0.0171039
0.0153613
0.0172735
0.00556322
0.00643601
0.00667439
0.00703054
0.0183052
0.00526252
0.0189128
0.0251868
0.0257884
0.00798882
0.0175229
0.019752
0.00448839
0.00220521
0.0192329
0.00403846
0.00576473
0.0178362
0.00487788
0.0157488
0.0155731
0.0234571
0.00879707
0.0180063
0.00879096
0.0166504
0.00509948
0.00670449
0.00570585
0.0115001
0.0116835
0.0172582
0.0189292
0.0116294
0.0301804
0.00329222
0.00806715
0.0072838
0.00390422
0.0116163
0.0124419
0.0172822
0.0112867
0.0211385
0.0132323
0.0062218
0.0041943
0.00699962
0.024295
0.0203028
0.0169715
0.021231
0.016067
0.00525417
0.00785828
0.00524113
0.00482931
0.00458425
0.0056397
0.00971257
0.000517387
0.0193677
0.00287567
0.0214753
0.00571004
0.0179452
0.00497548
0.0183801
0.0194925
0.0146959
0.00704244
0.0284765
0.0191059
0.0150059
0.0143692
0.00480164
0.0169193
0.00262238
0.00746801
0.0075507
0.00783312
0.0147484
0.00646952
0.00758595
0.0168114
0.0312191
0.0154402
0.0169737
0.0124236
0.013272
0.0118901
0.00989184
0.00954263
0.0234234
0.0113371
0.00101589
0.0168781
0.0308002
0.0109466
0.0229179
0.0132247
0.0157624
0.00690636
0.00571419
0.0179793
0.00652476
0.0143414
0.014358
0.0174973
0.00429122
0.00528927
0.0187015
0.00792803
0.00279735
0.00336362
0.0129306
0.00448863
0.00804026
0.00846987
0.0196068
0.0191818
0.020733
0.0195414
0.0170321
0.00829088
0.0174454
0.00786042
0.0185911
0.020878
0.00646424
0.0170867
0.00718797
0.0140488
0.0200837
0.0132923
0.00360008
0.0164466
0.0457186
0.00356542
0.0107326
0.00728204
0.0159695
0.00206816
0.00554045
0.0066184
0.00551031
0.0174395
0.00141862
0.011068
0.0225442
0.00994303
0.0115345
0.00669251
0.0245248
0.00430737
0.00911131
0.0234382
0.0301484
0.0109348
0.0156571
0.0127467
0.00850438
0.006587
0.00504263
0.0205719
0.00238735
0.0135658
0.0130471
0.012349
0.00372296
0.00564206
0.0197752
0.0223304
0.00286839
0.00326605
0.00366748
0.00215248
0.0263483
0.00756683
0.00314061
0.0210432
0.023421
0.0209234
0.00442106
0.0188624
0.0175361
0.0199288
0.0022672
0.0234216
0.0234806
-0.00035366
0.0203296
0.0196323
0.0204433
0.0130025
0.0218139
0.000966704
0.00356909
0.0198726
0.00296049
0.0035967
0.00609091
0.0147935
0.00999275
0.0183214
0.00123586
0.00652797
0.0104926
0.0220178
0.00142436
0.017451
0.00269906
0.0304956
0.0308324
0.00727333
0.0440461
0.00747654
0.00744608
0.0121156
0.0124491
0.00861909
0.0118293
0.0317033
0.00869244
0.0171196
0.000722611
0.00776148
0.0120284
0.00681273
0.0195713
0.00151179
0.00468565
0.0117843
0.00422588
0.0106728
0.0108872
0.00587929
0.0247151
0.00428178
0.00303605
0.000477139
0.0137337
0.0224942
0.00339021
0.000715139
0.00415196
0.00459938
0.00358875
0.0209163
-2.0701e-05
0.00141879
0.000980735
0.0187868
0.00236209
0.0196837
0.020132
0.0209878
0.00615624
8.37979e-05
0.000321552
0.00319796
0.000941304
0.0128994
0.00112233
0.0128824
0.0204295
0.00173585
0.00749804
0.0100605
0.0245743
0.0226985
0.0178043
0.00851967
0.00409945
0.0236041
0.0203009
0.00190883
0.00209517
0.00876076
0.0148187
0.00610262
0.00133219
0.000122247
0.0010356
0.0196066
0.0164073
0.0075211
0.0450939
0.0161392
0.0125483
0.00869255
0.0135573
0.0174163
0.0172784
0.0120839
0.0077186
0.00968132
0.0100208
0.0164134
0.00377841
0.0117737
0.00139909
0.0128275
0.0298953
0.0207833
0.0191926
0.0142554
0.0112677
0.0271898
0.0126587
0.0151764
0.00672054
0.0241226
0.0227531
0.00333583
0.0124609
0.0141488
0.000272384
0.0276425
0.00761838
0.00129923
0.00371657
0.0021189
0.0245564
0.0224212
0.0228823
0.00345193
0.000135555
0.0194024
0.0130582
0.0204701
0.0211181
0.0211375
0.00138132
7.23878e-05
0.0200747
0.0174769
0.0180552
0.021163
0.00119113
0.00756732
0.0310337
0.0043879
0.00247644
0.0217388
0.0123078
0.00520647
0.0198059
0.0195048
0.0158627
0.00918479
0.00610075
0.0144248
0.00830235
0.000446171
0.000800201
0.0016274
0.00612333
0.00233152
0.0245929
0.0087529
0.000672998
0.000755217
0.0188232
0.00665603
0.000824865
0.045525
0.00617699
0.00737598
0.00991448
0.0111985
0.0094936
0.0121282
0.011469
0.00769643
0.00884348
0.0127625
0.00812635
0.00759437
0.00861672
0.0113749
0.021676
0.0122848
0.011608
0.0190304
0.0246178
0.0207275
0.00580617
0.0114229
0.00329789
0.0129274
0.0254432
0.000987002
0.00236859
0.00213266
0.00659054
0.00763471
0.0188922
0.0180606
0.00538181
0.00221661
0.0147433
0.0244814
0.000622428
0.0201268
0.00800332
0.0185517
0.0170519
0.0179432
0.0231457
0.0215613
0.0278022
0.0197146
0.0165085
0.0205533
0.018533
0.0191606
0.00689753
0.0241373
0.00678539
0.00178901
0.00452305
0.0187383
0.000109909
0.0155311
0.00367337
0.00512457
0.0155722
0.00935741
0.0232827
0.00434449
0.0162989
0.00527897
0.0268065
0.00772651
0.000762894
0.001131
0.0218812
0.0146218
0.000995879
0.00241468
0.00140842
0.00466834
0.000644253
0.000320983
0.0184196
0.0178333
0.000233409
0.0178964
0.0158384
0.0191463
0.0104925
0.0103949
0.00840318
0.0134645
0.014094
0.0065726
0.00106453
0.0123416
0.0168923
0.0124824
0.0231582
0.0207181
0.0123765
0.0201107
0.00765979
0.0311036
0.00364433
0.0202997
0.0121447
0.000119092
0.0138153
0.00353918
0.00736677
0.00307092
0.00309523
0.0155398
0.0220305
0.00541346
0.0194965
0.000914369
0.000957155
0.00094745
0.0256665
0.0258175
0.0245497
0.0264225
0.02179
0.0201278
0.00676525
0.00438341
0.00747101
0.0019742
0.0143715
0.00644222
0.0169292
0.00937053
0.00749947
0.00234521
-0.000116642
0.00547745
0.00292648
0.0229041
0.00996689
0.00538456
0.00516728
0.00957486
0.000961886
0.0160899
0.00522722
0.0201387
0.0038828
0.00264179
0.0132455
0.0131844
0.0204826
0.0243817
0.0213705
0.0162782
0.00916739
0.00994937
0.019366
0.000162725
0.0010602
0.0190497
0.0194675
-0.000111195
0.000445625
0.00276499
0.0191966
0.00506585
0.0116714
0.0247664
0.0241438
0.0123089
0.0289305
0.00930701
0.00805479
0.00829875
0.00537388
0.00333875
0.0202208
0.00342884
0.012359
0.0149659
0.0228192
0.00720072
0.00830069
0.00791542
0.018366
0.0186074
0.018657
0.0264847
0.00247473
0.0214792
0.0211803
0.0216167
0.0117328
0.00043976
0.0253909
0.0261849
0.0241207
0.0142281
0.0150436
0.0164368
0.0153231
0.0182554
0.0140456
0.000567524
0.0192171
0.00894527
0.00613135
0.0195471
0.00149044
0.000881379
0.00341428
0.00319598
0.0234182
0.00941627
0.00346657
0.00481283
0.00849506
0.017328
0.00813465
0.007469
0.0156406
0.0109516
0.00032821
0.0201597
0.0127709
0.0211765
0.0106873
0.00222305
0.0164212
0.0163071
0.000805163
0.00941819
0.00877828
0.000670809
0.000810339
0.01998
0.0229508
0.00925685
0.0119479
0.00139132
0.0212503
0.0264697
0.0221736
0.0153015
0.00716168
0.0207193
0.0156711
0.00830055
0.0115332
0.00641736
0.00651974
0.0103506
0.0196639
0.00356487
0.0128569
0.0081331
0.00733933
0.000244422
0.0219714
0.00862914
0.0226865
0.00626164
0.0185745
0.0214568
0.0106664
0.010725
0.0223806
0.0181263
0.0203671
0.00789488
0.00916167
0.0180193
0.017205
0.0136435
0.0144475
0.0209836
0.0214719
0.0282523
0.0166193
0.0187575
0.00120787
0.000807211
0.0192228
0.0175478
0.00901588
0.0208407
0.00300485
0.0147026
0.016366
0.0205315
0.00254114
0.0210636
0.019148
0.022836
0.0216901
0.0226842
0.0107107
0.0194977
0.00865859
0.0149783
0.014545
0.0138214
0.0235806
0.0218482
0.0211543
0.0178842
0.00970553
0.012651
0.0139432
0.02148
0.0137823
6.71819e-05
0.0223842
0.0246385
0.0116287
0.00983106
0.00412292
0.00297014
0.00818721
0.0216921
0.00680354
0.00728518
0.0267094
0.0109013
0.0040648
0.00558942
0.000494591
0.0103984
0.0117834
0.0107136
0.0200001
0.000737855
0.023158
0.00205748
0.0225108
0.021755
0.0265644
0.0102484
0.0105264
0.00898552
0.016849
0.0149744
0.0175691
0.027049
0.0196874
0.0208624
0.0137917
0.0167942
0.00995438
0.0176504
0.0153108
0.00334974
0.00302508
0.0123532
0.001006
0.00880376
0.0233217
0.024573
0.00448945
0.0225757
0.0146896
0.023729
0.0130002
0.0133706
0.00180766
0.000991351
0.017264
0.0155947
0.0075325
0.00991159
0.00935788
0.0144728
0.010016
0.0195794
0.0209991
0.0268933
0.0206826
0.0223351
0.0135312
0.0095302
0.011139
0.00100012
0.0019055
0.00366598
0.0098138
0.00885186
0.0155283
0.00914545
0.0163637
0.0185335
0.0205326
0.00947594
0.00590814
0.0275196
0.0144046
0.0245968
0.0242841
0.0108271
0.0248096
0.00253033
0.0208802
0.00626459
0.0118117
0.00471137
0.00915836
0.0102357
0.0235216
0.0239167
0.000746787
0.0215286
0.0256666
0.0293677
0.00956585
0.0180904
0.0207758
0.021101
0.00851341
0.00917943
0.0195729
0.029632
0.0194872
0.0036134
0.0172335
0.0289721
0.0167655
0.0165795
0.016044
0.00797618
0.0242903
0.0209839
0.0244964
0.00215226
0.0174735
0.00145731
0.0144768
0.0205456
0.00439948
0.0206607
0.00635208
0.0196653
0.0267591
0.0115747
0.000594111
0.0130719
0.0140232
0.000803372
0.00867156
0.00880579
0.0138397
0.0101087
0.0282016
0.02255
0.00887782
0.0087728
0.0218354
0.0122791
0.0207597
0.0273595
0.0211461
0.00075764
0.000726586
0.0223733
0.0194258
0.0136247
0.0151464
0.0173824
0.0143881
0.014949
0.0244548
0.0214483
0.0257565
0.0193321
0.0169394
0.00242002
0.0248016
0.00327003
0.00938733
0.0231669
0.0247989
0.0200305
0.0104835
0.00937041
0.000519243
0.021699
0.0134348
0.02298
0.0126363
0.0243199
0.0257773
0.0162689
0.0173728
0.0103892
0.00507806
0.0281165
0.0134122
0.0172251
0.0133759
0.0123516
0.0179011
0.0284684
0.016463
0.0154721
0.030587
0.00267324
0.0240411
0.0148432
0.0296121
0.0153557
0.0123594
0.0238659
0.0244416
0.00440997
0.00916088
0.00510291
0.00627644
0.0211262
0.0112175
0.012179
0.00051561
0.00975071
0.035414
0.00999945
0.0104687
0.0144372
0.0148982
0.0140834
0.0222527
0.0228105
0.0165211
0.00884923
0.0225838
0.0126845
0.0234038
0.0209471
0.0211271
0.0233084
0.0238203
0.0218708
0.0083609
0.000697924
0.0250095
0.00757566
0.0263067
0.0293262
0.0274702
0.0100201
0.0251046
0.0168484
0.00268564
0.00220684
0.00368289
0.0224117
0.0232382
0.0230849
0.02142
0.0255928
0.010456
0.00867766
0.023491
0.0260566
0.0124189
0.0231317
0.0248507
0.0164841
0.00956564
0.0282558
0.0252266
0.0217155
0.0175963
0.0225021
0.0184194
0.024248
0.00204069
0.0182958
0.0217172
0.0248514
0.0177503
0.0235992
0.0118325
0.0297518
0.0185713
0.00248776
0.0225171
0.00541043
0.000160768
0.00511068
0.0177392
0.015104
0.0175421
0.0225303
0.0244764
0.00927936
0.0193662
0.011062
0.0150651
0.0142513
0.0140587
0.00865301
0.0230282
0.0154466
0.0160171
0.0228103
0.0160172
0.00798599
0.00767032
0.0160892
0.0168875
0.0153743
0.0214394
0.0219315
0.0012799
0.0151619
0.0228342
0.0217924
0.0157545
0.016102
0.0132529
0.0164533
0.0287681
0.00143337
0.00790375
0.0239698
0.00371289
0.0105767
0.0114415
0.0109156
0.0266922
0.028301
0.00354999
0.0289413
0.0257432
0.0184589
0.0184148
0.0261663
0.0190774
0.0241834
0.0227124
0.004559
0.0101045
0.0275283
0.000511623
0.000800936
0.026305
0.024535
0.004275
0.0260241
0.01913
0.0167746
0.0108926
0.0247019
0.0241135
0.00876368
0.0228386
0.0212305
0.0186736
0.0166801
0.00103649
0.00178229
0.00125812
0.0192198
0.022058
0.0142065
0.0251006
0.0278165
0.0137321
0.0121914
0.00855554
0.0051241
0.0304431
0.000140921
0.00350541
0.0109673
0.00134891
0.000306237
0.000574059
0.011704
0.00857914
0.00106941
0.0378155
0.0239202
0.0180957
0.028001
0.0156288
0.0300507
0.00490664
0.00966983
0.0101048
0.0289165
0.0290063
0.0156874
0.00821634
0.0164662
0.0148609
0.019427
0.0180275
0.0187708
0.0219803
0.00164159
0.0234505
0.0236929
0.0238784
0.0231994
0.0194743
0.0192038
0.0147941
0.0136142
0.0249521
0.0216477
0.00699738
0.00546428
0.0146794
0.0210216
0.0280519
0.00681079
0.00788373
0.00818048
0.0209289
0.0264832
0.0278613
0.0273454
0.0022288
0.00133956
0.0260189
0.00084057
0.0255856
0.0266279
0.00539881
0.00748725
0.00336745
0.0248904
0.00946117
0.0218677
0.0171644
0.0172647
0.0268615
0.0273763
0.0123235
0.0300686
0.0297755
0.020274
0.0186221
0.000105556
0.000746137
0.0207016
0.0187368
0.0226435
0.029408
0.0447481
0.0299828
0.0236206
0.0299896
0.0237807
0.00296336
0.0219259
0.0252876
0.00342701
0.0237354
0.00580349
0.000657735
0.0232482
0.000829968
0.0108443
0.0117769
0.0116543
0.010739
0.00052049
0.00230143
0.00740924
0.0284859
0.0265429
0.0192468
0.0114466
0.0144738
0.00915286
0.0115025
0.00849891
0.0111239
0.0109088
0.009842
0.0203496
0.017443
0.0233941
0.0173076
0.0234271
0.00164456
0.0229363
0.00121232
0.0302943
0.0236405
0.0154665
0.0194718
0.00945286
0.0124
0.00432229
0.00318112
0.00759481
0.00512255
0.0140089
0.0229355
0.0107293
0.0179751
0.0164006
0.00645246
0.016139
0.0283933
0.00162442
0.00366817
0.00153725
0.0187314
0.0267068
0.0216025
0.00699772
0.00551476
0.0263261
0.00339471
0.0264071
0.0249918
0.0455262
0.0265127
0.0262107
0.0299301
0.0280725
0.0269617
0.0210437
0.00541791
0.0217566
0.00516386
0.0222978
0.0230708
6.45718e-06
0.0282096
0.0131761
0.00264033
0.0221315
0.0278834
0.0217957
0.0250269
0.0218239
0.0110508
0.0135082
0.0210095
0.0237162
0.0259513
0.0278522
0.000855818
0.00368871
0.0177403
0.0235055
0.0220773
0.0195463
0.020568
0.00152329
0.0195495
0.0105467
0.0110629
0.0107691
0.00939575
0.0124572
0.0150283
0.000641601
0.0239684
0.0249889
0.021102
0.00140736
0.0248285
0.0150933
0.0158932
0.0179445
0.0187381
0.0218633
0.0170878
0.0384917
0.00440078
0.0155786
0.024242
0.018697
0.0187
0.003636
0.0170145
0.0266046
0.0298546
0.0218995
0.0100503
0.0258245
0.00921958
0.0172335
0.0275157
0.0290167
0.017238
0.0293209
0.0290644
0.0288758
0.0269072
0.0182239
0.0279981
0.0264852
0.0232122
0.010408
0.0209074
0.00824164
0.00229592
0.0214255
0.00678408
0.0272907
0.0278126
0.0270903
0.025207
0.0159828
0.025378
0.0286657
0.00896141
0.0063051
0.01242
0.0307418
0.0209383
0.0201503
0.00518542
0.00451991
0.0242082
0.00155051
0.0146943
0.0301083
0.0258743
0.0220312
0.0227508
0.0136584
0.0120743
0.00319389
0.023429
0.000355943
0.00854946
0.0262408
0.00116502
0.00326968
0.00506093
0.00667363
0.00392762
0.0185126
0.0207828
0.0242339
0.0159009
0.00978542
0.0350659
0.00974062
0.0112487
0.0119936
0.0252656
0.0228025
0.0286471
0.0258105
0.00809813
0.0143949
0.0139972
0.0139749
0.0163111
0.0197905
0.0198569
0.023105
0.0219912
0.0205371
0.015108
0.0112224
0.0114035
0.00280735
0.021714
0.0258636
0.00924658
0.00382972
0.0387889
0.01464
0.0265083
0.0178406
0.0268715
0.0322279
0.0208515
0.0093683
0.00796226
0.0171784
0.0285794
0.0273209
0.0070753
0.0303533
0.000288863
-0.000204993
0.0261981
0.029209
0.0146007
0.0120847
0.0244856
0.00627712
0.0273532
0.0295229
0.0118876
0.0241235
0.0250602
0.03725
0.0067542
0.0282373
0.0165682
0.0172788
0.0237638
0.0283403
0.00321283
0.0221577
0.0303375
0.0295293
0.0315999
0.00677521
0.0247825
0.0241513
0.00349018
0.0195759
0.028286
0.0202458
0.00286884
0.00879983
0.0186605
0.00612353
0.0204944
0.00871566
0.000761531
0.000984633
0.0124713
0.00359414
0.0269231
0.0157457
0.0069214
0.0120403
0.0279236
0.027996
0.0247774
0.025935
0.0275287
0.0158806
0.00286792
0.00596189
0.0137508
0.0234815
0.0235566
0.0241973
0.0244814
0.0167429
0.016405
0.0148497
0.0203684
0.0180848
0.0182065
0.0196416
0.02974
0.0214326
0.0235509
0.0200929
0.0222867
0.0220287
0.0111582
0.0216245
0.0169256
0.0104646
0.0152089
0.0343254
0.0171312
0.0382327
0.0226221
0.0065817
0.0101905
0.0199089
0.032505
0.0182736
0.0172591
0.00776575
0.0227237
0.000744956
0.00196601
0.000380967
0.0282801
0.0280535
0.0284705
0.014643
0.0307742
0.00548676
0.0291754
0.0295832
0.0284229
0.00297828
0.0324546
0.0286738
0.00220412
0.0303617
0.0172713
0.0181108
0.0170255
0.0236662
0.0257043
0.0211
0.0221893
0.0234766
0.0145542
0.0140326
0.00363832
0.0295497
0.0232539
0.026591
0.0203029
0.0258635
0.0289294
0.0107545
0.0278104
0.00286349
0.0207791
0.00985183
0.00114642
0.000184424
0.0125194
0.0260149
0.0098373
0.0237607
0.0241693
0.00816233
0.0253913
0.00949146
0.0304886
0.0241502
0.0300582
0.022662
0.0123104
0.0239058
0.0250299
0.0277785
0.00641791
0.0246282
0.0246325
0.0258132
0.0277472
0.0198064
0.0261915
0.0211031
0.00286768
0.0250983
0.00636744
0.0187431
0.0197717
0.0135814
0.0216717
0.0327839
0.0165596
0.015312
0.0161384
0.0112211
0.0210192
0.00782416
0.0139743
0.0257629
0.0122265
0.0243069
0.00730165
0.0259974
0.021686
0.00678226
0.01838
0.0270481
0.0071554
0.0213245
0.0140301
0.00192337
0.000211257
0.00195162
0.0271925
0.0178601
0.0203667
0.015531
0.015217
0.0272895
0.0296034
0.0286506
0.0217242
0.0282235
0.0230659
0.0298511
0.0156985
0.0304124
0.0302233
0.030208
0.0292549
0.0284443
0.00343808
0.0238869
0.0285105
0.0217548
0.0196515
0.0317329
0.0285682
0.0143689
0.0296431
0.00300608
0.026942
0.0281642
0.0196982
0.018791
0.0254919
0.026673
0.0254068
0.0012698
0.0296922
0.0224018
0.00847905
0.000460591
0.029404
0.00904789
0.00379923
0.00246953
0.000344733
0.0210633
0.00671384
0.0353638
0.0107438
0.0253165
0.0135609
0.0103003
0.0147929
0.0247582
0.0105983
0.0293568
0.0244281
0.0143649
0.0274734
0.0245522
0.0210832
0.0329304
0.0222478
0.028283
0.0181882
0.0305092
0.0180962
0.0179779
0.00382004
0.0228885
0.0216532
0.0229843
0.0264557
0.0193728
0.0306064
0.0229008
0.0222581
0.0031279
0.00686599
0.0307428
0.0161777
0.00601715
0.0163055
0.0405629
0.00985217
0.031762
0.00739291
0.00145153
0.0122193
0.0126919
0.0112791
0.0210159
0.0065082
0.0195978
0.0245528
0.0175256
0.00586529
0.00635483
0.0287743
0.00181466
0.0214178
0.0199254
0.0132327
0.0268532
0.0320456
0.0139474
0.0268259
0.0251002
0.0222172
0.000452697
0.0216655
0.0242166
0.0286392
0.0292519
0.0330447
0.0306806
0.00382898
0.0025443
0.0309641
0.00372052
0.0277886
0.0297351
0.0275777
0.00599469
0.0339538
0.0130563
0.0246053
0.0295593
0.0266902
0.0274929
0.0263986
0.0251296
0.0229889
0.0135122
0.0252274
0.0190756
0.00223597
0.0125156
0.0276149
0.0251152
0.0325454
0.0343283
0.00176044
0.0179162
0.00294274
0.00560197
0.0288954
0.00553425
0.00472988
0.0303617
0.00700578
0.0118326
0.0174823
0.0293066
0.000315777
0.0286437
0.0246631
0.0136013
0.0281791
0.0299842
0.0155311
0.0282434
0.0228767
0.0303527
0.0281757
0.0277243
0.0204683
0.0314253
0.0218698
0.00637622
0.00671385
0.0305207
0.0227235
0.0278896
0.0338896
0.0250973
0.0267636
0.0334058
0.00669919
0.0303438
0.0296317
0.0304616
0.0167023
0.0438927
0.00515174
0.00861656
0.0135116
0.012481
0.0329357
0.00995329
0.0241722
0.0191866
0.0200317
0.018732
0.00683536
0.0123175
0.00801588
0.028645
0.00135139
0.0305071
0.0310793
0.0314752
0.0148704
0.0261007
0.0389762
0.0242436
0.00219148
0.0279373
0.00940478
0.0117453
0.0320819
0.0150542
0.0316818
0.0322165
0.0215576
0.00346183
0.0285896
0.0274645
0.0284661
0.0211738
0.0281408
0.0281093
0.0271393
0.023959
0.0246708
0.0253914
0.0255203
0.020986
0.0195321
0.00195421
0.0292747
0.0177147
0.0189814
0.0207111
0.0105474
0.00885659
0.0352871
0.0274553
0.0251366
0.0319945
0.0330886
0.0124121
0.00509422
0.00857691
0.0346225
0.017845
0.00912177
0.0295937
0.0077361
0.0258048
0.0148189
0.00651424
0.00623233
0.0242247
0.0140867
0.0265523
0.00110243
0.0233824
0.00246074
0.0253255
0.0145008
0.0211628
0.0217092
0.0205926
0.0266503
0.0258332
0.0291096
0.00899331
0.0397885
0.0384008
0.0337565
0.0232271
0.0229685
0.0178919
0.0243061
0.0271594
0.0285372
0.0326354
0.000108838
0.0127016
0.0140471
0.0431338
0.0292305
0.0036321
0.0300867
0.00371009
0.0171659
0.019697
0.0120481
0.0087905
0.0339236
0.027493
0.00936063
0.018508
0.0350165
0.011943
0.00737695
0.000623688
0.017095
0.00255361
0.0315082
0.00745819
0.0334431
0.0397129
0.0102058
0.0278766
0.000376852
0.000401471
0.00969884
0.0322812
0.0322563
0.0307454
0.0272864
0.00205264
0.0210525
0.0451846
0.0201793
0.0271415
0.0258783
0.026882
0.0272626
0.0215861
0.0298798
0.0264724
0.00930699
0.00230406
0.00260363
0.00262062
0.0253864
0.0283844
0.0159031
0.0283338
0.00670167
0.00694881
0.0079003
0.0244456
0.0330953
0.0326464
0.0342665
0.019353
0.00964296
0.0300547
0.00912728
0.0243171
0.0263849
0.0273379
0.0148987
0.0300165
0.0135942
0.024875
0.0258286
0.0247058
0.0130702
0.0185349
0.0458853
0.011564
0.00296388
0.023563
0.0201573
0.025151
0.016249
0.0189396
0.0204369
0.021811
0.0180484
0.0263186
0.0381181
0.0195638
0.0295502
0.0136224
0.0242347
0.018455
0.023383
0.0254044
0.0239848
0.0323605
0.00460268
0.0317622
0.0210188
0.00101322
0.0137906
0.0333256
0.0298335
0.0176427
0.00420036
0.0269659
0.00976033
0.0342519
0.00981464
0.027912
0.0264135
0.0310966
0.0235714
0.0286664
0.0195815
0.00330297
0.025684
0.00295599
0.0312135
0.000308278
0.0010697
0.00654116
0.00238587
0.0213455
0.00112948
0.0345547
0.034802
0.0292206
0.0300815
0.0327433
0.0327983
0.0316998
0.0321297
0.00899158
0.034981
0.0315959
0.0069831
0.0299385
0.0368234
0.0206353
0.000118649
0.0288384
0.0313553
0.0269571
0.0251308
0.0283496
0.0337231
0.00321393
0.0296854
0.00146977
0.000802349
9.10671e-05
0.0258524
0.0182974
0.0079904
0.0150132
0.0293854
0.043324
0.0206152
0.0268732
0.0275812
0.0335316
0.00272383
0.0455668
0.030928
0.00900236
0.0219663
0.0106814
0.0230838
0.0284234
0.0108712
0.030511
0.023743
0.0129014
0.0202592
0.0124171
0.0250617
0.020145
0.0321278
0.033015
0.00943852
0.0171831
0.0208231
0.0203245
0.0275612
0.03882
0.0140871
0.0274626
0.020998
0.013871
0.0178145
0.035056
0.0197027
0.0180975
-0.000142592
0.0372377
0.0364811
0.00119376
0.0300551
0.00231162
0.0226231
0.0344097
0.00513236
0.0319686
0.0318912
0.0339405
0.032565
0.0261545
0.0268885
0.0293783
0.00801047
0.0283216
0.00988232
0.00264977
0.0150123
0.00405844
0.02687
0.029119
0.0124343
0.0124186
0.0151596
0.0340496
0.0038527
0.0290964
0.0173497
0.0336301
0.0238306
0.0328933
0.0317147
0.0354638
0.0315049
0.00148802
0.0209506
0.0313583
0.0218844
0.0285326
0.0275198
0.00581878
0.033087
0.0250744
0.0346518
7.56059e-05
0.0315381
0.00799561
0.0169903
0.00228754
0.0268667
0.0260261
0.0407488
0.0248939
0.00834409
0.0308561
0.0294496
0.000909046
0.000634359
0.0401447
0.0275286
0.0096022
0.0446055
0.0110243
0.017375
0.0300764
0.000401365
0.0034884
0.045571
0.00877639
0.0131592
0.012999
0.0214251
0.0293906
0.016969
0.0123511
0.0300745
0.0338143
0.0312718
0.0291783
0.0171698
0.0294274
0.0206623
0.012691
0.0259331
0.0255339
0.020721
0.0234549
0.0170317
0.0159978
0.0297081
0.0305178
0.0309478
0.0257702
0.0365998
0.0248823
0.0258179
0.0242766
0.0254763
0.0308039
0.0221527
0.00496194
0.0335233
0.0324662
0.0302909
0.0051671
0.0288637
0.0251269
0.0281489
0.0256265
0.0343683
0.0300984
0.00396158
0.0121647
0.0339995
0.0342808
0.0370206
0.00334742
0.0165609
0.0116415
0.0316942
0.0306612
0.0328533
0.0367277
0.0370804
0.0318698
0.0364019
0.0314143
0.0309003
0.0198606
0.0328513
0.0278061
0.0363935
0.0439019
0.0275588
0.0257507
0.0454147
0.0227456
0.0162068
0.0339032
0.0186954
0.0363925
0.00104472
0.0282749
0.0174972
0.0418943
0.0272761
0.0260043
0.0346425
0.0166795
0.00111498
0.0153233
0.0421865
0.000291516
-0.00016041
0.0278924
0.0108931
0.0117502
0.0115658
0.00830905
0.00705321
0.00788243
0.00636827
0.0124537
0.0323414
0.0362211
0.00369503
0.0326507
0.0289535
0.00291375
0.0274142
0.0334724
0.0339261
0.0191436
0.0235606
0.0180129
0.033226
0.0187429
0.0289579
0.0257525
0.0191213
0.0266256
0.032516
0.018429
0.0180601
0.0264097
0.025947
0.0219901
0.0353989
0.00416725
0.0372575
0.0226313
0.0194013
0.0213207
0.0335269
0.0146531
0.0113052
0.0336478
0.0298374
0.0306607
0.0327701
0.0417512
0.0378352
0.0338402
0.0305589
0.0333665
0.0351156
0.0340094
0.0211013
0.0357483
0.0341725
0.00995115
0.030573
0.0226429
0.0356562
0.0296086
0.0351178
0.017662
0.031607
0.0223251
0.0259796
0.0328605
0.0355322
0.00962227
0.0290219
0.0230876
0.0223055
0.0235618
0.0363566
0.0297552
0.0313992
0.000643268
0.0266673
8.57282e-05
0.0312461
0.00263558
0.0428438
0.0108297
0.0221803
0.00872984
0.0084152
0.00758397
0.0288073
0.0313189
0.0215142
0.0220412
0.0287557
0.019613
0.0328795
0.0337458
0.0245234
0.0370224
0.0320886
0.0372361
0.0322585
0.030154
0.0346896
0.0195964
0.0253984
0.0262312
0.0208451
0.00470821
0.0349901
0.034364
0.0406775
0.0106445
0.0321452
0.0286369
0.0113893
0.0260528
0.0318446
0.027775
0.036246
0.0344271
0.0328701
0.0357969
0.026638
0.034224
0.0357026
0.0345396
0.0339042
0.0283121
0.0317096
0.0250546
0.0366722
0.030719
0.0456064
0.0449197
0.0296229
0.0362703
0.029112
0.0286137
0.0278534
0.0238081
0.0336057
0.0297996
0.0321521
0.0335899
0.0367444
0.0323467
0.0275435
0.0306731
0.0307573
0.0358505
0.0297265
0.0317232
0.0337711
0.0350585
0.00251368
0.032435
0.00345231
0.00396699
0.00437877
0.00221256
0.0319399
0.00683626
0.000771084
0.0234801
0.0316657
0.04328
0.0440591
0.0365889
0.0292788
0.0358524
0.0195129
0.0403163
0.0258944
0.0284564
0.0310189
0.0335506
0.0219847
0.033125
0.0345875
0.0251051
0.026898
0.0344869
0.0271437
0.0397591
0.0346858
0.038481
0.0119014
0.00217234
0.0321041
0.0318075
0.0312753
0.0386576
0.0328098
0.0393715
0.0328861
0.0353841
0.0207404
0.0367824
0.0265599
0.0354863
0.0281793
0.0359178
0.036934
0.0225073
0.0326533
0.0242337
0.0338562
0.0241547
0.0341806
0.0297068
0.0285878
0.0341524
0.0330149
0.0297216
0.0330217
0.0226029
0.0394217
0.0308138
0.0327052
0.0337694
0.0351896
0.00961092
0.0238257
0.0356521
0.00352621
0.00465204
0.0363535
0.0319716
0.000561591
0.0434002
0.0288994
0.0400107
0.0314643
0.0274168
0.0274165
0.0378227
0.0316878
0.0271746
0.028614
0.0308327
0.0316191
0.0313351
0.0407001
0.0347828
0.0349499
0.0235125
0.0235889
0.0368135
0.0297496
0.0348442
0.0348335
0.0393075
0.0432976
0.041405
0.0276593
0.0368249
0.0290787
0.0341966
0.0334379
0.0286402
0.0130826
0.0362531
0.0437275
0.0355413
0.0273105
0.0314892
0.0273187
0.0449925
0.0252153
0.0323722
0.0274014
0.0286839
0.0343041
0.0362515
0.02892
0.0346923
0.0340079
0.0308673
0.0352469
0.0342159
0.0341678
0.0306035
0.0368206
0.0370077
0.0363651
0.0311986
0.0358998
0.0359717
0.035599
0.0113789
0.0364598
0.0258751
0.0267526
0.0328528
0.0392592
0.0261098
0.0317868
0.0368696
0.0311715
0.031896
0.0275869
0.0412687
0.0307409
0.0361279
0.0261731
0.026259
0.031595
0.0365652
0.0260325
0.0310874
0.0308469
0.035959
0.0365575
0.0311449
0.0314654
0.0391852
0.0390639
0.032203
0.0386112
0.0378092
0.0340774
0.0388338
0.0158864
0.0386455
0.0365739
0.0359802
0.0363396
0.034733
0.0362964
0.0400998
0.0327821
0.0361096
0.028874
0.0330571
0.0297545
0.0341446
0.0341476
0.0413634
0.0347642
0.0410972
0.041209
0.0296022
0.0337844
0.0354122
0.023764
0.0305398
0.0316804
0.0316993
0.0403177
0.0351022
0.0274246
0.0313315
0.0255993
0.0373337
0.0260164
0.0272834
0.0312358
0.0318869
0.0323316