/*--------------------------------*- C++ -*----------------------------------*\
| =========                 |                                                 |
| \\      /  F ield         | OpenFOAM: The Open Source CFD Toolbox           |
|  \\    /   O peration     | Version:  2212                                  |
|   \\  /    A nd           | Website:  www.openfoam.com                      |
|    \\/     M anipulation  |                                                 |
\*---------------------------------------------------------------------------*/
FoamFile
{
    version     2.0;
    format      ascii;
    arch        "LSB;label=32;scalar=64";
    class       surfaceScalarField;
    location    "0.032";
    object      phi;
}
// * * * * * * * * * * * * * * * * * * * * * * * * * * * * * * * * * * * * * //

dimensions      [0 3 -1 0 0 0 0];

oriented        oriented;

internalField   nonuniform List<scalar> 
68568
(
-1.46938e-07
1.51852e-07
-2.86686e-08
2.37544e-08
1.417e-07
-7.24108e-08
-7.53094e-08
6.02022e-09
1.71316e-07
-1.30929e-07
-5.8351e-08
1.79639e-08
-4.32832e-09
2.19389e-09
-1.64104e-07
1.66238e-07
-1.23274e-09
1.37484e-07
9.87288e-10
-1.37238e-07
1.35739e-07
-4.8511e-10
-1.24657e-07
-1.05967e-08
8.11826e-08
-8.6423e-08
1.26652e-07
-1.21412e-07
-3.8349e-08
-2.62018e-08
1.45733e-07
1.27411e-07
-1.51573e-08
-1.07448e-07
-4.80629e-09
1.45701e-07
5.20563e-08
-5.60573e-08
9.79918e-08
1.33842e-07
-6.0518e-08
-6.26505e-08
-1.96274e-07
1.86513e-07
-1.36731e-07
6.69494e-08
-5.52737e-09
1.77959e-07
-1.83485e-07
1.3428e-08
-7.90265e-09
-6.86121e-08
-5.0324e-08
1.17791e-07
1.14474e-09
1.24549e-07
8.58301e-08
-1.27449e-07
-8.29295e-08
-4.97714e-08
-7.66591e-08
1.12058e-07
1.43723e-08
1.10022e-07
-1.14992e-07
-4.48016e-08
1.08944e-07
-4.44737e-09
-6.2976e-10
-1.03867e-07
8.36788e-08
-1.50924e-07
7.57077e-08
-8.46225e-09
1.10759e-07
-4.72835e-10
-1.10206e-07
-8.02181e-11
-1.74497e-08
8.84218e-09
1.3698e-07
-1.28373e-07
-4.47606e-08
1.85296e-07
-2.68051e-08
-1.1373e-07
-6.56942e-10
-4.16584e-10
-1.33256e-07
1.34329e-07
-7.34937e-08
-4.76758e-08
1.14429e-07
6.74028e-09
-9.53245e-08
-3.90323e-08
-1.25815e-08
-6.36887e-08
1.39e-07
8.3676e-09
7.58549e-08
4.50019e-08
-2.93679e-08
-9.14888e-08
-6.668e-08
-9.79996e-08
1.26331e-07
4.77044e-08
-1.17811e-07
3.4268e-09
1.50096e-07
-8.02634e-08
-1.414e-07
7.15665e-08
-1.31229e-08
2.50986e-09
1.15271e-07
-1.04658e-07
1.53599e-07
-3.21091e-08
-1.09231e-08
-1.10567e-07
1.17758e-07
-9.04256e-08
-5.78287e-08
3.04963e-08
-3.87037e-10
1.07844e-07
-1.07474e-07
1.63487e-11
1.19494e-07
8.38561e-08
-8.4035e-08
6.36027e-10
-4.57104e-10
4.21875e-08
-1.56571e-07
9.11455e-08
2.32381e-08
-1.59296e-07
1.38399e-07
6.30841e-08
-7.30288e-08
-1.80276e-10
-2.84567e-10
-8.12579e-10
1.12624e-07
-1.05238e-09
1.11072e-07
-1.10785e-07
-4.98356e-10
2.11441e-10
-2.61766e-08
-1.55315e-07
1.17504e-07
1.90421e-07
-1.45005e-07
-1.6292e-07
-6.06451e-08
-1.01753e-07
2.86947e-07
-1.43677e-07
1.61014e-07
-1.35211e-07
1.17875e-07
-1.22158e-07
6.48672e-08
-5.36014e-09
1.13073e-07
-1.1038e-07
-3.4815e-09
7.88198e-10
9.65265e-08
2.4779e-08
1.15466e-08
-1.32852e-07
2.09081e-09
-1.50102e-07
1.45483e-07
3.35897e-08
-2.89716e-08
-8.26592e-09
-9.25259e-08
1.00454e-07
3.37833e-10
-1.60624e-07
1.35454e-07
1.78899e-07
-1.5186e-07
-3.59574e-10
-2.33295e-10
1.9841e-09
-1.59413e-09
1.07038e-07
-1.07428e-07
3.89086e-08
-1.13427e-07
-2.14085e-09
9.07129e-08
-9.70199e-08
3.73331e-09
2.57367e-09
-8.43188e-08
1.40012e-07
-6.16982e-08
6.0051e-09
1.44789e-07
-7.50562e-08
-7.31756e-08
3.4424e-09
8.98306e-08
-9.00343e-08
-4.53228e-10
-1.10249e-07
-1.71296e-09
1.14156e-07
7.45422e-08
7.03476e-08
-7.55848e-09
-1.37331e-07
-5.89149e-09
1.33786e-07
-1.28668e-07
7.72855e-10
8.75231e-08
-1.48168e-07
-3.04391e-09
1.06688e-07
-1.7783e-08
3.32572e-08
-1.22162e-07
1.47365e-07
-2.29896e-08
-1.66991e-07
4.26158e-08
4.01363e-08
8.05553e-08
-1.17473e-08
6.35575e-08
-1.25837e-07
6.90292e-08
-6.74923e-09
1.33061e-07
-1.34163e-07
-1.30983e-10
-9.89609e-08
1.41167e-07
-3.12316e-08
-1.09748e-08
-2.02076e-07
-1.48354e-07
2.83514e-07
6.69163e-08
-1.15456e-07
8.93215e-10
1.19431e-07
-6.45742e-09
1.33166e-07
-1.41283e-07
-5.30226e-08
6.11405e-08
-1.23892e-07
6.39801e-08
6.58225e-08
-5.91098e-09
-5.26169e-08
-5.09999e-08
-4.79352e-08
-9.96744e-08
9.99972e-08
-4.15936e-10
9.30883e-11
3.94234e-08
1.71397e-07
-6.60309e-08
1.03416e-07
-6.21453e-08
4.94418e-08
-7.20486e-08
-7.9143e-08
1.47239e-07
3.95265e-09
-5.36421e-10
-2.15783e-07
-6.73654e-10
2.16993e-07
7.33067e-08
-4.59184e-08
8.36837e-08
-1.6411e-10
6.40169e-08
-6.38879e-08
3.50981e-11
-1.8786e-08
1.37841e-07
6.60795e-08
-1.85135e-07
1.67878e-07
-8.48454e-08
-8.80331e-08
5.00028e-09
1.17877e-07
3.72957e-08
-3.57196e-08
-1.19453e-07
1.60741e-07
-7.57325e-08
7.5024e-08
-1.60033e-07
3.45523e-08
1.29995e-08
1.13189e-07
-8.73026e-08
8.30912e-08
-1.59892e-07
1.22978e-07
8.92369e-10
-1.19974e-07
-3.89677e-09
-3.90114e-08
-2.75452e-07
1.92306e-07
8.27552e-08
8.48965e-08
-6.6381e-09
-4.6895e-10
5.13938e-10
9.2228e-08
-9.2273e-08
-1.22068e-07
1.2195e-07
-2.98917e-10
-5.91379e-08
1.18038e-07
5.96747e-09
7.18993e-09
8.6023e-08
-4.85071e-09
-8.83622e-08
-1.26206e-07
5.56657e-08
8.81353e-08
-1.75949e-08
-4.34725e-08
-7.97745e-08
-1.00087e-08
-8.18351e-08
1.59099e-07
5.49119e-09
7.12486e-08
7.43316e-08
-1.40588e-07
-4.9918e-09
1.12349e-07
7.97975e-10
-1.13085e-07
-6.18996e-11
-6.19518e-09
-1.79018e-07
-1.36411e-08
1.87802e-07
-5.37947e-09
1.16907e-07
-1.18735e-07
5.66543e-08
-7.3896e-09
9.63643e-08
-4.44109e-10
-9.48345e-08
-1.08572e-09
1.20541e-07
-7.98681e-10
1.33757e-07
-4.54858e-08
7.96073e-08
1.1378e-10
-1.02472e-07
-3.3351e-09
1.10144e-07
-4.33721e-09
8.98811e-08
-4.94975e-08
-8.91148e-08
1.18263e-10
8.88666e-08
1.29955e-10
-3.45009e-08
-1.34129e-07
1.43004e-07
2.5626e-08
-2.02139e-09
1.28787e-07
-1.26392e-07
-3.73355e-10
-8.68093e-08
-3.61254e-08
1.23407e-07
-4.72241e-10
-4.19604e-09
2.05383e-09
-1.08107e-07
-1.61239e-07
8.62753e-08
8.01928e-08
-5.2288e-09
2.82972e-10
-9.95763e-08
9.95112e-08
-2.17946e-10
1.35781e-07
-7.14534e-10
-1.98841e-10
-1.08941e-07
2.87858e-10
1.08852e-07
-5.62076e-08
2.04248e-08
4.42273e-08
1.29545e-07
-7.0866e-08
4.87878e-09
1.38381e-07
-1.37511e-07
-1.39925e-08
-1.22356e-07
1.37999e-07
1.88791e-08
-3.45221e-08
7.1115e-08
-7.23206e-08
1.48571e-07
3.80165e-09
1.11363e-07
1.49572e-07
-1.29494e-09
-1.50298e-07
6.74303e-08
-1.40783e-07
-4.29419e-09
7.76467e-08
1.4106e-07
-7.78214e-08
8.0098e-09
9.86303e-08
-9.65416e-08
-1.10948e-07
5.71819e-08
-3.02689e-08
-1.4787e-07
1.40986e-07
-1.88314e-08
2.57155e-08
1.60193e-07
4.49941e-08
-4.84717e-08
-1.55849e-07
-7.28447e-08
-2.97115e-08
7.95744e-08
2.29818e-08
-1.28714e-07
6.7702e-08
-5.36729e-08
1.14685e-07
-1.49815e-07
-3.29913e-09
1.56061e-07
-2.94647e-09
-1.07298e-07
2.03636e-08
-6.28807e-08
-1.61313e-07
-6.25274e-09
9.35732e-08
-1.40491e-09
-1.10979e-07
-5.05e-10
-1.07388e-07
1.37971e-07
-7.29659e-08
5.95543e-09
1.53744e-07
-8.21242e-08
-7.81288e-08
6.50898e-09
-1.32297e-07
1.77656e-07
-4.56508e-08
2.91937e-10
8.12172e-08
-8.16697e-08
-1.31845e-07
9.37143e-08
7.25735e-09
-2.3413e-09
6.35293e-10
1.03398e-07
-1.02874e-07
-1.1596e-09
1.87192e-07
-4.75251e-08
-1.02371e-07
-1.07122e-07
9.0521e-08
1.13568e-07
-1.08926e-07
-2.58784e-09
-1.76026e-09
1.00642e-07
-9.91897e-08
3.07988e-10
-9.47757e-09
-1.33221e-07
1.30219e-07
1.24798e-08
-1.37489e-07
1.54149e-07
-9.74782e-09
-6.91199e-09
1.19595e-07
-5.13271e-08
-6.80189e-08
8.62996e-09
-7.8275e-09
-9.61985e-08
9.576e-08
3.23796e-08
-6.59601e-09
-1.33081e-07
-1.98953e-08
1.09114e-07
-8.29933e-08
-6.22521e-09
1.57629e-07
-6.5771e-09
-1.34657e-08
-1.37586e-07
1.54223e-07
1.17211e-10
-2.52616e-09
-1.51814e-07
1.34467e-07
-1.34826e-09
-5.81627e-11
1.27555e-07
-1.27794e-07
2.16137e-10
2.24488e-11
-1.23445e-07
-8.07002e-08
1.2437e-07
2.08236e-08
-1.67705e-07
-1.09411e-07
1.09254e-07
1.70586e-11
1.39973e-10
-1.32199e-07
-7.1578e-09
1.86781e-09
-1.00702e-07
-4.26425e-11
1.00726e-07
1.91218e-11
-1.20639e-07
-3.35432e-10
1.21034e-07
-5.95758e-11
-9.97033e-09
1.20061e-07
-1.01099e-07
-7.76082e-09
-1.0135e-07
1.01032e-07
1.19203e-10
2.15379e-08
2.81396e-08
8.45588e-08
-1.33175e-07
7.16308e-08
-7.19186e-08
1.41888e-07
-1.41601e-07
1.01905e-07
-8.02348e-08
-2.38815e-08
2.21153e-09
1.00061e-07
1.8004e-10
-1.0554e-07
7.47907e-09
5.64726e-09
-1.07089e-07
1.21191e-07
-1.9749e-08
-5.27076e-10
1.00947e-07
-1.00023e-07
-3.96077e-10
-1.38704e-07
-8.40127e-09
1.62367e-07
2.02784e-07
-8.65208e-08
1.83126e-07
1.51153e-07
-7.54902e-08
5.55477e-09
-3.45396e-08
2.53761e-08
-1.07185e-07
1.18779e-07
8.68593e-08
9.19433e-08
-7.40571e-09
9.15179e-08
7.13691e-08
-1.57179e-07
-5.70789e-09
8.06235e-08
7.79663e-08
-7.43714e-09
1.19726e-07
-7.39647e-08
8.17939e-08
7.26117e-08
-1.23065e-07
5.85276e-08
-8.07457e-09
6.41872e-10
-9.74064e-08
-1.23503e-09
3.34796e-10
-3.04247e-07
1.81467e-07
1.75783e-07
-1.15239e-07
3.21337e-08
9.20798e-09
4.26041e-08
4.44997e-08
-9.63118e-08
-1.25826e-07
1.87997e-09
1.25074e-07
-1.12785e-09
-9.68007e-08
9.63836e-08
-2.82348e-11
4.45332e-10
1.25985e-07
-1.63169e-07
1.92984e-07
-1.558e-07
1.51819e-08
-1.43495e-09
1.23737e-07
-3.10381e-08
7.27486e-09
-7.21418e-08
9.59051e-08
-7.07394e-08
1.37164e-07
5.20635e-09
-1.43346e-07
7.42954e-08
7.41877e-08
-5.13673e-09
-1.08365e-07
-2.4493e-08
1.12963e-07
4.4518e-10
7.52689e-08
-3.60141e-11
-7.56781e-08
1.4314e-07
-6.52239e-08
7.56826e-08
1.30201e-09
-1.13601e-10
5.60111e-11
-9.50976e-08
1.74245e-07
-4.65511e-08
-2.87376e-08
-9.89566e-08
7.79569e-09
2.90009e-08
-1.18777e-07
8.54156e-08
-3.34189e-08
2.22116e-08
1.80888e-07
1.19067e-08
1.62945e-07
-1.78659e-07
-6.17226e-08
-6.61129e-08
5.47963e-09
1.28836e-07
6.25924e-09
-6.98083e-08
-7.06119e-08
1.33161e-07
7.25951e-09
1.95304e-09
1.04192e-07
-1.40916e-07
-1.4983e-10
6.87085e-08
-6.87019e-09
-6.49108e-10
-1.32061e-07
1.25489e-10
1.32584e-07
-1.32429e-07
1.6056e-07
-4.01653e-08
1.08956e-08
-9.24797e-09
4.9935e-08
1.08885e-07
-1.25993e-07
7.34539e-08
-2.632e-08
7.88589e-08
-1.37913e-07
9.29458e-08
-1.26462e-07
1.24865e-07
3.01818e-10
9.0664e-08
2.16133e-08
-1.63057e-07
-2.12524e-08
1.62696e-07
-1.79137e-07
9.82157e-08
-1.34862e-07
-1.67336e-09
1.6228e-07
2.38477e-08
6.54696e-08
-9.38697e-08
4.55235e-09
8.80397e-08
-5.51051e-08
6.01532e-11
-9.81493e-08
3.83328e-10
-2.30779e-07
2.30663e-07
-5.57212e-10
-9.36687e-08
-9.79053e-08
-9.17074e-08
9.95262e-08
-1.09169e-07
8.26554e-08
-1.04819e-07
1.67474e-08
5.41587e-09
1.23466e-07
-8.90124e-08
-9.0778e-09
-1.5191e-07
-1.10358e-08
2.06964e-08
1.42249e-07
-3.03584e-07
-3.28075e-10
-1.29055e-07
1.28287e-07
2.98923e-10
-9.17832e-08
-9.35586e-11
1.69365e-10
-1.3952e-08
-9.25298e-08
1.48438e-07
-4.1956e-08
1.06107e-07
5.31265e-09
4.28035e-08
-1.32818e-07
1.31882e-07
-3.5115e-09
-5.83104e-08
1.42433e-07
-9.75501e-08
3.18056e-10
-1.25821e-07
-3.22624e-10
9.05293e-08
-9.23205e-08
1.9704e-10
-6.53153e-08
-6.5063e-08
1.22636e-07
7.7423e-09
1.11343e-07
1.73931e-08
-9.55432e-08
-3.31933e-08
2.94957e-08
1.50287e-07
-1.74456e-07
-7.4915e-09
-1.08776e-07
-1.90627e-08
1.25297e-07
8.63672e-12
-1.25524e-07
2.18462e-10
2.36278e-08
7.4635e-09
5.35716e-08
-8.46629e-08
-1.39618e-07
7.48238e-08
-5.01438e-09
-1.13035e-07
1.09139e-07
-6.98037e-09
-3.33666e-10
1.19705e-07
3.54268e-10
-7.91824e-08
-7.09583e-08
1.43073e-07
7.06735e-09
1.27502e-07
-6.84394e-08
-6.58443e-08
6.78159e-09
1.27456e-07
-2.14455e-09
-1.42242e-11
-9.98302e-08
-9.00205e-08
9.80675e-08
-1.26422e-07
-4.60849e-08
-1.88702e-09
1.75155e-07
-1.04312e-07
2.91656e-08
-1.2693e-07
1.21149e-10
-1.03798e-07
5.36784e-10
-6.67918e-10
1.32625e-07
2.52244e-08
-2.69797e-08
-1.3087e-07
4.54096e-08
-1.27657e-07
-7.35643e-11
6.60381e-11
3.82671e-08
-1.91141e-07
-7.72389e-08
1.30251e-07
8.81549e-08
2.0302e-08
-1.43753e-07
-1.80594e-08
1.4151e-07
-8.0415e-08
6.39262e-09
1.31197e-07
-1.30164e-07
9.05571e-08
4.10526e-08
-1.44563e-09
-5.18801e-10
8.43968e-11
-9.56067e-08
6.56843e-08
-4.57858e-09
-1.43174e-09
-2.83642e-09
-2.34368e-09
9.39348e-08
-8.87547e-08
8.11658e-08
1.03682e-07
-1.0207e-07
-8.27774e-08
1.46588e-07
-1.63687e-07
3.4919e-10
1.68658e-10
1.5498e-07
-1.00384e-08
-1.361e-07
-4.18112e-08
1.50484e-07
1.09219e-08
1.17109e-07
-1.1047e-07
-5.67578e-09
-9.63178e-10
-9.47533e-10
1.12479e-07
1.62156e-07
-5.63398e-08
-2.3994e-09
9.24874e-08
-8.20897e-08
-5.19333e-10
3.69698e-10
1.38531e-07
-1.50948e-07
5.6713e-09
1.38206e-07
5.22334e-09
-1.19275e-08
1.42115e-07
-1.77891e-07
3.81079e-08
1.03738e-09
8.91188e-08
-8.75141e-10
-8.92811e-08
-1.16222e-07
1.16389e-07
-1.11565e-10
1.097e-09
-2.66314e-10
-1.10609e-07
1.097e-07
-3.86983e-11
-1.08729e-07
-2.54589e-10
2.07547e-10
7.06365e-08
-1.01256e-07
-7.55521e-08
1.06171e-07
2.28907e-11
-1.14183e-07
1.14309e-07
-1.4934e-10
-4.36744e-08
9.8328e-08
-2.51562e-08
-1.9246e-08
-1.39124e-07
7.23725e-08
-6.09368e-09
2.77684e-08
-1.56948e-08
1.05035e-07
-1.33969e-07
6.44732e-08
6.22325e-08
7.26299e-09
-1.56325e-07
-1.09187e-07
1.10053e-07
-1.24539e-07
-4.25668e-08
5.70527e-08
1.28169e-07
-1.28903e-07
2.22116e-10
5.11147e-10
-1.7178e-09
-1.81254e-07
1.22083e-10
1.8285e-07
-1.0389e-07
3.96414e-11
1.03859e-07
-1.25938e-07
-3.71708e-11
4.51397e-10
7.14434e-08
-1.2629e-07
-6.87557e-09
2.18959e-10
-1.27814e-07
-1.98673e-10
7.54105e-08
7.56245e-08
-5.5515e-09
-7.27795e-08
-7.30403e-08
1.39548e-07
6.27191e-09
-1.15588e-07
9.10179e-10
1.14488e-07
1.89816e-10
1.22662e-07
3.02584e-08
1.09322e-07
-1.55397e-08
1.06829e-07
-5.55431e-09
-9.78539e-08
4.61289e-08
4.44847e-08
7.2403e-09
5.14691e-08
1.26637e-07
-5.54327e-08
-1.18714e-07
7.24705e-08
-7.04566e-08
-1.2961e-07
-1.04314e-07
1.14559e-07
1.19364e-07
1.07461e-07
-1.35833e-10
1.14089e-07
-1.15427e-07
1.40586e-09
-6.80053e-11
-1.29378e-07
-1.27307e-07
8.40495e-10
7.39789e-11
1.68016e-08
3.80045e-08
-1.5881e-07
1.50664e-08
-4.24341e-08
1.93607e-07
1.3214e-07
-9.75259e-08
-3.87748e-08
4.17867e-09
1.89774e-08
-2.08669e-08
1.31082e-07
-3.25991e-08
-7.76159e-08
1.0492e-07
-6.45199e-10
-1.04027e-07
-2.47011e-10
-4.08054e-08
-1.42748e-07
2.83235e-07
-9.96814e-08
1.03071e-07
-7.83638e-08
-8.59887e-10
3.18291e-11
1.01219e-07
-3.04499e-10
7.238e-08
-7.28199e-08
1.24478e-07
-1.6313e-07
-1.28371e-07
7.81946e-08
1.24472e-07
-2.29415e-09
-2.99059e-08
-8.07532e-08
7.00976e-08
8.37428e-08
8.31526e-09
1.45828e-07
-1.23048e-07
2.11784e-09
1.46093e-07
-7.88883e-08
6.98255e-09
1.17209e-07
-1.54606e-07
1.30078e-07
-8.15403e-08
-3.31786e-08
-1.37936e-08
1.88425e-09
1.02478e-07
-1.13839e-07
6.72712e-08
-1.27301e-07
-5.28577e-09
1.47276e-07
1.01126e-08
-4.34875e-08
1.29988e-07
-8.65962e-08
-2.32973e-09
-2.53024e-08
1.37702e-07
-1.54404e-07
4.20046e-08
1.14667e-07
2.06e-08
-5.47116e-08
-1.45749e-09
-1.31725e-07
1.31475e-07
-8.81448e-10
-2.94635e-08
2.23848e-08
-9.58464e-08
1.02925e-07
7.44118e-08
-1.39959e-07
-5.06442e-09
-1.33866e-07
1.34254e-07
-1.69309e-10
-7.54775e-08
1.55781e-07
-1.21109e-07
-7.13814e-08
-7.87166e-08
1.59686e-08
-9.92023e-08
-8.61229e-11
2.08677e-07
1.48959e-08
-1.21303e-07
-1.05307e-07
-7.27847e-08
1.30552e-07
2.25747e-07
-1.99869e-10
-8.81997e-08
2.05404e-12
8.83975e-08
3.19397e-08
1.10494e-07
-6.42281e-10
1.47416e-07
6.18938e-09
9.54045e-08
5.60494e-08
2.69535e-09
7.25585e-08
-1.39825e-07
-5.51267e-09
-7.19428e-08
-8.11077e-08
1.44265e-07
8.78519e-09
-8.94501e-08
-4.30093e-09
-4.10292e-09
-4.65889e-08
-1.22389e-07
1.1226e-07
-7.30396e-11
-1.21963e-07
-3.29997e-09
1.19371e-07
-8.86054e-08
-1.34412e-07
9.60719e-08
1.26945e-07
-1.1075e-07
3.84579e-08
7.54806e-08
-3.18878e-09
6.95305e-08
6.93447e-08
-1.319e-07
-6.97499e-09
-7.05682e-08
-6.80053e-08
1.32316e-07
6.25783e-09
5.11053e-08
4.74724e-08
-1.08533e-07
9.95551e-09
-6.64219e-08
1.10738e-07
-3.60608e-08
-8.2553e-09
1.04536e-07
-1.04963e-07
-2.22039e-10
-9.29066e-08
5.92993e-10
8.08833e-08
1.04643e-07
-2.791e-08
-1.57616e-07
-3.07901e-08
8.7739e-08
3.79251e-08
-9.4874e-08
-9.68725e-08
2.26147e-11
9.84775e-08
-1.62762e-09
-7.28346e-08
-4.19129e-08
9.38806e-08
1.22697e-07
-3.33412e-09
6.94081e-08
-1.29221e-07
6.48833e-08
-5.06992e-09
-5.63561e-08
3.92917e-08
-1.17118e-07
1.13949e-08
1.30902e-07
-1.04775e-07
-3.67899e-08
9.25879e-08
8.1234e-08
-7.33962e-08
7.26354e-10
-1.21263e-07
-1.02495e-10
3.71393e-08
-2.52591e-08
1.02402e-07
-1.16204e-07
5.59574e-08
5.30137e-08
7.23304e-09
7.29955e-08
-4.89284e-09
3.89079e-08
6.2806e-08
7.39996e-09
8.92998e-09
1.25903e-07
-1.03605e-08
-6.21582e-09
-8.14829e-08
7.9611e-08
1.32954e-07
-7.37129e-08
-1.55265e-07
1.55803e-07
1.62671e-07
5.78459e-08
-5.523e-08
-1.65287e-07
1.42571e-08
-1.28203e-07
1.37574e-07
-7.77961e-08
-7.11071e-08
1.42217e-07
6.68661e-09
-4.52776e-08
-1.09121e-07
1.86007e-09
6.74449e-08
-6.71243e-09
1.28762e-07
-5.54578e-10
-3.82365e-11
2.20923e-08
-8.51324e-08
9.08086e-08
1.95171e-10
2.11746e-10
-1.34273e-07
-2.36322e-09
8.56983e-08
-8.33985e-08
1.13153e-08
-8.32675e-08
1.42321e-07
-7.03692e-08
-2.76692e-08
-1.33757e-07
1.19468e-09
1.60232e-07
9.21557e-08
-1.77375e-07
6.94761e-08
1.57428e-08
-1.21671e-07
8.94496e-08
-9.68328e-08
9.96221e-08
-6.14831e-10
-9.86559e-08
-3.51368e-10
-4.52848e-08
-1.27463e-07
4.56524e-08
1.27095e-07
-7.21364e-08
-1.21575e-07
1.47606e-07
4.61054e-08
-2.84461e-09
-1.41369e-07
1.41991e-07
2.22268e-09
-1.2431e-07
1.24171e-07
-1.57917e-09
-1.42643e-07
1.26053e-07
-6.34529e-08
1.36309e-07
7.02843e-08
-5.84538e-09
7.60682e-08
-1.35902e-07
-6.32314e-08
-1.25104e-07
8.68382e-08
-1.01352e-07
-1.34489e-08
1.40681e-07
-8.6879e-08
-3.456e-08
1.19683e-07
-1.17614e-07
-3.36136e-09
1.29307e-09
-9.68244e-08
-2.36804e-09
4.09492e-09
1.86939e-10
-1.48652e-07
1.45621e-07
-8.98145e-08
-4.24617e-10
7.89088e-10
-9.19108e-08
7.72673e-08
1.5178e-08
-5.3446e-10
-5.49969e-08
-1.31956e-07
1.7745e-07
9.50313e-09
1.1473e-07
-5.19752e-10
5.60045e-08
4.76341e-08
-1.12518e-07
8.87954e-09
-1.0821e-07
-5.80702e-10
1.08488e-07
3.02015e-10
-1.05643e-07
1.50571e-08
-2.48411e-08
6.25541e-08
-1.20187e-07
5.07256e-08
6.90707e-09
-4.61216e-09
-9.33575e-08
4.30095e-09
1.43063e-09
-1.32751e-07
1.71077e-09
5.31454e-08
7.38668e-08
-1.14038e-07
2.04884e-08
8.16624e-08
2.04757e-08
1.26398e-07
-1.26958e-07
5.63292e-10
-2.77357e-12
-2.04214e-07
1.92566e-07
8.48878e-08
-7.32402e-08
5.63574e-08
-1.45346e-07
1.11651e-07
-2.26626e-08
7.39503e-08
-6.69078e-09
-6.67974e-10
-1.06527e-11
5.73237e-08
-6.07503e-08
-1.14866e-07
1.63217e-07
-1.35161e-07
1.12574e-07
-1.48572e-08
6.61379e-10
-1.50119e-07
1.49489e-07
1.28875e-07
-1.5701e-07
-1.32867e-09
-8.64612e-08
-8.22369e-08
1.61902e-07
6.79623e-09
9.37514e-08
4.13423e-11
-9.38371e-08
4.43774e-11
-1.46326e-07
7.83297e-08
7.26242e-08
-4.62778e-09
-1.97827e-07
1.22645e-07
-1.37177e-07
2.1236e-07
-1.90734e-07
2.5031e-08
-4.52651e-08
-1.11826e-07
-1.62271e-07
9.95256e-08
3.74433e-08
-1.45413e-08
-1.27201e-07
1.38683e-07
3.05922e-09
-3.27037e-09
-1.10661e-07
-9.51314e-09
1.17109e-07
-1.09261e-07
1.1258e-07
-3.48973e-08
1.67481e-07
1.14906e-07
1.42204e-07
-1.28391e-07
-1.21846e-07
4.1252e-10
1.18337e-07
-1.18836e-07
8.56866e-11
1.02259e-07
-1.10703e-07
3.83178e-09
-7.94164e-08
-6.47787e-10
6.92171e-08
1.04075e-07
-4.45296e-08
6.33616e-08
-1.22127e-07
-4.68731e-09
-2.39334e-10
1.15182e-07
-1.15072e-07
1.30169e-10
-1.19095e-07
-1.9783e-10
1.20042e-07
-7.48902e-10
-1.21151e-07
4.43754e-08
-3.3694e-08
-1.18521e-08
9.95591e-08
7.97914e-08
-1.08937e-09
-1.78261e-07
2.88147e-09
-1.31926e-10
-1.72422e-08
8.24644e-08
-1.47834e-07
8.26116e-08
-1.27561e-07
1.29464e-07
6.65027e-08
-6.19847e-09
2.762e-08
-1.32648e-07
-3.75256e-08
1.42554e-07
4.11986e-08
1.19707e-08
3.50767e-08
-8.8246e-08
7.01108e-08
7.62896e-08
-1.40167e-07
-6.233e-09
-1.04971e-07
1.03201e-07
1.74768e-09
2.17064e-11
-6.90854e-08
7.34265e-09
5.64136e-08
-5.43188e-08
1.27311e-07
-1.29406e-07
-1.06274e-07
2.24846e-07
-4.67043e-08
-7.18681e-08
8.72736e-08
-7.32517e-08
-7.63643e-08
6.23425e-08
6.93131e-08
-5.69019e-08
-1.38544e-07
5.4366e-08
8.70038e-09
5.90592e-08
8.1559e-08
7.65761e-08
7.83814e-08
-1.48824e-07
-6.13371e-09
1.36956e-07
8.17854e-09
-6.28952e-09
-1.38845e-07
1.04477e-07
8.19215e-10
-3.76647e-10
9.86352e-08
-1.00426e-07
2.33854e-09
-5.47964e-10
-6.69851e-08
-7.89055e-08
1.38929e-07
6.96193e-09
-1.23115e-07
1.5385e-09
4.25509e-10
-1.08526e-07
-2.84343e-11
3.44526e-10
1.15154e-08
1.25781e-07
1.13777e-07
1.98009e-09
-1.02647e-09
1.45025e-10
-1.05204e-07
1.04479e-07
9.93003e-08
1.76659e-08
2.71638e-09
-1.20883e-08
3.69448e-08
-1.22712e-07
9.78552e-08
1.27792e-07
-1.27601e-07
-8.82963e-11
-1.03403e-10
-3.03398e-08
-1.21011e-07
1.76382e-07
-1.21595e-07
-1.95841e-08
1.46335e-07
-5.15654e-09
1.57468e-07
-1.33709e-07
-2.30647e-08
-2.09525e-08
1.31291e-07
1.28853e-07
-1.29732e-07
4.20641e-10
4.58116e-10
1.53602e-07
-4.73114e-08
-1.51079e-07
4.47885e-08
1.27221e-07
-1.27426e-07
1.50774e-07
-1.50569e-07
9.19644e-09
-1.26468e-08
-1.00644e-07
1.04094e-07
2.73338e-08
-1.05105e-07
-4.45849e-08
1.22357e-07
8.86231e-08
8.05241e-08
-1.61989e-07
-7.15826e-09
2.0846e-07
-2.20509e-07
-9.4515e-08
-1.3424e-07
1.04944e-07
-1.33437e-08
1.28771e-08
-1.90266e-07
1.65072e-07
-8.77357e-08
1.36892e-07
-2.32976e-07
1.8382e-07
8.17293e-08
-1.63296e-07
-6.16891e-09
2.08868e-08
9.16303e-08
-1.58458e-08
-9.66712e-08
-1.50262e-09
1.27742e-07
-1.44493e-08
-1.08657e-07
-6.03978e-08
1.57372e-07
-1.1001e-07
1.30366e-08
-2.80742e-08
8.12329e-08
-4.56512e-08
-7.50755e-09
3.01732e-10
-1.02053e-07
1.02159e-07
-4.07615e-10
2.6795e-09
1.27708e-07
-1.29272e-07
-1.11633e-09
-6.27226e-08
-1.29375e-07
1.42254e-07
5.56181e-08
-3.39955e-08
1.36836e-07
4.28441e-09
-4.90568e-08
-4.54132e-08
1.29486e-07
-2.34562e-07
6.97714e-09
-1.556e-07
1.23024e-07
-7.3698e-08
1.26116e-07
-1.22985e-07
-4.50795e-10
-1.00278e-07
1.55365e-09
-2.31612e-09
1.0104e-07
6.33785e-08
-1.94695e-07
-1.49157e-07
-1.02884e-10
1.29324e-07
-1.29029e-07
-1.92756e-10
-1.18293e-07
-4.18308e-08
1.51745e-07
5.77594e-09
-9.33082e-09
1.13221e-07
-1.01381e-07
-1.15457e-08
1.47963e-07
-1.19394e-07
3.68828e-10
-7.05523e-11
6.57681e-08
-1.56263e-07
8.48219e-08
5.67349e-09
-1.49544e-09
-1.17747e-07
-1.5405e-09
1.30481e-07
6.13302e-09
-1.07592e-07
5.47657e-08
5.09573e-08
1.86864e-09
-1.08881e-07
2.99618e-08
1.48232e-07
9.91535e-12
1.38858e-07
-6.85039e-10
-1.38183e-07
7.26487e-09
1.22553e-07
-2.60952e-08
-1.03723e-07
1.46872e-07
-1.67497e-07
8.70396e-08
-6.6414e-08
4.67279e-08
1.17632e-07
-5.76675e-08
-6.81915e-09
8.43544e-08
9.47106e-08
-1.67488e-07
-1.40403e-08
-6.74031e-09
1.11802e-07
-1.34773e-07
1.18726e-07
2.91198e-10
-1.19077e-07
6.00667e-11
7.32359e-09
1.02614e-07
-3.8301e-09
8.1068e-08
-2.01587e-07
3.19132e-08
-1.35291e-07
2.30982e-09
-7.64075e-08
-6.51016e-08
1.34638e-07
6.87111e-09
-1.0938e-07
-5.0529e-08
3.3683e-08
1.26226e-07
-1.21777e-07
-6.4369e-10
-6.94195e-10
-7.13466e-08
1.50804e-07
-8.542e-08
5.96237e-09
7.66169e-08
-1.51885e-07
7.89014e-08
-3.63379e-09
-1.1524e-07
-2.2223e-10
1.04928e-07
-1.07671e-07
4.69146e-09
-1.94872e-09
1.54575e-07
-8.65986e-08
8.63999e-09
-1.1759e-07
1.98224e-08
-1.9847e-08
6.0488e-08
-1.00061e-07
-2.25725e-08
1.28069e-07
-1.27225e-07
-1.83313e-10
6.95468e-08
6.23026e-08
-6.21768e-08
-6.96726e-08
8.15647e-08
1.51972e-07
-1.64007e-07
8.08291e-08
6.89459e-08
-1.44505e-07
-5.26976e-09
-1.1859e-07
6.25841e-08
4.85655e-08
7.43997e-09
2.24994e-10
1.28402e-07
2.26285e-10
8.14131e-08
7.60578e-08
-1.5192e-07
-5.55052e-09
1.08313e-07
1.19207e-07
-9.73527e-09
-1.05773e-07
-3.69786e-09
9.76598e-08
5.94393e-11
1.50541e-07
-1.5213e-07
-8.32476e-08
8.48361e-08
5.10146e-08
6.08576e-08
7.33437e-09
-6.25218e-09
-2.19335e-07
1.91282e-08
1.34713e-07
-3.64314e-09
6.32179e-09
1.55703e-07
1.33898e-07
-2.27047e-07
-1.25653e-07
1.08932e-09
-1.50476e-09
1.26068e-07
6.84814e-10
1.01528e-07
-1.02061e-07
-1.52216e-10
-8.12997e-08
1.8492e-07
-1.81417e-07
5.31031e-08
1.25778e-07
-6.62405e-08
-1.12641e-07
4.69263e-08
5.98275e-08
-1.14261e-07
7.50749e-09
1.52274e-07
-1.16484e-08
2.12762e-08
-1.36418e-07
-5.64708e-09
4.55275e-08
-1.41268e-07
-1.9086e-08
-9.68523e-08
-1.14054e-07
1.07511e-07
2.06129e-08
-5.14546e-09
-2.07497e-08
9.86428e-08
2.96179e-08
5.5778e-08
-7.95055e-08
-3.39727e-09
1.27838e-07
3.65645e-09
1.39249e-10
4.4398e-10
-2.17229e-07
-1.55181e-08
-4.1406e-10
1.28756e-07
1.5017e-08
-1.35887e-07
-1.44193e-08
2.79313e-07
-1.23049e-07
-1.41845e-07
-1.71823e-07
1.39799e-07
1.17117e-07
-1.48202e-07
-6.96898e-08
7.54841e-08
-7.73199e-08
7.15256e-08
1.2079e-07
-1.25089e-07
-3.90448e-09
8.20309e-09
-3.98383e-09
-6.49366e-08
8.1027e-08
-1.87914e-07
-8.18102e-08
6.62807e-08
-1.42594e-08
-1.20725e-07
2.67852e-07
-4.22875e-08
-1.00284e-07
-1.36922e-08
-7.84251e-08
1.57826e-07
2.16344e-09
-3.37286e-08
-7.25404e-08
9.09921e-08
1.52769e-08
4.0471e-08
-1.81756e-07
8.24453e-08
5.88399e-08
-1.0884e-07
1.08559e-07
-7.22511e-11
3.53446e-10
9.37459e-08
-1.94397e-10
1.41279e-08
1.27578e-07
1.15101e-07
-7.43853e-09
-8.52775e-08
-1.55149e-07
1.84215e-08
8.18139e-10
1.37289e-07
-9.64064e-08
1.44258e-07
-4.51e-08
-5.98358e-09
3.13925e-09
1.27824e-07
-3.12558e-09
1.06645e-07
3.9889e-08
-1.55875e-07
-3.03397e-08
-1.27079e-07
-1.10264e-07
-8.61472e-08
4.45011e-08
-1.1339e-08
1.106e-07
-8.70348e-09
-9.60223e-08
-1.10441e-07
-3.06406e-09
9.64508e-08
-1.23941e-07
1.00446e-07
-6.64347e-10
-9.92045e-08
-5.76707e-10
-2.61984e-08
-1.50396e-07
-1.79922e-07
1.79638e-07
1.15463e-07
-4.82353e-08
1.11259e-08
-7.83536e-08
1.14827e-07
-6.28978e-10
-1.14129e-07
-6.97611e-11
9.45003e-10
1.04027e-07
-1.05238e-07
2.65382e-10
2.94506e-08
1.21448e-07
-3.71214e-08
-7.90242e-08
-8.33477e-08
1.04874e-08
7.8122e-09
1.11013e-07
-1.14801e-07
-4.02441e-09
-1.26546e-07
1.36648e-07
-2.28932e-09
-1.35297e-07
-3.63049e-09
-1.5062e-07
1.52542e-07
-5.6441e-08
-8.6188e-08
1.48841e-07
-6.21164e-09
1.09093e-07
-1.4993e-08
6.64862e-10
-4.49971e-11
4.7291e-08
1.18945e-08
-7.4415e-10
-3.63377e-10
7.61846e-08
8.32432e-08
-5.82635e-09
-3.41074e-08
1.00868e-07
7.95005e-08
-2.83539e-07
-1.37746e-07
2.7448e-07
1.45628e-07
1.33066e-07
-5.60099e-08
-8.51983e-08
6.32163e-09
-6.55293e-10
-1.25957e-07
-3.46298e-10
5.49288e-08
6.35553e-08
-1.17408e-07
-1.0765e-09
-1.15676e-07
1.15508e-07
1.1716e-10
5.13749e-11
1.06218e-07
3.25405e-08
-1.38937e-08
1.57825e-09
1.95479e-07
-4.49084e-09
-5.34618e-08
-8.15401e-08
-3.54191e-09
-9.01291e-08
-2.32744e-08
7.11763e-10
1.08029e-07
-1.07922e-07
7.86533e-08
-1.9263e-07
1.07893e-07
-1.09451e-09
-5.80513e-10
7.04276e-08
6.55942e-08
-1.32045e-07
-3.97698e-09
-1.62511e-07
8.12115e-08
-2.28957e-08
-2.69251e-08
-3.69061e-08
1.27591e-07
-6.37595e-08
-2.96176e-08
7.13856e-08
3.08562e-08
-1.40713e-07
-8.97315e-08
9.45181e-08
1.35927e-07
7.68814e-08
-5.90713e-09
6.516e-08
1.29286e-07
-5.33059e-08
-1.4114e-07
-3.78138e-09
1.16882e-07
1.49839e-08
-1.28085e-07
1.11356e-07
-9.46784e-08
-2.06861e-08
4.00888e-09
1.42212e-07
-1.91313e-07
1.7681e-07
1.41803e-07
-6.88272e-08
-6.61361e-08
-6.84011e-09
4.21793e-08
-1.69271e-07
-1.20858e-07
-1.21282e-07
2.28736e-11
-1.87811e-07
1.58264e-07
-1.63863e-07
1.9341e-07
8.22953e-08
-1.54454e-07
-2.62734e-08
1.19704e-07
-1.18676e-07
-4.76309e-10
-5.5164e-10
6.03618e-08
-1.2e-07
-5.29875e-09
-6.48926e-09
8.20621e-08
-1.76773e-07
7.83317e-08
-1.35734e-07
-7.28521e-11
2.52912e-10
1.35554e-07
-1.41706e-07
1.3865e-07
-1.29805e-07
-8.54647e-08
-2.81558e-08
-7.20404e-09
5.95646e-08
6.95051e-08
-6.04521e-09
-5.27416e-08
-6.00571e-08
-5.79093e-09
-3.67121e-09
-1.03479e-07
-1.0082e-07
-1.03525e-09
-5.73693e-09
6.95567e-08
-6.91646e-08
6.75486e-10
-1.06763e-09
1.07035e-07
-1.04925e-07
-1.3846e-09
-7.25682e-10
-1.07516e-09
1.27165e-07
-1.25951e-07
-1.383e-10
-1.32141e-07
1.41404e-08
1.12264e-07
5.73686e-09
1.26953e-07
-1.20651e-07
-4.37914e-09
-1.92272e-09
-1.07301e-07
-1.14677e-09
1.09111e-07
-6.63415e-10
-1.03683e-07
-6.33049e-08
9.65335e-08
3.39096e-08
-9.40767e-09
-1.21035e-07
7.56745e-08
-8.03278e-08
3.81445e-09
8.38862e-10
4.49965e-08
3.71635e-08
-1.27445e-07
1.0922e-07
-1.06279e-07
-7.32459e-09
4.38436e-09
-5.06704e-08
5.10989e-08
1.52199e-07
5.40427e-09
1.28023e-07
-9.57055e-08
1.20582e-08
-2.75117e-08
-1.17113e-08
-1.0149e-07
-3.15105e-08
1.96399e-07
6.10739e-09
-1.71064e-07
1.29725e-07
-3.33585e-08
-1.93198e-08
2.09381e-08
-7.9742e-08
5.88203e-09
-1.24777e-07
1.24579e-07
5.81738e-08
-7.00592e-08
-3.00275e-08
7.71499e-08
2.17313e-09
6.2278e-08
5.59792e-08
-7.70586e-08
-8.26854e-08
1.14164e-07
-1.25992e-08
-7.02248e-08
5.86013e-09
9.37728e-08
1.12979e-08
2.23407e-08
2.45515e-08
-1.05645e-08
5.12449e-08
5.94535e-08
6.93363e-09
-4.90492e-08
1.60437e-07
-1.66385e-07
-1.74176e-07
8.65211e-08
2.20239e-07
-1.483e-07
1.05933e-07
-3.20918e-08
6.07939e-08
-1.34635e-07
-1.23221e-07
-4.24163e-08
-1.44078e-07
-5.69388e-09
-1.01227e-07
8.00488e-08
-8.81232e-08
1.09301e-07
8.37703e-09
-1.19108e-07
-1.40776e-07
-7.49986e-09
-3.85396e-09
-1.27078e-07
1.1502e-07
1.23414e-07
1.94626e-08
1.02496e-07
2.09723e-09
-1.32401e-07
1.22361e-07
-8.51375e-08
9.51781e-08
-1.01269e-07
1.31376e-08
-2.03945e-08
-3.45034e-08
-6.04695e-09
9.89161e-08
-4.78253e-08
-1.11771e-07
-4.32416e-08
1.22644e-08
-7.06518e-08
-8.48553e-08
7.63672e-09
-6.95907e-08
7.99743e-08
7.99181e-08
2.33417e-08
4.23558e-08
-1.45616e-07
6.24396e-08
1.91242e-08
-7.21544e-08
-2.59279e-09
-7.98495e-08
-8.95927e-08
6.93076e-09
6.22075e-08
-7.22775e-08
-4.77879e-08
5.7858e-08
-4.89987e-08
-8.98053e-09
1.46218e-07
-1.84593e-07
3.89226e-08
-5.47576e-10
-8.17921e-09
2.71397e-08
7.88639e-08
-9.78244e-08
5.15252e-10
-9.34163e-08
-8.34101e-10
9.37351e-08
-1.00355e-07
9.99918e-08
1.57379e-10
2.05661e-10
1.29675e-07
-7.12851e-08
-1.3143e-07
-6.08708e-08
-3.79821e-08
1.00554e-07
-1.70076e-09
1.53068e-07
1.16072e-08
-1.15667e-07
5.87214e-09
-1.39024e-07
1.65659e-08
-5.82515e-10
-1.49982e-07
-1.13766e-07
1.1401e-07
-3.16684e-10
9.21692e-08
6.42183e-08
-1.41263e-07
-1.31194e-08
-1.47704e-08
2.25559e-07
-8.33733e-10
-9.30644e-08
-1.45215e-09
9.71481e-08
-9.61756e-08
6.48157e-11
-3.19923e-09
1.26221e-08
2.6247e-08
1.21549e-07
-2.39631e-08
1.15189e-07
-8.99198e-09
-3.25087e-09
1.27031e-07
-1.22343e-07
-1.43686e-09
-1.0328e-07
1.10689e-07
-5.76197e-09
1.20982e-07
5.47125e-09
-3.15008e-08
-9.49524e-08
1.17876e-07
1.67513e-09
-1.17466e-07
-2.08449e-09
-7.03528e-08
-5.34773e-08
7.03684e-08
8.89169e-08
1.52661e-09
1.56045e-07
1.92694e-08
-3.57666e-08
-1.44651e-08
3.74708e-09
-7.74816e-08
1.21726e-07