/*--------------------------------*- C++ -*----------------------------------*\
| =========                 |                                                 |
| \\      /  F ield         | OpenFOAM: The Open Source CFD Toolbox           |
|  \\    /   O peration     | Version:  2212                                  |
|   \\  /    A nd           | Website:  www.openfoam.com                      |
|    \\/     M anipulation  |                                                 |
\*---------------------------------------------------------------------------*/
FoamFile
{
    version     2.0;
    format      ascii;
    arch        "LSB;label=32;scalar=64";
    class       volVectorField;
    location    "0.032";
    object      U;
}
// * * * * * * * * * * * * * * * * * * * * * * * * * * * * * * * * * * * * * //

dimensions      [0 1 -1 0 0 0 0];

internalField   nonuniform List<vector> 
31639
(
(0.120009 0.000667015 -0.000530973)
(0.117493 -0.000369608 -2.98943e-06)
(0.119138 -0.000239018 0.00078774)
(0.121981 3.83729e-05 -0.000175103)
(0.118639 -0.000712152 -0.000293586)
(0.11807 -1.14692e-05 -5.04655e-05)
(0.116816 3.66958e-05 -0.000323315)
(0.119452 -7.56891e-05 -8.70067e-05)
(0.119338 0.00015276 -0.000225267)
(0.120504 -0.000365164 -0.000496531)
(0.121011 0.000479137 -0.000130061)
(0.12024 -0.000533872 -0.000738718)
(0.118117 -0.000359421 -4.59428e-06)
(0.120298 2.37858e-05 0.000123106)
(0.116712 -0.000372558 2.83516e-05)
(0.117135 -0.00037861 0.000705112)
(0.118837 0.0003066 0.0001454)
(0.116485 4.24312e-05 0.000383346)
(0.117417 0.000112277 -0.000406361)
(0.118648 -9.26302e-05 -0.000110372)
(0.112688 -0.000251763 -0.000408265)
(0.12085 -0.000261259 -0.00055184)
(0.120671 0.000682979 -0.000187405)
(0.117497 0.000148581 -0.000207726)
(0.116114 -0.000126974 -0.000103845)
(0.119188 -0.000119515 7.32701e-05)
(0.118603 2.92026e-05 -8.73187e-05)
(0.121222 0.000577103 -0.000120392)
(0.116875 0.000401226 0.000615019)
(0.120419 -1.28381e-05 0.000503871)
(0.120964 -0.000140333 -0.000104807)
(0.116397 -8.99929e-05 -0.000143879)
(0.120818 0.000301164 -0.000493562)
(0.117386 -0.000160712 -8.81158e-05)
(0.114118 3.41942e-05 0.000133691)
(0.120929 0.000458787 1.11087e-05)
(0.111613 -0.000293713 -6.90093e-05)
(0.121656 -0.000451955 0.000329655)
(0.120719 -0.000324938 0.000275328)
(0.111553 4.86628e-05 -8.42309e-05)
(0.115031 -7.59504e-05 -0.000343151)
(0.113621 -0.000386938 0.000129546)
(0.120089 0.000150008 -6.78351e-05)
(0.121309 -0.000788949 -0.000829553)
(0.120053 -0.000563694 0.000693979)
(0.121487 -0.000767477 -0.000395535)
(0.115761 0.000261776 -0.000273267)
(0.118285 0.000441778 -0.000383598)
(0.118507 -6.90326e-05 0.000197946)
(0.121524 -0.00039219 -0.000281574)
(0.121174 -0.000149363 -0.000439924)
(0.112982 0.000190292 -0.000203144)
(0.120721 0.00053448 0.000190381)
(0.11215 -0.00021213 0.000308466)
(0.118705 -0.000323071 -0.000176224)
(0.118368 0.000127242 0.000109383)
(0.113483 -4.55998e-05 -0.0006331)
(0.118569 8.60406e-05 0.000333101)
(0.118187 7.51342e-05 0.000344978)
(0.114125 0.000196824 -0.000166969)
(0.119674 -0.000154865 -0.000422372)
(0.12016 0.000348429 -0.000160354)
(0.116446 -0.000204515 -0.000351286)
(0.118206 -4.43505e-06 -0.000146085)
(0.119272 0.000374542 7.93651e-05)
(0.1216 -0.000209732 -0.000531768)
(0.119127 0.000149027 -0.000956862)
(0.118371 -0.000290134 0.000104954)
(0.115036 -2.81475e-05 -0.000356283)
(0.121566 0.000311174 -0.000189379)
(0.119901 0.000100161 -0.000219719)
(0.115376 0.000167776 -0.00112139)
(0.120223 -0.00038008 -0.000771864)
(0.118755 -0.000133984 -0.000193415)
(0.119672 0.000473744 -3.11668e-06)
(0.112512 0.000247654 -0.000661761)
(0.121116 -0.000651186 0.000229526)
(0.117808 0.000270645 -0.000600718)
(0.117595 -0.000170665 0.000340947)
(0.119905 0.000281501 -6.70048e-05)
(0.116419 2.44963e-05 0.000137183)
(0.110262 -0.000147352 5.80788e-05)
(0.121059 -0.000270666 0.000144016)
(0.11909 -0.000245096 -0.000224534)
(0.119 -5.72267e-05 -0.00013935)
(0.121 -0.000336284 -0.000250976)
(0.121626 2.80537e-05 0.000129629)
(0.121312 -0.000193172 -0.000389291)
(0.113319 0.000894861 -0.00137727)
(0.120479 -0.00026977 -0.000443072)
(0.119158 -0.000303839 0.00028003)
(0.117596 -0.000426797 -0.000107601)
(0.114312 -0.000489738 -0.000346194)
(0.11684 0.000477911 -0.00075427)
(0.116467 -0.000735543 -0.000352316)
(0.117305 0.000926687 0.000319746)
(0.118806 0.000213132 -0.000420612)
(0.118711 -0.000132261 0.000164669)
(0.118159 0.000153767 0.00020356)
(0.113578 -0.000894905 -6.67424e-05)
(0.119597 0.000116537 -8.16924e-05)
(0.119541 0.000303033 0.000643119)
(0.116951 -0.000259275 -0.00017851)
(0.112759 7.60763e-05 -0.000179984)
(0.113993 -4.14555e-05 -0.00034144)
(0.121552 -0.000559616 -0.000262214)
(0.112267 0.000367432 -0.000397259)
(0.113317 -0.000769892 -0.000807841)
(0.115548 0.000422954 7.94879e-06)
(0.111923 -0.00014721 0.000581521)
(0.11972 -0.0010528 0.000242944)
(0.114397 -7.11852e-05 -0.000265057)
(0.118076 -2.7412e-05 -0.000256831)
(0.117474 -0.000606628 -0.000629821)
(0.118509 0.000162728 -0.000697554)
(0.112621 -0.000468956 0.000264259)
(0.117553 0.000523793 -1.84378e-05)
(0.117028 -0.000617355 -0.000120765)
(0.11951 5.74289e-05 6.36586e-06)
(0.117975 -0.000298766 9.22007e-05)
(0.119116 -0.000443896 -8.22309e-05)
(0.120227 -0.000506722 0.000369009)
(0.120819 6.13494e-05 -0.000598693)
(0.119637 0.000314702 -0.00069954)
(0.119462 -0.000135849 -0.000794993)
(0.120395 -0.000328594 0.000124142)
(0.117896 -3.01286e-05 0.000294495)
(0.116443 0.000167129 -0.000257084)
(0.116215 -0.000572892 -0.000284795)
(0.120409 -0.000251469 0.000122726)
(0.120044 6.6185e-05 -0.000278388)
(0.120654 0.000199828 -0.00043111)
(0.119965 -0.000450839 7.2215e-06)
(0.118574 -0.000143407 6.51832e-05)
(0.120636 -0.000127677 -0.000154852)
(0.118771 -0.000110669 8.21188e-06)
(0.114153 -0.000143929 -0.000321479)
(0.113332 -0.000692174 -0.000402202)
(0.120898 0.000397851 0.000550203)
(0.118376 -0.000415428 -0.000410761)
(0.118087 -0.000124164 -0.000368023)
(0.121337 0.000264107 0.000992896)
(0.120588 0.000481851 0.000243258)
(0.112771 -0.000318319 -0.000452527)
(0.113161 -0.000114525 -0.000647948)
(0.120255 -0.000196872 -5.48296e-06)
(0.120075 -0.00019686 -0.000300426)
(0.11378 -0.000224009 -0.000425432)
(0.114332 -9.13665e-05 0.000124765)
(0.12056 -0.000367431 1.44455e-05)
(0.116223 -8.21068e-05 -0.00108614)
(0.117771 3.79457e-05 0.000220348)
(0.118097 -0.000279182 -0.000780799)
(0.120325 -0.000164522 3.17822e-05)
(0.114521 0.000635038 -0.00110474)
(0.121934 2.48709e-06 5.8428e-05)
(0.119539 -0.000235641 -0.000262912)
(0.115101 -0.00119356 -0.00015888)
(0.113733 -0.000711191 0.000902542)
(0.117202 -0.000375439 -0.000227421)
(0.121383 -0.000128666 -0.000442836)
(0.112706 0.000234986 0.000138372)
(0.114395 0.000109747 -0.00106988)
(0.113412 -0.000379981 0.00014593)
(0.112877 -0.0011426 0.000130313)
(0.116763 0.000125755 -0.000154324)
(0.113488 0.000407456 0.000112188)
(0.120932 -0.000659633 0.000201639)
(0.121048 -0.000436192 0.00023338)
(0.113487 0.000213257 -0.000693519)
(0.114388 -0.000658862 0.000402644)
(0.117664 0.000596623 -0.000610764)
(0.114 -9.96135e-05 -7.54717e-05)
(0.118765 -8.11335e-05 0.000457234)
(0.121548 -0.000235319 -0.000276456)
(0.119853 -0.000597527 -0.000413636)
(0.118492 0.000610407 0.000208256)
(0.120393 0.000267402 0.000428428)
(0.119032 -0.000458091 -7.03476e-05)
(0.117499 -0.000321513 -0.000208937)
(0.117814 0.000131362 -9.93077e-05)
(0.117477 -0.000562522 0.0007072)
(0.11699 5.58123e-05 0.000211064)
(0.111786 0.00103992 -0.000533294)
(0.118942 -8.94909e-05 0.000132053)
(0.121038 0.000342869 -0.000279398)
(0.116912 -1.40928e-05 0.000511475)
(0.120565 0.000251083 -4.06836e-05)
(0.114188 -0.00024462 7.46217e-05)
(0.112334 -0.000170295 0.00035643)
(0.121438 -0.000228234 -9.83648e-05)
(0.120329 -0.000231584 -0.000261849)
(0.118486 -0.000310653 0.000545861)
(0.117991 -0.00010478 0.000243055)
(0.118442 -7.75385e-05 -0.000338739)
(0.118314 -9.73221e-05 -0.000602463)
(0.118071 0.000524259 0.000432899)
(0.120281 0.00031854 -0.000441927)
(0.113994 -0.000104395 -0.000274095)
(0.117267 0.000177653 -0.00018505)
(0.121241 0.000104792 0.000122831)
(0.120285 -0.000302794 -7.99283e-05)
(0.119374 -0.000422408 8.09966e-05)
(0.118449 -0.00138553 -0.000445788)
(0.118516 -0.000551627 -0.000439819)
(0.117421 -2.89796e-05 -0.00035861)
(0.118274 -0.000160502 -0.000437566)
(0.117094 0.000541157 -0.000513486)
(0.120289 5.62496e-05 -0.000433201)
(0.112724 -0.000178851 -3.08021e-05)
(0.118339 -5.30129e-05 -0.000113387)
(0.117705 0.000475128 -2.35765e-05)
(0.118851 3.67951e-06 -0.000446746)
(0.12055 -7.49646e-05 -0.000495964)
(0.119947 -0.000463369 -0.000398509)
(0.12091 -0.000128247 -0.000288927)
(0.11417 -0.00105071 -0.00038348)
(0.116321 -0.00048576 0.000442066)
(0.120255 -0.000352779 -0.000267387)
(0.121031 -0.000156128 0.000235474)
(0.120093 5.26423e-05 0.000250436)
(0.11829 -0.000369496 -0.000527077)
(0.111221 -0.00019773 0.00064661)
(0.118241 -0.000593452 0.000473669)
(0.113367 -0.000491204 -0.000304601)
(0.116544 0.000396617 4.11431e-05)
(0.1203 -0.000425754 0.000519234)
(0.11639 0.000209644 0.000413366)
(0.112922 0.000388041 -0.000249359)
(0.118653 0.00012584 0.000250431)
(0.119612 0.000369416 -0.00020837)
(0.121201 -0.000284912 -6.52315e-05)
(0.113304 -0.000276387 -3.66004e-05)
(0.112491 -0.000657568 0.00017737)
(0.119043 -0.00037166 0.000290672)
(0.120451 7.42456e-05 -0.000634528)
(0.113715 5.83213e-05 0.000441458)
(0.120611 -0.000763027 0.000249805)
(0.115914 5.64991e-05 -0.000458561)
(0.114205 -0.000391254 0.00014976)
(0.117863 0.000210443 -0.000323088)
(0.119444 -0.000273326 1.90384e-05)
(0.116975 -0.000960366 -1.80121e-05)
(0.115806 0.000230295 0.000879153)
(0.116716 0.000250495 0.000319241)
(0.118452 -0.000174486 -0.000117437)
(0.117364 0.000518641 -0.000419239)
(0.11618 0.000365304 -0.000922936)
(0.112849 -0.000473324 0.000483203)
(0.117538 0.00034435 -0.000516793)
(0.117854 0.000148812 -0.000650654)
(0.115086 -0.000184222 -2.0755e-05)
(0.116536 -0.00105462 0.000240939)
(0.120658 3.99379e-05 -0.00015411)
(0.120967 0.000605844 0.000101414)
(0.118421 0.000515527 -0.00011007)
(0.114094 0.00011978 -5.64635e-05)
(0.120603 0.000260494 -0.000201707)
(0.119968 0.000364937 -0.000526313)
(0.118129 -0.000377957 -0.000358524)
(0.121716 0.000153561 0.000788416)
(0.121314 0.000116493 -0.00037455)
(0.119604 0.000222992 -0.000454305)
(0.121117 1.75264e-05 0.000106977)
(0.117022 0.000422583 9.22732e-05)
(0.118166 -0.000281655 -0.000651733)
(0.112699 0.00032494 -0.00152203)
(0.1165 -0.000110173 -0.000207423)
(0.120439 -0.000856455 0.000224647)
(0.116858 6.1682e-05 0.000340637)
(0.120212 0.000304982 -8.48509e-05)
(0.117769 0.000470578 -0.000676226)
(0.118712 -0.000193885 4.39279e-05)
(0.119544 0.000201925 0.000360661)
(0.121408 -2.50261e-06 -0.000657874)
(0.118783 0.000599052 0.000170945)
(0.11351 0.000234279 -1.09704e-05)
(0.117489 0.000129323 0.000148681)
(0.114836 0.00151283 -0.000365487)
(0.121048 -0.000210364 -0.000885824)
(0.117599 -0.000585956 -0.000271844)
(0.120286 1.10324e-05 -0.000414479)
(0.118839 9.14561e-05 -0.000277465)
(0.116571 -0.000113242 -0.000472455)
(0.112883 -1.74437e-05 1.44165e-05)
(0.114532 0.000136424 -0.000573288)
(0.114015 0.000267212 0.00021045)
(0.11261 -0.000309015 0.000111994)
(0.121346 -0.000381521 -0.000374367)
(0.113297 -0.000429882 -0.000539046)
(0.119318 -0.000383761 0.000207863)
(0.118786 0.000557161 -0.000267722)
(0.117512 2.08219e-05 -0.000227205)
(0.114412 -0.000162698 -0.000195732)
(0.120874 -0.000756268 1.02839e-05)
(0.117774 9.66371e-05 -0.000727547)
(0.115795 0.000102579 0.000621957)
(0.120602 0.00020888 -0.000445962)
(0.119153 -0.000148952 -9.2071e-05)
(0.114612 0.000441195 0.000409662)
(0.117114 9.37537e-05 -7.33697e-05)
(0.113896 0.000205698 -4.53649e-05)
(0.118626 0.00031909 -0.000303336)
(0.117562 0.000276144 -0.000164199)
(0.114384 0.000388126 0.000825137)
(0.118155 -6.04464e-05 -0.000219892)
(0.117201 0.000984804 0.000387197)
(0.111675 0.000125511 -0.00113946)
(0.111686 0.000342154 0.000298313)
(0.119901 -0.000551574 0.000232681)
(0.120997 0.000141389 -3.64676e-05)
(0.121432 0.000185295 -0.000126775)
(0.113068 0.000240122 0.000135125)
(0.114567 -1.57707e-05 0.000394718)
(0.120273 0.000261817 0.000312502)
(0.115767 -0.000222762 -0.000257182)
(0.115513 0.000631449 -0.00079466)
(0.12018 0.000298719 0.000400596)
(0.120693 -0.000450885 -7.70718e-05)
(0.117362 -0.000747017 0.0001097)
(0.120495 -0.000862267 -0.000296317)
(0.121503 3.18438e-05 -0.000230564)
(0.11372 -0.000141313 -0.000231186)
(0.121513 -0.000930169 -0.000403736)
(0.11173 0.000294314 -0.000156626)
(0.112803 -5.28096e-05 -6.68216e-05)
(0.120959 -0.000428054 -0.000247468)
(0.120235 -0.000527613 -0.000131356)
(0.121328 0.000170486 -0.00066174)
(0.121469 0.000494306 -0.000940168)
(0.12016 -9.44444e-05 -0.000700187)
(0.114862 0.00109491 -0.000556915)
(0.116471 -0.000917611 0.000676794)
(0.117677 -2.11598e-05 -0.000185104)
(0.119604 -0.000891143 9.42199e-05)
(0.12097 0.000879107 0.000694788)
(0.121258 -0.000704405 0.000267645)
(0.118053 0.000163887 -0.000232717)
(0.116093 -0.000916668 0.000476466)
(0.117858 -0.000132842 -5.0476e-05)
(0.120609 -1.07437e-05 -0.000182794)
(0.119893 -3.16178e-05 -0.000939836)
(0.116743 0.000123857 -0.000249447)
(0.118982 -0.000264142 -6.01195e-05)
(0.117642 0.000603147 -0.000538482)
(0.117417 -0.000345377 -0.000319776)
(0.119661 -0.000288192 0.000124613)
(0.116473 -0.000904384 0.000795124)
(0.113879 -0.000156883 2.21311e-05)
(0.11842 0.00068795 -0.000645877)
(0.119867 1.26899e-05 6.0087e-05)
(0.116972 8.61742e-05 -0.000180925)
(0.11965 0.000371347 0.000273766)
(0.120508 -0.000607483 0.000212447)
(0.118628 0.000139538 -0.000321206)
(0.114703 0.000316403 -0.00042334)
(0.117902 0.000377549 -0.000392809)
(0.117081 0.000368022 0.000345247)
(0.112824 0.000259238 -0.000445373)
(0.12016 -0.000856019 0.000214835)
(0.112812 0.000496952 0.000424586)
(0.119395 -9.047e-05 -0.000476645)
(0.121112 -0.000842436 -0.000152286)
(0.113602 -0.000270964 0.000157284)
(0.11846 0.000286253 1.84559e-05)
(0.117346 0.000354694 0.000471547)
(0.113283 -0.000217172 9.80219e-05)
(0.119097 -0.000139846 -0.000122107)
(0.114698 2.12054e-05 -0.000191535)
(0.117725 -7.86126e-05 0.000594096)
(0.120642 0.000487388 0.000112263)
(0.119264 9.73818e-05 0.000188874)
(0.112506 0.000327327 -0.000103841)
(0.119608 0.000210521 1.74048e-05)
(0.114501 0.000148066 -0.000391158)
(0.119572 -0.00012852 -2.67783e-05)
(0.119758 0.000295921 4.97908e-05)
(0.120153 -0.000296665 -0.000464128)
(0.120813 -0.000254193 -0.000449079)
(0.11355 -9.83433e-05 -0.000521464)
(0.119904 -0.000941098 0.00016687)
(0.112908 -6.06731e-06 -0.00050051)
(0.117425 3.22871e-05 -0.000403074)
(0.113636 0.000128461 -0.000281641)
(0.121648 1.017e-05 -0.000382266)
(0.120851 0.000126703 -0.000402679)
(0.121525 -5.36903e-05 3.12214e-05)
(0.121059 -0.000368093 -0.000509115)
(0.118542 -7.16719e-05 -0.000417324)
(0.120132 -8.29556e-05 0.000206819)
(0.117834 0.000229552 -3.69129e-05)
(0.118725 0.000160653 -0.000243186)
(0.118202 0.000125055 -0.000358257)
(0.114442 6.4843e-05 9.46114e-05)
(0.119831 -9.13417e-05 -0.000359465)
(0.118348 -0.0003133 -0.000139115)
(0.118606 -0.000260929 -0.00024567)
(0.120444 8.93648e-05 9.24201e-05)
(0.119983 -1.14861e-05 -0.000513666)
(0.120182 4.99472e-05 0.000157121)
(0.117577 -0.000671118 0.000113566)
(0.11284 -9.36161e-05 0.000668651)
(0.117463 0.000237802 0.000271525)
(0.119755 0.000136006 0.000260649)
(0.119239 -0.000297956 0.000143599)
(0.113574 -0.000536301 -0.000451833)
(0.120938 4.55265e-05 -0.000333938)
(0.120674 -0.000100183 -0.000738083)
(0.116903 0.000202473 -0.000506383)
(0.119817 -0.000352435 -0.000490992)
(0.120199 -0.000195671 -0.00102579)
(0.119577 -0.000265575 -0.000588603)
(0.119946 -0.000316916 -7.11608e-05)
(0.113175 -0.000225435 -0.000118822)
(0.119194 -0.000317223 9.17731e-05)
(0.119847 -0.000414505 0.000266794)
(0.111622 0.000144922 -7.45576e-05)
(0.118717 -0.000678086 3.59644e-05)
(0.119323 -0.000302866 -0.000213035)
(0.11577 0.000150171 0.000180297)
(0.112613 -0.000168637 8.14948e-05)
(0.112608 -0.000204217 0.000631656)
(0.117244 -0.000835989 0.000145976)
(0.112253 0.000344877 -0.00030083)
(0.117831 3.72924e-06 0.00019161)
(0.118691 -0.000149526 2.05262e-05)
(0.116006 0.000545045 0.000318196)
(0.119698 0.000570961 -6.49453e-05)
(0.113603 -0.000132125 0.000182551)
(0.119557 0.000400548 0.000108705)
(0.121646 0.000202395 1.40464e-05)
(0.117896 -0.000173028 9.07103e-05)
(0.119458 -9.59186e-05 0.000521424)
(0.117379 1.49666e-05 9.24424e-06)
(0.120936 0.000746877 -0.000176251)
(0.118943 0.000443431 -3.69025e-05)
(0.118674 -0.000109622 -0.000565525)
(0.121731 1.08238e-05 -0.0004406)
(0.118409 5.57635e-05 -0.000340058)
(0.113496 -1.5406e-05 0.000194972)
(0.118051 -5.16977e-06 -0.000186854)
(0.121379 0.000250858 -0.000942721)
(0.12066 0.000280341 -0.000572995)
(0.119871 -8.98595e-05 0.000546965)
(0.120771 0.000149141 -3.86578e-05)
(0.118199 -0.00063676 0.000446769)
(0.119858 -0.000235466 0.000147555)
(0.119098 0.000123041 0.000298415)
(0.120252 0.000157609 -0.000252475)
(0.120566 -0.000533686 -0.000312297)
(0.112464 -0.000425457 -0.000236311)
(0.117536 -0.000372534 0.000190666)
(0.111356 -0.000221327 0.000153653)
(0.117246 0.000385886 0.000648291)
(0.116931 -4.2259e-05 -0.000574946)
(0.11342 -0.000427653 0.000614609)
(0.112524 -0.000423603 -0.000424652)
(0.11807 0.000329235 -0.000244783)
(0.119202 -0.000354433 -0.000106188)
(0.120521 4.57723e-05 -0.000574902)
(0.113673 -7.25159e-05 0.000460232)
(0.119401 -0.00021514 0.000125014)
(0.117565 -9.09047e-05 0.000161837)
(0.118127 -0.000149105 -0.000497116)
(0.119104 5.6609e-05 -0.0005331)
(0.113664 0.000850438 0.00208668)
(0.118133 -1.6912e-05 -0.000536474)
(0.113225 0.000111097 0.00035033)
(0.116762 -0.000331451 -0.000337315)
(0.12006 -0.00019086 1.47022e-05)
(0.121874 0.0012055 0.000414606)
(0.120512 0.000192935 -0.000892193)
(0.118636 0.000619334 -0.000605962)
(0.112232 0.000196299 0.000950287)
(0.119516 -0.000240477 7.96978e-05)
(0.119157 -5.19316e-06 -0.000370376)
(0.120268 -0.000224859 -0.000373156)
(0.112624 6.35562e-05 1.10935e-05)
(0.114814 -0.000139002 0.000344486)
(0.117252 0.000396499 0.000460825)
(0.114598 0.000399125 -0.000267377)
(0.112099 -0.000470718 -9.9359e-05)
(0.11994 -1.79929e-05 -0.000357548)
(0.114278 -5.61658e-05 -1.60236e-05)
(0.116684 0.00078162 0.00021553)
(0.113481 -0.000496839 -0.000839249)
(0.119654 0.000263533 4.53886e-05)
(0.114069 6.02411e-05 -0.00024139)
(0.121009 -0.000100106 0.000486396)
(0.12 0.000175871 -0.00036612)
(0.121182 -0.000115767 0.000499502)
(0.121276 -0.000101083 -0.000350721)
(0.11398 -2.1378e-05 0.000176957)
(0.120492 0.000154693 0.000230062)
(0.12136 -0.000120838 -0.000171492)
(0.118612 -0.000369899 0.000267871)
(0.119674 0.000502688 -0.000168399)
(0.119121 -0.000420525 -0.000248211)
(0.120918 0.000372452 -6.67447e-05)
(0.12021 0.000101168 0.000556567)
(0.1161 7.78852e-05 -0.000409555)
(0.121968 -0.000110019 -0.000109474)
(0.121471 -0.000227794 1.68403e-05)
(0.118572 -0.000162912 -4.00364e-05)
(0.117286 -0.000332408 -0.000764712)
(0.120784 -0.000407036 -0.000231206)
(0.118746 0.000227821 -5.06623e-05)
(0.111909 0.000603145 -0.000273613)
(0.111948 0.000392621 -6.75799e-05)
(0.118079 2.54523e-05 0.000162057)
(0.120372 5.51556e-05 0.000115362)
(0.121462 -0.000172561 -0.000215147)
(0.116285 -0.000259697 -8.0332e-05)
(0.120435 0.00039735 0.000240357)
(0.119456 -0.000130556 0.000342721)
(0.121037 0.00102523 0.000863015)
(0.118393 -3.44098e-05 -4.02414e-05)
(0.117785 0.000460839 -0.000337964)
(0.118843 -0.0015788 0.000849819)
(0.113256 -4.20378e-05 -0.000189678)
(0.117587 9.49341e-05 9.71574e-05)
(0.118881 1.7211e-05 -0.000160131)
(0.120843 4.11001e-05 -6.71802e-05)
(0.114576 -0.000290823 5.54356e-05)
(0.115035 0.000492275 -0.000520936)
(0.115983 -7.88347e-05 -0.000348506)
(0.115913 -0.000404509 -9.90582e-05)
(0.118161 -0.000119224 -0.000518781)
(0.112898 -8.1296e-05 -0.000445239)
(0.120228 0.000323679 -0.000762441)
(0.116914 0.000121234 -0.000228643)
(0.119415 6.06625e-05 0.000883292)
(0.1174 -0.000219904 -0.00010077)
(0.121488 -0.000239761 -0.000284181)
(0.118348 -0.000105602 -0.000755073)
(0.112921 0.000164925 0.000541305)
(0.118869 0.000823664 0.000136235)
(0.121549 -0.0001471 -0.000878914)
(0.11375 0.000313017 0.00101188)
(0.120347 -4.83926e-05 -0.000699948)
(0.121895 -0.00105007 -0.000450376)
(0.118608 -0.000322878 5.38848e-05)
(0.11741 0.000254067 0.000104022)
(0.121794 -0.000220496 -0.000675108)
(0.116017 -1.00375e-07 -9.04401e-05)
(0.118342 -0.000382645 -2.79062e-05)
(0.118088 0.000185167 0.000181327)
(0.11399 -2.87211e-05 3.99498e-05)
(0.114314 -9.62337e-05 -0.00114361)
(0.117379 0.00022194 0.000326829)
(0.116155 0.000547755 0.000149432)
(0.119994 -7.74589e-05 -0.000292163)
(0.115767 -0.00035789 0.000305504)
(0.117208 0.000371452 0.000450882)
(0.121209 0.000127927 0.00029464)
(0.117513 0.000188273 -2.71329e-05)
(0.112472 0.000220096 0.000237486)
(0.116012 0.000222398 3.99365e-05)
(0.118514 0.000372698 -0.00019996)
(0.12142 -0.000175533 0.000179451)
(0.112819 0.000666787 0.00044584)
(0.112765 -6.8927e-05 0.000241491)
(0.1214 0.000222521 0.000821709)
(0.112991 0.000214499 7.14198e-05)
(0.119218 -8.90178e-05 -0.00010025)
(0.120089 0.000199114 -0.000233588)
(0.114312 -0.000152182 -0.000772118)
(0.118559 0.00026028 -0.00016463)
(0.120896 0.000352684 -0.000406566)
(0.118033 4.82007e-05 0.000644071)
(0.111508 1.87496e-05 0.000163148)
(0.120887 0.000116938 -5.70789e-05)
(0.118039 -5.78602e-05 -0.000355226)
(0.112249 0.000489994 -2.27304e-05)
(0.121048 0.000183788 -0.000137989)
(0.117136 -0.000133344 -0.00015356)
(0.117142 0.000430638 -0.000365068)
(0.119691 -0.000247752 2.08556e-05)
(0.112475 0.000788456 -0.000421162)
(0.116879 -1.47676e-05 -0.000935634)
(0.116684 -0.000497453 3.72704e-05)
(0.117939 0.000101613 -0.000441074)
(0.114177 -9.0569e-05 0.000412303)
(0.115848 -3.8858e-05 -4.34832e-05)
(0.119926 0.000512226 0.000293345)
(0.121971 -0.000679798 -0.000672622)
(0.122348 -0.000351723 0.000225287)
(0.121196 0.000257981 -0.00017704)
(0.120993 -0.000537345 -0.000188064)
(0.119688 0.000132853 -0.00119615)
(0.115471 -0.000214099 0.00032701)
(0.121968 0.000176582 -0.000889457)
(0.119913 -0.00010238 -0.000102849)
(0.119651 0.000652736 0.000251954)
(0.114465 0.000831958 -0.000260966)
(0.118769 -0.00016917 -0.000227219)
(0.119088 0.000288404 0.000521544)
(0.122243 0.000862298 6.0712e-05)
(0.11301 -4.14159e-05 0.000254943)
(0.112005 -0.000566609 0.000326204)
(0.120872 8.57269e-05 -0.000548541)
(0.116117 -0.000128516 -0.00032513)
(0.120725 8.93857e-05 -2.66417e-05)
(0.116869 1.12747e-05 -0.000358288)
(0.114273 -0.000160359 -0.000742683)
(0.118924 4.63031e-05 -0.000805334)
(0.120887 0.000362174 -0.000158699)
(0.118222 0.000233576 6.44923e-05)
(0.120103 0.000845333 -0.000260137)
(0.113596 9.46234e-05 -0.00154162)
(0.120282 0.00108561 0.000458525)
(0.119802 -0.000129362 -0.000455405)
(0.112227 0.000313284 -3.00822e-05)
(0.12 -0.000149423 -0.000460795)
(0.119951 -0.0002624 7.47493e-05)
(0.119979 0.000479894 0.00141418)
(0.113839 -0.00061271 -0.000837029)
(0.11297 0.000255617 -0.000705537)
(0.117349 0.000320493 -0.00032309)
(0.117934 2.03114e-05 0.000871166)
(0.11839 -0.000189348 0.000155549)
(0.117815 0.000439993 0.000165018)
(0.117381 0.000415496 0.000597556)
(0.120629 0.000130962 -1.86162e-05)
(0.118638 -0.000198555 0.000148802)
(0.118941 0.000220963 0.000171258)
(0.114436 -0.000268311 0.000608207)
(0.12135 -0.000115653 -0.000937258)
(0.113351 -0.000193773 -4.38101e-05)
(0.118419 0.000743932 4.95335e-06)
(0.117618 0.000372618 -6.76373e-05)
(0.117437 -0.000825503 -0.000535676)
(0.119302 0.000413848 4.43294e-05)
(0.116422 -0.000364598 -0.000404817)
(0.114003 -0.000709172 -0.000442051)
(0.112534 -0.000130483 -0.000467494)
(0.113801 -0.000284224 -0.000213795)
(0.117383 -0.000483836 -0.000363878)
(0.119935 0.000647185 0.00028923)
(0.113178 0.000429481 0.00154252)
(0.12018 -0.000198691 -9.39985e-05)
(0.117617 5.67272e-05 -0.00066039)
(0.121145 -0.000317003 -0.000411179)
(0.113085 -5.00002e-05 -0.000719782)
(0.116494 0.000409676 0.000564627)
(0.120203 9.26083e-05 -0.000597068)
(0.12106 -0.000724578 -3.89679e-05)
(0.12007 0.000302032 -0.000366967)
(0.120969 -0.00023518 -0.000193874)
(0.118811 6.46029e-05 0.000186888)
(0.117746 0.000558414 0.000137765)
(0.12122 -3.97033e-05 0.00036539)
(0.120947 0.000333463 -1.83535e-05)
(0.121302 0.000239503 6.88426e-05)
(0.114733 0.000897728 -0.000359926)
(0.121093 -0.000597967 -0.000699073)
(0.112619 -0.000300875 0.000379256)
(0.121314 0.000679283 -2.42879e-05)
(0.11874 0.000227591 -0.000220025)
(0.1176 2.69096e-05 -0.000441477)
(0.113695 0.00074009 2.92364e-05)
(0.117946 0.00111138 -0.000669668)
(0.11134 -0.000927147 -0.000437646)
(0.120109 6.1739e-05 -0.000418966)
(0.117943 0.00010172 -0.000244568)
(0.120576 -0.000135104 -0.000234502)
(0.117124 0.000373099 -0.000291767)
(0.117374 0.00106902 -0.000267949)
(0.113169 -0.00028601 0.000608271)
(0.121536 0.00018078 -1.55091e-05)
(0.114287 -0.000530964 0.000176544)
(0.111798 -0.00025878 -0.000329212)
(0.114087 -0.000220944 8.89955e-05)
(0.114511 0.000207857 0.000105967)
(0.114042 0.000705928 -7.80028e-05)
(0.11811 -0.000297394 0.000101195)
(0.113098 0.000127741 -7.4161e-05)
(0.119495 -0.00104045 0.00030861)
(0.119838 7.4168e-06 -0.000489294)
(0.111703 -6.66863e-05 -1.41943e-05)
(0.119634 0.000388738 -1.68487e-05)
(0.113721 0.00034996 -0.00069505)
(0.117156 0.000768601 -5.40811e-05)
(0.118402 0.000329141 -2.56696e-05)
(0.11764 -0.000170611 -0.000929949)
(0.119902 8.90888e-05 -0.000103598)
(0.121825 0.000196722 -0.000787597)
(0.120036 3.01283e-05 0.000419567)
(0.119261 3.28363e-05 -0.000222143)
(0.11883 -0.000164599 -0.00100733)
(0.119876 0.000413239 0.000240099)
(0.116943 0.000215979 6.19159e-05)
(0.117408 0.000307828 0.000131816)
(0.112294 0.000649556 -0.000756106)
(0.110782 0.00177272 0.00345396)
(0.120763 7.64863e-06 0.000122409)
(0.118248 3.75884e-05 -0.000191167)
(0.119788 -0.00027287 -0.00014186)
(0.12004 -3.61881e-05 0.000118236)
(0.112554 -0.000510619 -6.88581e-05)
(0.120629 -0.000116179 -0.000359705)
(0.120997 0.000513812 1.5176e-05)
(0.120791 5.26385e-05 0.000144496)
(0.120763 0.000155116 0.000360972)
(0.11941 0.000348908 0.000411547)
(0.118972 -0.000507955 -0.000260939)
(0.120836 -5.39517e-05 2.37136e-05)
(0.121369 -0.000142874 0.000418666)
(0.119196 0.000353693 0.000352615)
(0.120944 0.000169511 -0.000197606)
(0.120218 -0.000358073 -0.000458082)
(0.114934 -0.000315037 -0.000447211)
(0.120647 -0.000132085 0.000237703)
(0.115375 -1.9143e-05 0.000521906)
(0.118268 4.36953e-05 -4.47693e-05)
(0.118544 -0.000740027 -5.42553e-05)
(0.117956 -0.000514458 0.000131111)
(0.117055 0.000620974 1.853e-05)
(0.119849 0.000307099 -0.000154763)
(0.117344 0.000422029 0.000309344)
(0.118968 0.000379179 -0.000416142)
(0.117168 0.00108589 -0.000531733)
(0.112649 0.00107781 -0.000711955)
(0.121782 0.000398864 -0.000306031)
(0.119627 0.000560937 -0.00017639)
(0.116749 -1.05255e-05 0.000631327)
(0.113071 -0.000522152 -2.98675e-05)
(0.120287 -0.000381362 -8.76478e-05)
(0.112629 -0.000606497 -0.00057363)
(0.120982 -0.000315011 3.78323e-05)
(0.119911 -5.63674e-05 0.000384254)
(0.117172 0.00106648 -0.000430251)
(0.119916 -0.000379416 0.000248334)
(0.121297 9.13283e-05 -0.000474275)
(0.118924 -0.000426542 -0.000103939)
(0.112561 -0.000143206 0.000194105)
(0.117362 -0.000120549 -8.91905e-05)
(0.115252 0.000507137 -0.000513427)
(0.118064 0.000105886 -0.00012529)
(0.11271 -0.000495467 -0.000887098)
(0.119446 -0.000127143 -0.00030265)
(0.119976 -0.000485707 0.000525722)
(0.115906 0.000539146 -0.000653861)
(0.118004 7.00661e-05 4.07607e-05)
(0.115478 1.16939e-06 -0.000221921)
(0.120159 -2.16513e-06 -0.000390703)
(0.116867 -0.000648846 0.000163922)
(0.117988 0.00036678 0.000402474)
(0.113223 -0.000198332 3.30378e-05)
(0.120734 -3.09462e-05 -3.62369e-06)
(0.118788 -0.000432625 -0.000214175)
(0.120781 0.000128182 -1.56909e-05)
(0.115551 0.000525552 -0.000352165)
(0.118246 -7.77349e-05 -0.000314256)
(0.119034 0.000102131 -0.00031325)
(0.117072 -4.53987e-05 0.000294636)
(0.118446 -7.80743e-05 0.000178808)
(0.118111 -0.000146413 0.000508285)
(0.120506 -0.000395225 9.14841e-05)
(0.118088 -0.00021946 -0.00010358)
(0.11367 7.65341e-06 -0.000196467)
(0.111976 -0.000188775 -0.000600575)
(0.119613 -0.000580323 3.98887e-05)
(0.112705 0.000509397 -0.000912197)
(0.115953 -0.000660343 -0.00118293)
(0.118149 0.000277363 -0.000208322)
(0.118303 0.000265486 3.24904e-05)
(0.121284 0.000548813 -0.000247186)
(0.112585 -6.83405e-05 -7.59406e-05)
(0.118044 -0.000116134 -0.000677923)
(0.121612 6.06102e-05 -0.000369767)
(0.11368 0.000822531 -0.00253285)
(0.113958 0.00138952 0.000103836)
(0.117364 -2.04716e-05 -0.000696695)
(0.114038 -8.65266e-05 -2.38133e-05)
(0.119308 0.000460087 -0.000605683)
(0.114086 -0.000305829 8.31409e-05)
(0.120953 -0.0007632 -0.000312537)
(0.115549 0.000168724 0.0004795)
(0.116567 0.000363995 0.000477314)
(0.121887 0.000335441 0.000768135)
(0.111907 -0.00019222 0.000435616)
(0.116503 0.000126112 0.000396659)
(0.116433 9.41152e-06 0.000558193)
(0.120791 -8.24935e-05 -0.000690394)
(0.120969 5.27471e-05 0.000223412)
(0.12057 2.86823e-05 -0.000194454)
(0.11345 0.000682633 0.000334905)
(0.119639 4.30815e-05 -0.000413716)
(0.120355 0.000173562 0.00081744)
(0.115807 -0.000242766 -0.000130363)
(0.120683 0.000340543 -0.000116447)
(0.120072 0.000297342 0.000203119)
(0.119772 0.000363835 -3.64091e-06)
(0.120821 -0.000107712 -0.00055954)
(0.118384 6.14604e-05 -0.000194072)
(0.121906 2.27168e-05 0.000296596)
(0.121211 0.000690314 0.000786188)
(0.120936 -1.52305e-05 -0.000298729)
(0.118942 0.000501245 0.000338097)
(0.117238 -0.000248397 -0.00042132)
(0.118565 0.000350801 5.87067e-05)
(0.118219 0.000152855 -0.000363666)
(0.11248 -0.000824846 -0.000228604)
(0.117312 -0.000534603 6.71446e-05)
(0.119033 -0.00013877 0.000465882)
(0.120768 -0.000253353 -0.000272066)
(0.120973 -0.000330172 -0.00060983)
(0.117652 -0.000436344 7.99373e-05)
(0.122012 0.00103668 -0.00010726)
(0.120074 -5.34923e-05 -2.13541e-05)
(0.116452 -0.000677747 0.000607596)
(0.119742 -5.15423e-05 -0.000396034)
(0.1207 5.64563e-05 -0.000253842)