/*--------------------------------*- C++ -*----------------------------------*\
| =========                 |                                                 |
| \\      /  F ield         | OpenFOAM: The Open Source CFD Toolbox           |
|  \\    /   O peration     | Version:  2212                                  |
|   \\  /    A nd           | Website:  www.openfoam.com                      |
|    \\/     M anipulation  |                                                 |
\*---------------------------------------------------------------------------*/
FoamFile
{
    version     2.0;
    format      ascii;
    arch        "LSB;label=32;scalar=64";
    class       surfaceVectorField;
    location    "0.032";
    object      Uf;
}
// * * * * * * * * * * * * * * * * * * * * * * * * * * * * * * * * * * * * * //

dimensions      [0 1 -1 0 0 0 0];

internalField   nonuniform List<vector> 
68568
(
(0.119332 0.000302611 -0.000127771)
(0.118659 0.000603918 -0.000162437)
(0.11837 0.000418391 -2.40742e-05)
(0.120719 0.000822493 -0.000317775)
(0.118887 -0.000358982 -0.000239124)
(0.118821 -0.000438191 -0.000438309)
(0.117813 -0.000363221 9.19934e-08)
(0.112712 -0.000170439 -0.000199435)
(0.119959 0.000230052 0.000248482)
(0.119675 -0.000442625 0.000710505)
(0.11858 -0.0002862 0.000185889)
(0.115498 -0.000568059 0.000731793)
(0.121741 -0.000186726 -0.000229104)
(0.120623 -2.94016e-05 -0.000372167)
(0.121698 -0.000112131 -0.000258298)
(0.121941 -0.000157617 -0.00027685)
(0.116841 -0.000226863 -0.000236771)
(0.119467 -0.000472695 -0.000278537)
(0.116277 -0.000212253 -0.000302229)
(0.119102 -0.000481898 -0.000333149)
(0.119356 -5.75175e-05 -4.36831e-05)
(0.118153 -1.51743e-05 0.000120362)
(0.119491 -2.10448e-05 0.000133615)
(0.113941 -1.88683e-05 -0.000268032)
(0.118059 -1.33883e-05 -0.000233351)
(0.113897 -0.00012717 6.50813e-05)
(0.115531 0.000142467 -0.000479538)
(0.118105 -2.06678e-06 -0.000291556)
(0.11809 0.000248218 0.000397544)
(0.120182 0.000152054 -3.71186e-05)
(0.118937 -4.22434e-05 -6.24318e-05)
(0.119366 -0.00017246 -0.000347843)
(0.118277 6.52672e-05 -0.000260691)
(0.118296 0.000221884 -0.000578603)
(0.120192 -0.000274081 -9.46705e-05)
(0.119361 -0.000451289 -0.000357696)
(0.12077 -9.49558e-05 -0.000587224)
(0.120979 -0.000436202 -0.00041262)
(0.120952 0.000484554 -3.94563e-05)
(0.119926 0.000344202 -0.000116402)
(0.120755 0.000312447 -0.000123737)
(0.11774 -0.000117257 -0.000486083)
(0.121232 -0.000440084 -0.000703586)
(0.120842 -0.00050909 -0.000629279)
(0.118925 -0.000172921 1.91313e-05)
(0.118014 -0.000363364 -3.65541e-05)
(0.113165 3.61407e-05 -0.000320514)
(0.120751 -0.000131497 -0.000175131)
(0.120677 -0.000124886 0.000221452)
(0.119941 -0.000106813 0.000120025)
(0.118044 -7.31738e-05 0.000138678)
(0.116839 -0.000308848 -5.88392e-05)
(0.1183 -0.00030068 -0.000170794)
(0.117711 -0.000262009 -6.33185e-05)
(0.112628 -0.000320308 -0.000104063)
(0.118181 -0.000388376 0.000736196)
(0.114016 -0.000307466 0.000433209)
(0.115633 -0.000357055 0.00066946)
(0.118398 -0.000282566 0.000276591)
(0.117727 0.000150071 0.000235445)
(0.11855 0.000269605 0.000250218)
(0.118171 0.000197135 0.00014889)
(0.119551 3.7179e-05 0.000133851)
(0.114397 0.000393178 0.000415934)
(0.114499 -0.000318447 0.00067193)
(0.117899 -6.42856e-05 0.000267892)
(0.118008 9.34605e-05 -0.000590879)
(0.115796 -0.000289713 -6.26493e-05)
(0.114579 0.000138946 -0.000673776)
(0.118435 -0.000128724 -0.000354082)
(0.118647 9.78131e-06 -8.89188e-05)
(0.119838 -0.000296023 -4.23261e-05)
(0.119481 -0.000446629 7.21988e-05)
(0.114851 -0.000147284 1.38879e-05)
(0.113895 -0.000189317 -0.000376161)
(0.115458 2.83941e-05 -0.000297263)
(0.114178 0.000255024 -0.000311545)
(0.105189 -0.0001466 -0.000457281)
(0.119706 -0.000402029 -0.000523948)
(0.121122 -0.000149573 -0.000593071)
(0.120154 -0.000244533 -0.000584716)
(0.120573 -0.000285534 -0.00069815)
(0.120357 0.000398885 -0.000233638)
(0.120328 0.000417581 -9.10774e-05)
(0.118168 0.000486049 -4.41326e-06)
(0.121029 0.000566654 -0.000237169)
(0.115515 0.000238626 -0.000222911)
(0.115852 -0.000132334 -0.000192676)
(0.118241 0.000184772 -0.000330317)
(0.11866 3.5255e-05 -1.29779e-05)
(0.113531 -2.00624e-05 8.75621e-05)
(0.117317 -0.000100328 -6.1195e-05)
(0.115226 0.000255601 -0.000410179)
(0.117413 -6.87281e-05 0.00022826)
(0.118055 4.7155e-05 -6.00445e-05)
(0.118078 -0.000310437 0.000162329)
(0.120042 -0.000184606 0.000701747)
(0.118442 -4.43836e-05 -0.000198726)
(0.119617 -0.00013715 -9.49204e-05)
(0.114591 -8.53996e-05 0.000305568)
(0.121467 0.00045254 0.000260443)
(0.119353 0.000535084 -0.000179109)
(0.121453 0.000485494 3.35668e-05)
(0.119982 0.000224797 -0.000582871)
(0.118972 0.000222608 0.000393077)
(0.113514 0.000447074 -0.00020781)
(0.115175 0.000411077 0.000131085)
(0.120574 0.000135567 0.000252784)
(0.119724 -4.50172e-05 0.000287561)
(0.120597 9.26933e-05 0.000266254)
(0.121242 -0.000264731 -0.000213971)
(0.119803 -5.53451e-05 -1.81946e-05)
(0.121358 -0.000218011 -0.000139312)
(0.119314 -0.000121362 -0.000189652)
(0.117663 -0.000250488 -0.000126004)
(0.117678 -0.000104516 -0.000223393)
(0.114498 0.000274182 4.48538e-05)
(0.11407 -0.00030339 0.00033419)
(0.120414 0.000205016 -0.000452544)
(0.119807 2.35751e-05 -0.00030051)
(0.120444 -4.63785e-06 -0.000420125)
(0.120855 -1.51611e-05 -0.00032892)
(0.115628 -0.000107499 -0.000223779)
(0.114598 -0.000255359 8.85405e-05)
(0.118625 -0.000185094 3.9232e-05)
(0.11876 -2.78204e-05 0.000106993)
(0.115679 0.000264047 0.000150662)
(0.113593 0.000137428 0.00013449)
(0.113553 2.1212e-05 -0.000154293)
(0.105929 1.6202e-05 0.000131558)
(0.120728 0.000451848 -0.000189765)
(0.113424 2.78362e-05 -4.70339e-05)
(0.113578 -0.000427901 -0.000189801)
(0.111481 -0.000236049 4.65143e-05)
(0.105317 -0.000271206 -4.30864e-05)
(0.121239 -0.00039089 0.000308801)
(0.121161 -0.00056419 0.000179668)
(0.121336 -0.000174809 0.000442194)
(0.120622 -0.000468663 0.000308468)
(0.11947 -0.000295018 0.000329365)
(0.119491 -0.000270452 0.000521084)
(0.120849 -0.000303088 0.000578018)
(0.112321 0.000491787 -0.000393315)
(0.11351 -0.000276781 -7.82161e-06)
(0.106115 6.92495e-05 -0.000106891)
(0.116709 -6.88335e-05 -0.000135236)
(0.114429 -0.000108701 -0.000392599)
(0.106389 0.000106561 -0.000465311)
(0.115056 -0.000171584 0.00014734)
(0.115075 -0.000438606 -7.16857e-05)
(0.116004 -0.000364365 -6.21459e-05)
(0.105549 -0.000284338 0.000138972)
(0.120594 -0.000138557 0.000114134)
(0.118851 -0.00012334 3.75482e-06)
(0.119781 -0.00029749 -0.000456082)
(0.120795 -0.000798135 -0.000447677)
(0.11956 -0.000784033 -0.000741791)
(0.120932 -0.000565216 -0.000855347)
(0.120212 -0.000508095 0.000605481)
(0.120524 -0.00066846 0.000219046)
(0.119898 -0.000217956 0.000274883)
(0.121398 -0.000582484 -0.000241856)
(0.120261 -0.00064188 -2.55514e-05)
(0.119714 -0.000382762 -0.000364829)
(0.121322 -0.000242482 -0.000457701)
(0.117832 -1.2455e-05 -0.000326645)
(0.116347 0.000434581 -0.000485125)
(0.11173 -3.64218e-05 -0.000309412)
(0.118756 0.000328313 -0.000479735)
(0.119061 2.87239e-05 -0.000346354)
(0.116719 0.000193696 -0.000734877)
(0.115466 0.000106723 -0.000279308)
(0.117618 -0.000192094 0.000202559)
(0.117347 -2.52612e-05 5.29385e-05)
(0.119411 -1.01964e-05 -0.00024601)
(0.118363 -0.000205821 0.000128729)
(0.120468 -0.000122241 -0.000373339)
(0.11974 -0.000239406 -0.000460689)
(0.119932 9.14636e-05 -0.000381961)
(0.121333 0.000198485 -0.000741106)
(0.12171 -7.26373e-05 -0.000347129)
(0.115657 -0.000138288 -0.00051257)
(0.113559 8.3026e-05 -0.000229765)
(0.114205 5.20806e-05 -0.00013306)
(0.104808 7.80271e-05 -0.000281894)
(0.119971 0.000623708 0.000147286)
(0.119168 0.000491473 0.000166519)
(0.120765 0.000551138 0.000154189)
(0.120325 0.000351971 0.000154178)
(0.112718 -0.000327287 5.55546e-05)
(0.105666 -0.000115408 0.000289868)
(0.116514 -0.000141612 -0.000251388)
(0.116338 -0.000365682 -2.24588e-05)
(0.119275 -0.000184117 -0.000273226)
(0.119314 -0.000293805 -7.47652e-05)
(0.116869 0.000172824 0.000234549)
(0.117382 9.27221e-05 0.000195313)
(0.11925 -0.000173287 4.95104e-05)
(0.115278 -2.29495e-05 -0.00068408)
(0.114065 -4.90234e-05 -0.000336914)
(0.115484 9.27402e-05 -0.000178138)
(0.105699 0.00035499 -0.000300605)
(0.119862 0.000136454 0.000462315)
(0.119494 -0.00016496 0.000142981)
(0.118519 3.59358e-05 0.000412161)
(0.114781 4.86966e-05 0.00036619)
(0.119677 -0.000301305 0.00014531)
(0.118503 3.82553e-05 0.000418805)
(0.119638 -9.4312e-05 -4.36473e-06)
(0.113985 3.76111e-05 0.000227987)
(0.113484 -8.83771e-06 -0.00012827)
(0.113619 0.000430343 -0.000128986)
(0.106598 0.000118051 -0.000115816)
(0.118281 -0.000417113 -0.000504766)
(0.117974 -2.69399e-05 -0.000337088)
(0.118226 -0.000114464 -0.00018086)
(0.119929 0.000366668 9.40908e-05)
(0.118687 0.000408059 0.000184666)
(0.120713 0.00013208 -0.000124055)
(0.119307 0.000261349 -0.000183058)
(0.118008 -0.000133301 -0.000405678)
(0.115518 -0.000211591 -0.00052559)
(0.115601 -0.000196206 -0.000292809)
(0.106498 -0.00029814 -0.000231841)
(0.119544 -8.30317e-05 -8.37898e-05)
(0.119626 7.82057e-05 7.33806e-05)
(0.113439 6.03933e-05 -0.000179855)
(0.117815 7.22146e-05 -9.12308e-05)
(0.118107 0.000349656 1.98957e-05)
(0.119669 0.000395764 7.31078e-05)
(0.118265 0.000360691 0.000203506)
(0.121258 -7.60619e-05 -0.000591921)
(0.121486 -0.000168407 -0.000484779)
(0.121384 -0.000284672 -0.000415862)
(0.120769 -0.000182651 -0.000374607)
(0.117382 0.00031428 -0.000991313)
(0.119471 0.000206318 -0.000855184)
(0.120118 -0.000199099 -0.000703576)
(0.118226 -0.00039647 5.73121e-05)
(0.119415 -0.000294635 2.45937e-05)
(0.118209 -0.000131538 0.000167338)
(0.114176 -6.58573e-05 -0.000214213)
(0.115609 -0.000894613 -0.000434939)
(0.116091 0.000216448 -0.000337018)
(0.10575 -6.69767e-05 -0.00043934)
(0.121143 0.00029479 5.35696e-05)
(0.121451 0.000219418 -0.000284118)
(0.120993 4.42338e-05 -9.42719e-05)
(0.121561 8.38656e-05 -0.00040037)
(0.120339 0.000311705 -8.67303e-05)
(0.118596 0.000266568 -1.73856e-05)
(0.119685 4.94421e-05 -0.000137581)
(0.119477 0.000173414 -0.00029949)
(0.115887 -0.000102368 -0.000979901)
(0.115464 0.000155992 -0.000406624)
(0.116894 -3.80458e-05 -0.000748499)
(0.108963 -0.000646198 -0.000730895)
(0.118899 -0.000257116 -0.000596873)
(0.118958 -0.000318935 -0.000814542)
(0.120645 -0.000276873 -0.000464301)
(0.120396 -0.000245307 -0.000565518)
(0.119958 -0.000183396 -0.000213422)
(0.11857 -0.000253766 -0.000338123)
(0.118521 6.27394e-05 -0.000119255)
(0.114461 0.000103982 -0.000532865)
(0.120121 0.000503723 0.000269755)
(0.119603 0.000525824 -1.29285e-05)
(0.118297 0.000284566 -0.000154071)
(0.113647 -2.21693e-05 -0.000667611)
(0.11324 6.99483e-05 -0.000479583)
(0.114811 0.000276685 -0.000701905)
(0.105103 0.000348462 -0.000281591)
(0.120465 -0.000532976 -0.000113726)
(0.120238 -0.000575937 0.000118518)
(0.121435 -0.000509027 5.0771e-05)
(0.116057 0.00100312 -0.000600325)
(0.119109 6.44525e-05 -0.000414364)
(0.118665 0.000192159 -0.000432431)
(0.118244 -0.00023833 0.000447439)
(0.118663 8.19368e-06 0.000206038)
(0.119112 7.43785e-05 0.000306948)
(0.113435 -9.80383e-05 0.00032092)
(0.115632 -0.000201355 -0.000131875)
(0.120304 1.87717e-05 2.66288e-05)
(0.118296 0.00026783 1.05677e-05)
(0.120317 0.000421083 -9.82003e-05)
(0.113869 0.000338832 -0.000275872)
(0.117384 -0.000139216 -5.84387e-05)
(0.117631 -2.4785e-05 5.51417e-05)
(0.111203 -3.44066e-05 -0.000263607)
(0.112236 6.43584e-05 0.000270367)
(0.111849 -0.000226504 0.000102505)
(0.105632 -9.8565e-05 0.000117752)
(0.121251 6.69772e-06 0.000208803)
(0.119627 -3.9167e-05 -9.239e-05)
(0.121211 -0.000199572 0.000163461)
(0.120511 -0.000447928 0.000212004)
(0.120545 -0.000440278 -0.000261769)
(0.120172 -2.97031e-05 -0.000120821)
(0.120042 -0.000123452 -0.000268381)
(0.113953 -0.000168966 3.71386e-05)
(0.117848 -0.000240938 -0.000126271)
(0.119611 -0.000259602 -0.000131525)
(0.119945 -0.000100441 -0.000186669)
(0.117851 3.34274e-05 0.000101421)
(0.121156 -9.84612e-05 -0.000122781)
(0.119463 -5.24598e-05 -0.000262955)
(0.119688 0.000100139 5.73492e-05)
(0.121149 -0.000160002 -3.65563e-05)
(0.121227 3.37186e-05 0.000183787)
(0.120677 -0.000114258 2.36387e-05)
(0.121432 -9.46483e-05 -0.000176897)
(0.119913 -0.000162898 -0.000245037)
(0.119702 -0.000264274 -0.000398154)
(0.121157 -9.6429e-05 -0.000587608)
(0.113597 0.00128631 -0.000890493)
(0.116385 0.000239313 -0.00125988)
(0.115432 0.000587083 -0.000858861)
(0.10372 0.000158363 -0.000425635)
(0.120063 -0.000178719 -0.000233237)
(0.120166 -0.000276915 -0.000272168)
(0.121251 -0.000215847 -0.000502603)
(0.118932 -0.000221048 0.000219499)
(0.120349 -0.000165665 0.000102809)
(0.113827 -6.52466e-05 -4.75795e-05)
(0.115828 -0.000211395 2.01467e-05)
(0.115462 -1.84375e-05 3.88252e-05)
(0.118487 -0.000266076 0.000229091)
(0.118276 -0.000325389 -4.38229e-05)
(0.114896 -0.000371481 -0.000888242)
(0.115439 -0.000510915 -9.65095e-05)
(0.105076 -0.000382993 -0.000125475)
(0.11672 0.00043568 -0.000757493)
(0.118303 0.000197143 -0.000887342)
(0.112703 -0.000273396 -0.000469387)
(0.114773 -0.000507896 -7.54932e-05)
(0.117706 -0.000590471 -0.000150295)
(0.114349 -0.00038713 -0.000368661)
(0.117517 -0.000418396 -0.000192595)
(0.11889 0.000546754 8.31407e-05)
(0.118706 0.000782067 -4.60372e-05)
(0.117275 0.000991341 0.00038885)
(0.114133 0.000616417 0.00030778)
(0.117203 0.000297056 -0.000204716)
(0.117971 -5.36434e-05 -0.000285275)
(0.119956 0.000247942 -7.47375e-05)
(0.120434 -0.00019446 -4.03057e-05)
(0.120095 -0.000147269 3.0876e-05)
(0.113646 -0.000136202 4.67428e-05)
(0.11802 7.67008e-05 0.000237928)
(0.117636 0.000338335 0.000164288)
(0.118957 7.29942e-05 0.000165535)
(0.113254 4.70844e-05 -0.000195339)
(0.114682 -0.000735227 0.00015803)
(0.115187 -0.000283608 6.956e-06)
(0.114132 -0.000910404 -0.000274848)
(0.105446 -0.000614853 0.000185395)
(0.119549 0.000272355 0.000144431)
(0.119648 -4.9458e-05 0.000128601)
(0.117629 0.000143242 -0.000295766)
(0.119794 -0.000176341 -0.000176443)
(0.119522 0.000144124 0.000219382)
(0.118112 -0.000115098 0.000332632)
(0.117981 0.000511375 0.000147088)
(0.116702 -0.000322279 -0.000404825)
(0.112803 1.16551e-06 -0.000187927)
(0.11348 -3.39795e-05 -0.000243774)
(0.115114 -0.000328767 -0.000291665)
(0.114283 0.00010349 -0.000348384)
(0.105609 -4.87813e-05 5.21696e-05)
(0.115724 -4.28865e-05 -0.000271956)
(0.105315 -2.05697e-05 -0.000309325)
(0.119973 -0.000370427 -6.59944e-06)
(0.121582 -0.00015344 0.000275527)
(0.121679 -0.000267822 -6.45314e-05)
(0.106574 5.76751e-05 0.000232331)
(0.114289 -0.000559859 -0.00067413)
(0.115306 -0.000427909 -0.000289434)
(0.11487 -0.000733845 -0.000620741)
(0.104773 -0.000346323 -0.000895622)
(0.114152 0.000600651 -0.000142612)
(0.117373 0.000433396 -5.1693e-05)
(0.113552 -0.000225429 0.000625675)
(0.112515 8.83261e-05 0.000297565)
(0.114194 0.000355935 0.000600565)
(0.105475 -0.000166743 0.000302418)
(0.120155 -0.000929831 0.000251348)
(0.118148 -0.000952025 0.00047944)
(0.118494 -0.00079229 0.000359062)
(0.120203 -0.000861543 0.000147881)
(0.116786 -0.000273527 -0.000620478)
(0.115785 -0.000275967 -0.000273833)
(0.115087 -0.000144739 -0.000259686)
(0.105153 0.000110229 -0.000274583)
(0.119362 0.000254141 -0.000183919)
(0.118476 0.000208929 -0.000197093)
(0.118944 -0.000437547 -0.000180876)
(0.114816 7.62228e-05 -0.000366348)
(0.115711 -0.000429178 -0.000467993)
(0.115666 -0.000422602 -0.000585665)
(0.118221 -0.000482326 -0.000588169)
(0.119625 0.000111807 -0.000529646)
(0.119466 0.000167873 -0.000531154)
(0.118559 0.000187404 -0.000474102)
(0.113289 0.000417613 -0.000629661)
(0.115039 -3.60776e-05 6.97322e-05)
(0.113387 -0.000385479 0.000115607)
(0.114308 -0.000489116 0.000434859)
(0.105292 -0.000377443 -1.57454e-05)
(0.119195 0.000470682 0.000164105)
(0.115456 0.000396737 -0.000340563)
(0.115227 -0.000147616 -3.97779e-05)
(0.118755 -0.000678526 -6.63362e-05)
(0.115418 -0.000459398 4.25342e-05)
(0.118517 -0.000543392 0.000272272)
(0.119958 8.23875e-05 2.38154e-05)
(0.11857 -1.25349e-05 -0.00018021)
(0.119825 -1.61883e-06 -0.000188505)
(0.119302 0.000103361 0.000198782)
(0.119413 -0.000242915 -1.42127e-05)
(0.114035 -0.00026337 8.40541e-05)
(0.11819 -0.000406118 -0.000173496)
(0.118598 -0.000117482 -0.000401055)
(0.119831 -3.85631e-05 -0.000217045)
(0.118736 -0.000287752 -8.9983e-05)
(0.119095 -0.000349572 0.00029717)
(0.120517 -0.000203141 0.00020229)
(0.121139 -0.000358893 0.000160963)
(0.119476 2.88087e-05 -0.000558357)
(0.119396 -3.2779e-05 -0.000517152)
(0.12127 6.55384e-05 -0.000618069)
(0.117951 0.000236183 -0.000468205)
(0.119569 0.000174751 -0.000320372)
(0.119898 -0.000121525 -0.000661562)
(0.116647 -0.000713732 -0.000241533)
(0.120687 0.000194116 -0.000630312)
(0.118736 -0.000354155 0.00024898)
(0.120308 0.000116734 0.000393045)
(0.120221 -1.50189e-05 0.000177195)
(0.120388 -0.00026657 0.000186546)
(0.118784 7.62548e-05 8.34382e-05)
(0.119503 -0.000158617 0.000198292)
(0.113061 -4.97116e-05 2.79482e-05)
(0.114075 -8.77225e-05 -0.000540839)
(0.114133 -0.000285356 -0.000283834)
(0.114739 -0.000659803 -0.00030852)
(0.117727 -0.000578531 -0.000327888)
(0.118059 -0.000492841 -0.000356344)
(0.119062 -0.000395297 0.000127261)
(0.118816 -0.000313357 -6.06571e-05)
(0.120802 -0.000238438 -0.000304716)
(0.120801 -0.000234209 1.90379e-05)
(0.120136 -9.67484e-05 -0.000288589)
(0.118684 -0.000303111 -0.000410647)
(0.118362 0.000132632 -0.000206616)
(0.120066 0.000246227 -8.79195e-05)
(0.119892 0.000337902 -0.000374445)
(0.121063 4.64893e-05 -0.0006268)
(0.120294 0.000145705 -0.000182602)
(0.120996 -8.54865e-05 -0.000577363)
(0.119949 -0.000388749 -2.84999e-05)
(0.119153 -0.000154038 -2.87684e-05)
(0.118051 -0.000792187 0.00018426)
(0.120368 -0.000544437 6.24755e-05)
(0.119541 -0.000133916 4.80088e-05)
(0.116358 -0.000144632 -0.000345647)
(0.12029 -0.000122591 -1.84926e-05)
(0.11615 7.39953e-05 -0.000645487)
(0.120407 -7.19049e-05 -4.66927e-05)
(0.12118 -0.000176246 -0.000408834)
(0.120083 -2.5564e-05 -0.000276887)
(0.119965 -1.61312e-05 0.000235405)
(0.113503 -1.95472e-05 -9.41255e-05)
(0.113614 -0.000215914 -0.000427856)
(0.106423 -9.81634e-05 -0.000289541)
(0.114146 -0.000592334 -0.000790653)
(0.105161 -0.000339498 -0.00019665)
(0.12127 0.000221221 0.00068465)
(0.119523 0.000239104 0.000197951)
(0.118477 -0.00045428 -0.00040666)
(0.11347 -0.000306152 -0.000294498)
(0.119679 -8.36208e-05 -0.000722149)
(0.119418 -0.000122898 -0.000520504)
(0.118335 -0.000252893 -0.000301114)
(0.113004 -0.000217422 -0.000355065)
(0.120933 0.000330193 0.000619223)
(0.120985 0.000120006 0.000645013)
(0.121065 0.000189876 0.000573391)
(0.120132 0.000310349 0.000614752)
(0.119472 0.00060617 0.000274222)
(0.119537 0.000391952 0.000201073)
(0.120665 0.000474741 0.000212342)
(0.113333 -0.00018046 -0.000363649)
(0.114964 -7.40952e-05 -0.00020893)
(0.104794 -0.000315982 -0.000410286)
(0.115825 0.000278115 -0.000344835)
(0.114769 -9.19697e-05 -0.000289973)
(0.114098 0.000255718 -0.000374171)
(0.105584 -6.99873e-05 -0.000680648)
(0.12065 -8.87735e-05 4.50613e-05)
(0.119144 -0.000237578 -0.000395318)
(0.120712 -0.000379227 -0.000113424)
(0.117909 -0.000113439 -0.000275729)
(0.119656 -0.00025339 -0.000366933)
(0.114559 -0.000283179 -0.000494568)
(0.115153 -0.000197464 -0.000602748)
(0.105542 -0.00033479 -0.000372311)
(0.115896 -0.000303814 -0.000149098)
(0.113886 -5.14455e-05 -1.56065e-05)
(0.113521 -1.13186e-05 0.000209754)
(0.106522 -0.000114643 0.000101727)
(0.120957 -0.000558013 0.000146607)
(0.119566 -0.000382341 0.000365491)
(0.119393 -0.000352384 9.92944e-07)
(0.120891 -0.000307622 -7.57382e-05)
(0.115571 -9.13772e-05 -0.00117823)
(0.11536 8.03204e-05 -0.000764858)
(0.117987 -0.000184994 -0.000785205)
(0.105906 -0.000222815 -0.00105045)
(0.118145 0.000233929 0.000198423)
(0.1186 -0.000400458 0.000227737)
(0.118486 -0.000125964 0.000253602)
(0.113581 -0.000193068 0.000289286)
(0.115884 -0.00050155 -0.000396792)
(0.118788 -0.00023155 -0.000588693)
(0.118621 -1.33912e-07 -0.000740699)
(0.119243 -0.000116848 -9.9197e-05)
(0.120868 -0.000167152 6.00006e-05)
(0.119958 3.61351e-05 0.000330232)
(0.116419 0.000240149 -0.00101529)
(0.114244 0.000430748 -0.0007053)
(0.115935 0.000833527 -0.000769962)
(0.104414 -0.000276859 -0.000780033)
(0.121963 -6.34147e-05 6.49457e-05)
(0.121797 -0.000182088 2.95782e-05)
(0.120186 1.76149e-05 -2.39103e-05)
(0.121827 3.4722e-05 3.64988e-05)
(0.120023 -6.17499e-05 -0.000458098)
(0.117608 -0.000125903 -0.000315735)
(0.117144 1.64771e-05 -0.000638791)
(0.119793 -0.000208389 -0.000201577)
(0.116605 -0.00096304 -0.000345928)
(0.116943 -0.000871056 -5.69192e-05)
(0.105688 -0.000314143 -0.00047051)
(0.115564 -0.000635863 0.000862606)
(0.114441 -0.000259983 0.00081315)
(0.116076 -0.000560948 0.000579593)
(0.104453 4.27884e-05 0.000164789)
(0.118376 -0.000320323 -5.7475e-05)
(0.113953 -0.000294222 -1.21599e-05)
(0.116012 -0.0002964 -0.000722196)
(0.121751 -0.000155441 -0.000204016)
(0.120422 -0.000137304 -0.000310187)
(0.114303 0.000259286 0.000271321)
(0.11353 0.000128177 0.00024278)
(0.115269 -0.000132069 -0.000103185)
(0.104671 -0.000115184 0.000201076)
(0.116439 -0.000188013 -0.000797575)
(0.116287 0.000341728 -0.000521828)
(0.105747 -0.000375785 -0.000885769)
(0.113672 -0.000179176 0.000271443)
(0.115974 -5.1835e-05 0.000276249)
(0.113967 -0.00043934 8.34665e-05)
(0.105995 -0.000246892 9.96021e-05)
(0.113792 -0.000925986 -0.000263411)
(0.116225 -0.000729343 0.000321794)
(0.114846 -0.00101529 -0.000173455)
(0.104208 -0.000540699 -0.000296149)
(0.116481 0.000294857 -0.000449887)
(0.117795 0.000145645 4.30332e-05)
(0.118109 -9.86322e-05 -0.000232769)
(0.112454 7.05503e-05 -0.000138559)
(0.114628 0.000387789 0.000130645)
(0.113895 0.000235944 0.000268246)
(0.105944 8.80957e-05 0.000203641)
(0.120635 -0.000558841 1.48004e-05)
(0.120226 -0.000396099 0.000128454)
(0.120959 -0.000489391 -2.15686e-05)
(0.120576 -0.000467228 0.000169522)
(0.11955 -0.000298879 0.000220764)
(0.119679 -0.00021228 3.39297e-05)
(0.121291 -0.000303581 0.000244404)
(0.121557 -0.000306277 0.000270422)
(0.112658 0.00017358 -0.000982917)
(0.112768 0.000119874 -0.000381753)
(0.114602 0.000189711 -0.00059527)
(0.10663 -0.000234695 -0.00048358)
(0.115292 -0.000386865 0.000475546)
(0.115908 -0.00117416 -5.73984e-06)
(0.116004 -0.000565126 0.00018646)
(0.108634 -0.000445071 0.000100362)
(0.117425 0.000843763 -0.000232671)
(0.119025 0.000517224 -0.00043333)
(0.119051 0.000458826 -0.000627081)
(0.114282 0.000199361 -0.000702581)
(0.115685 3.71898e-06 7.23306e-05)
(0.113405 -7.40274e-05 -6.96186e-05)
(0.11284 -0.000240024 -0.000214374)
(0.106011 0.000125689 -9.519e-05)
(0.119728 -4.23518e-05 0.000433598)
(0.114334 4.38714e-05 9.63473e-07)
(0.119711 -0.000438153 -0.000379709)
(0.120946 -7.37848e-05 -0.000395899)
(0.120167 -0.000111087 -0.000211047)
(0.120041 -8.35246e-05 -0.00024307)
(0.118532 0.000396071 5.95216e-05)
(0.11746 0.000343795 0.000168375)
(0.114014 0.000461836 0.000298277)
(0.12034 0.000174554 6.67502e-06)
(0.119502 0.000212159 0.000386136)
(0.120212 0.00013919 0.00035678)
(0.120191 0.000276981 0.000334647)
(0.120162 -0.000123588 -4.88e-05)
(0.120044 -0.000391705 -0.000116775)
(0.113782 -0.000266769 -0.000124069)
(0.118594 -0.000157726 -0.000249143)
(0.117505 -0.000274939 -2.03417e-05)
(0.118569 -0.000291327 6.59833e-05)
(0.112098 -6.73447e-05 -0.000314821)
(0.118696 -1.54288e-05 -4.87926e-05)
(0.118983 0.000260998 5.72837e-05)
(0.11345 0.000166337 0.000154142)
(0.115118 -0.000483999 0.000592707)
(0.118402 -0.000462035 0.000415074)
(0.118596 -0.000722153 0.000558348)
(0.116882 2.06489e-05 0.000213272)
(0.118312 -0.00032408 -0.000103213)
(0.118439 -0.000245342 9.023e-05)
(0.113247 -6.96196e-05 0.000230729)
(0.115128 0.000404986 -0.000107121)
(0.112651 0.000309698 -0.000458461)
(0.104933 0.000884987 -0.000451878)
(0.119576 -0.000113845 -3.9967e-05)
(0.120864 -1.95451e-05 -0.00014884)
(0.121362 0.000483906 -0.000218216)
(0.11812 -0.000201276 0.000249384)
(0.118505 -0.000172509 0.000463876)
(0.112154 -0.000488237 0.000594698)
(0.119824 0.000313485 0.000123481)
(0.120614 -1.15278e-05 0.000105828)
(0.120486 0.000259837 -4.9729e-05)
(0.120642 0.000300439 -1.67421e-05)
(0.11518 -5.64924e-05 -0.000114852)
(0.115882 -0.000153907 0.000143917)
(0.115358 -0.000367893 -1.11343e-05)
(0.104822 0.00010995 6.43293e-05)
(0.113576 3.30358e-05 0.000370145)
(0.113413 -0.000190284 0.000343173)
(0.114715 -9.98969e-05 0.000559776)
(0.105236 -0.000259714 0.000322375)
(0.119371 -0.000264544 -0.000287643)
(0.120222 -0.000178671 0.000204131)
(0.121053 -0.000345917 -3.54364e-06)
(0.120751 -4.36557e-05 0.000187564)
(0.119441 -0.000352816 -0.000327219)
(0.120596 -1.77509e-06 -0.000416196)
(0.119059 0.000126377 -0.000331725)
(0.11714 -0.000197907 0.000690765)
(0.119146 -0.000246258 0.000163079)
(0.118742 -0.000154716 0.000321483)
(0.117625 -0.000223429 0.000697302)
(0.117947 -0.000131491 0.000166259)
(0.1194 -0.000356867 4.41017e-05)
(0.113738 -0.000103056 0.000272046)
(0.119758 -0.000219177 -0.000608657)
(0.119898 4.10925e-05 -0.000504003)
(0.118074 -4.73209e-05 -0.000250898)
(0.113442 0.000202284 -0.000482317)
(0.118979 -6.8481e-05 -0.000679422)
(0.115819 -0.000154233 -0.000649418)
(0.118861 0.000126576 -0.000534013)
(0.115697 0.000272273 0.000283983)
(0.118834 0.000398421 0.000424458)
(0.116486 0.000146887 0.000621758)
(0.119177 0.000279025 0.000299922)
(0.120669 0.000162491 -0.000492626)
(0.118343 0.000329491 -0.000510774)
(0.118871 -0.000107976 -0.000734393)
(0.115709 -6.63146e-06 -2.45145e-05)
(0.105676 -0.000126051 -0.000290249)
(0.115323 5.1143e-05 -5.52372e-05)
(0.11815 -0.000146001 -7.16962e-05)
(0.121109 0.000304251 3.66765e-05)
(0.12092 5.31514e-06 2.56499e-05)
(0.120403 0.000137172 0.000205216)
(0.121005 5.98807e-05 0.000298433)
(0.119989 -0.000483498 4.79824e-06)
(0.120016 -0.000592449 -0.000144681)
(0.119838 -0.000485181 -8.51967e-05)
(0.120038 -0.000517644 -0.000271652)
(0.120058 -0.000513449 0.000119891)
(0.119811 -0.000588623 0.000106969)
(0.118155 -0.000517673 0.000296631)
(0.117222 -0.0011383 8.38324e-05)
(0.119253 -0.00111145 -0.000223947)
(0.11856 -0.00101448 -0.000458859)
(0.117342 -0.000121743 -0.000267276)
(0.117221 0.000177129 -0.000500358)
(0.113618 2.38132e-05 0.000199761)
(0.119914 0.000163444 -0.000418593)
(0.114281 -0.000105984 -0.000334846)
(0.117254 0.000557419 -0.000415845)
(0.117393 0.000586281 -0.000589469)
(0.11842 0.000146024 -0.000436035)
(0.112996 -4.2417e-05 -0.000391564)
(0.120589 0.000174536 -0.000294859)
(0.11914 0.000294988 -0.000322391)
(0.119727 9.17606e-05 -0.000466557)
(0.105811 1.40772e-05 -0.000173881)
(0.118382 0.000114033 -0.000217106)
(0.113996 -9.36225e-05 -0.000109245)
(0.116054 0.000168299 -0.000125016)
(0.118606 0.000213495 0.000209489)
(0.11575 0.000243038 -0.000141599)
(0.118884 0.000489296 -1.45528e-05)
(0.119127 2.10935e-05 -0.000284732)
(0.118623 2.20147e-05 -0.000392882)
(0.11824 5.99647e-05 -7.09549e-05)
(0.114658 0.000225047 -0.00035983)
(0.120741 -6.63388e-05 -0.000394801)
(0.119256 -0.000164484 -0.000559753)
(0.120278 -0.000264503 -0.000550368)
(0.118991 -0.000401257 -0.000421283)
(0.118718 -0.000550151 -0.000397096)
(0.120584 -0.000395491 -0.000246967)
(0.11974 -0.000425729 -0.000124308)
(0.120362 0.000169257 -0.000407752)
(0.120604 -0.000110357 -0.000317115)
(0.114588 -0.000653845 -0.000419291)
(0.115532 -0.000855665 -0.000458575)
(0.104917 -7.96755e-05 -0.000388331)
(0.117709 -0.000615154 0.00029033)
(0.118965 -0.000362743 1.7775e-05)
(0.120794 -0.00034795 -0.000184859)
(0.118806 -0.000178153 -0.000248867)
(0.120946 -0.000383138 -0.000169411)
(0.120567 -4.3835e-05 0.000162042)
(0.120346 7.62671e-05 -0.000117239)
(0.119677 0.00025316 0.000226348)
(0.116383 -0.000239184 -0.000472054)
(0.119912 -0.000264847 -0.000570228)
(0.111521 0.000188846 0.000168845)
(0.113383 -0.000235719 0.000659744)
(0.113098 -0.000385625 0.000310969)
(0.103492 -0.000438621 0.000377891)
(0.119534 -0.000417257 9.2078e-06)
(0.118813 -0.000478353 0.000256529)
(0.114614 -0.000405888 0.000772371)
(0.113311 -0.000941395 -0.000338091)
(0.106093 -0.000480941 -0.000211044)
(0.118024 0.000337436 -0.000178795)
(0.118226 0.000454732 0.000174179)
(0.102898 0.000122899 -0.000217725)
(0.118978 -0.000206461 0.000329519)
(0.120896 -0.000348811 0.000316583)
(0.114087 -0.000311808 0.000257229)
(0.116506 0.00031782 0.000290069)
(0.117173 -0.00028701 3.70125e-05)
(0.114792 0.00044506 -0.000215411)
(0.114907 0.000194973 -0.00027626)
(0.115308 0.000361463 -0.000538569)
(0.104768 3.35364e-05 -0.000115997)
(0.118797 -8.86426e-05 0.00013317)
(0.11821 -1.82169e-05 0.000152152)
(0.117715 -1.53797e-05 0.000218704)
(0.119548 0.000634595 -0.000259703)
(0.120364 0.000669771 -0.000233565)
(0.117714 5.90133e-05 -0.000173534)
(0.118516 5.3157e-06 -0.000320267)
(0.120515 -0.000536344 -0.000195841)
(0.120123 7.01617e-05 0.000248996)
(0.115623 -0.00050213 -3.75915e-05)
(0.115413 -0.000247336 -0.000105318)
(0.104196 -0.000263417 9.5389e-05)
(0.114219 -0.00084315 0.000156563)
(0.112991 -0.00055259 0.000500423)
(0.105733 -0.000532259 0.000134587)
(0.119866 -0.000644097 0.000301124)
(0.118264 -0.000161605 0.000481319)
(0.119285 -0.000472186 0.000549675)
(0.118091 -0.000311884 6.45095e-05)
(0.120222 0.000179874 -0.00062219)
(0.121015 5.82146e-05 -0.000601534)
(0.118949 0.00020247 -0.000451223)
(0.11494 0.000486356 0.000107921)
(0.115686 0.000174048 3.59255e-05)
(0.10406 0.000309697 -0.000440841)
(0.120444 -0.000655525 9.29892e-05)
(0.120399 -0.000697333 0.000307719)
(0.120198 -0.000518282 0.000267915)
(0.117231 -6.79129e-05 -0.000210903)
(0.115148 0.000118478 -0.000474951)
(0.105962 -9.52425e-06 -0.000375798)
(0.113543 -0.000202198 0.000203147)
(0.11353 -0.000465219 8.58671e-05)
(0.106457 -0.000268249 -4.5695e-05)
(0.11801 0.000204435 -0.000385638)
(0.117686 0.000171033 -0.000296058)
(0.119029 0.000296585 -0.000108571)
(0.113734 -0.000200385 -0.000312702)
(0.118233 -0.000289933 -0.0002864)
(0.119958 -0.000428189 5.17919e-05)
(0.118044 -0.000258637 0.000417006)
(0.119429 -0.000295045 4.15609e-05)
(0.116665 -0.00104581 0.000286248)
(0.118217 -0.000807001 6.08982e-05)
(0.118345 -0.000776854 -5.27989e-05)
(0.111976 -0.000778501 -0.000122789)
(0.113805 -0.000282581 0.000544484)