/*--------------------------------*- C++ -*----------------------------------*\
| =========                 |                                                 |
| \\      /  F ield         | OpenFOAM: The Open Source CFD Toolbox           |
|  \\    /   O peration     | Version:  2212                                  |
|   \\  /    A nd           | Website:  www.openfoam.com                      |
|    \\/     M anipulation  |                                                 |
\*---------------------------------------------------------------------------*/
FoamFile
{
    version     2.0;
    format      ascii;
    arch        "LSB;label=32;scalar=64";
    class       volScalarField;
    location    "0.002";
    object      epsilon;
}
// * * * * * * * * * * * * * * * * * * * * * * * * * * * * * * * * * * * * * //

dimensions      [0 2 -3 0 0 0 0];

internalField   nonuniform List<scalar> 
31639
(
54.6746
54.1076
51.2471
47.5587
61.1641
55
65.1839
54.4681
55.12
48.7483
49.8185
50.0487
52.4105
48.3914
54.6126
65.8416
55.9147
62.1024
65.5237
52.6295
74.7189
54.2144
47.9571
64.7724
65.4909
55.9358
52.0546
59.8542
62.9182
46.9893
48.6361
62.1801
47.7815
64.0535
69.4287
49.1852
72.267
48.3832
49.269
74.3704
68.4024
70.485
49.4922
51.2405
49.3617
48.3141
56.6961
62.8849
55.5918
47.9231
49.376
74.3437
48.6892
72.4112
63.4398
55.5503
72.2254
53.3365
53.3356
70.8894
58.0066
54.8065
67.8528
54.1188
55.3614
48.6122
56.8959
52.632
69.1676
47.8417
47.8268
58.3561
50.1508
53.267
48.8511
71.5171
48.5899
61.0482
54.2512
53.1209
64.8643
72.7413
47.4169
51.9604
51.407
48.7074
47.8803
47.9872
72.0528
47.6006
51.8987
60.8912
70.4907
53.5156
67.8693
55.629
59.3452
52.9787
52.5936
69.5168
47.4457
49.57
53.7104
73.3385
71.609
48.5309
70.8528
74.1289
68.8473
71.9154
50.8632
71.3397
53.9069
64.8618
52.8519
72.5233
65.9943
66.7888
48.6899
53.9015
54.4124
50.4008
50.5776
56.51
60.1894
48.4728
54.2736
65.2372
67.7386
48.777
49.1241
50.0655
49.6922
64.3243
53.3275
51.9937
70.7477
72.6764
49.4352
53.2044
53.827
49.2573
49.1357
73.7027
74.6927
47.7551
49.974
72.0763
69.9995
49.2922
68.6614
53.1511
65.2721
53.1921
72.2062
48.5952
61.7915
68.5018
69.5684
65.2816
49.0428
71.1664
70.2476
70.7315
71.1683
55.5089
70.0383
48.2937
49.5642
70.4361
59.9781
54.4318
69.3717
51.6721
48.0146
51.3676
52.1306
48.0874
51.798
52.5269
53.0577
61.406
54.8809
76.757
58.2385
48.6404
55.9981
49.3401
70.923
72.8745
50.361
53.4488
55.2558
53.1254
53.3517
64.3032
63.2634
49.7215
71.5936
62.6495
49.4302
48.2365
52.1743
50.7163
59.8079
53.2927
54.8117
53.7569
49.7001
74.6197
53.9266
64.1989
52.7584
52.2962
57.2193
48.2271
69.5124
66.5467
49.1522
49.6628
49.3695
64.8429
72.868
51.7805
69.2069
61.4794
49.5924
65.7659
71.5829
54.3421
55.0101
48.9948
71.269
71.9882
55.0833
56.5095
71.6562
49.6217
68.2975
72.2957
53.3067
56.413
55.0936
64.5818
68.432
55.2616
54.1074
56.165
71.9983
54.4158
54.9381
70.1699
64.7978
47.988
50.2371
64.4472
70.5337
49.9279
51.4183
65.5531
47.5748
48.2883
53.9681
48.8289
55.1262
59.7659
72.6491
66.1535
50.4554
54.2844
54.482
64.1283
60.5435
54.2076
48.191
52.7933
71.9862
64.0016
68.8887
49.4344
60.7055
49.1801
49.4108
65.0353
71.0996
68.6995
70.2203
72.8677
49.7506
69.7788
49.9041
54.1774
64.2848
68.1348
48.7796
63.0355
67.6404
54.3609
63.9541
71.9781
55.338
70.4344
53.4882
53.9072
70.2886
60.8
53.3578
74.7726
73.2919
49.3981
47.9478
49.3497
71.0244
70.4484
50.094
67.7104
67.2741
47.9405
48.8427
54.6758
48.6579
47.9742
69.7495
47.9765
74.5679
72.6011
48.9611
50.7993
50.0925
49.163
55.7737
68.7535
55.1294
53.8983
49.5407
48.7164
48.404
54.6313
57.5033
52.3403
50.2506
55.8162
57.83
59.8226
53.7678
62.4536
53.2138
56.077
69.9821
54.6831
47.1013
64.1884
52.9916
49.0813
54.0343
71.1753
53.5498
54.8192
70.7629
48.4622
71.3521
61.6289
49.3223
73.2382
53.1645
54.0298
70.83
58.75
69.8411
61.8945
49.0612
56.2658
72.2913
55.6222
70.0775
55.2247
50.4251
48.4299
47.7453
69.7281
51.1797
71.1457
54.6152
75.0621
49.8813
49.2259
48.9626
48.7267
66.859
52.8901
53.7908
51.7051
53.8428
70.3253
58.8073
55.2939
52.449
53.5374
56.2444
56.2199
60.0953
71.296
59.625
52.9457
49.6049
75.8351
49.4624
49.9973
55.1201
51.1663
49.7214
62.5893
48.8482
70.6416
56.1478
49.0052
72.9509
58.5409
51.2519
69.3983
71.4518
70.8883
62.9804
71.3743
52.3168
52.5598
65.3785
49.7604
71.075
48.8337
47.4732
53.3415
55.4818
60.9857
49.2642
53.224
62.0478
48.7001
52.6074
70.5234
53.3567
49.5916
49.1171
54.8785
49.0331
55.963
56.7423
52.0996
47.8988
49.7563
70.8631
53.6067
74.6394
62.5174
54.5079
70.7397
74.7539
60.8128
54.5584
51.9573
71.2889
54.8804
66.1151
53.6811
54.4611
64.2348
54.2296
72.2244
54.4779
49.2145
48.0659
50.6854
61.0985
73.3737
55.6774
53.0653
49.486
72.1592
70.905
54.8804
70.5731
69.5832
56.1967
72.1565
62.8292
69.6076
55.7543
71.4353
48.3673
49.7758
48.8343
49.8196
70.6529
48.9143
48.6631
57.4347
55.2583
52.684
47.8462
49.062
63.0113
49.9931
47.6203
54.1938
67.5545
47.6163
53.2068
75.9534
74.1645
52.9135
48.2643
48.3242
55.5721
46.7852
51.8102
49.5477
52.4882
63.1836
56.4077
69.8166
54.7381
56.0349
48.1793
68.2379
69.4943
69.5784
58.6059
53.6479
75.1263
53.9918
64.9162
56.292
60.4724
50.7638
59.4623
70.9722
51.8504
49.9485
69.402
54.7658
49.3771
52.3046
54.3008
59.241
68.7954
53.6851
53.4212
70.8596
71.2815
53.7036
63.0683
55.8915
67.712
62.0437
48.7446
53.8807
70.8667
67.4877
52.9078
47.8704
71.7799
74.3229
49.8351
72.0352
51.5907
49.277
71.3341
52.9057
54.2334
60.8863
74.4258
48.6539
61.9844
70.382
48.3467
53.233
55.912
52.2429
75.2457
65.2097
54.7677
62.7811
71.0798
61.4298
52.9109
47.7261
50.9221
54.7239
49.749
56.7319
66.0654
50.857
48.1406
47.4066
67.8506
52.9119
58.2258
48.479
70.4109
73.3345
48.8569
67.1098
48.2827
55.9952
73.0648
62.2577
48.5646
63.2772
53.6975
71.2994
51.3508
57.0748
72.6881
47.681
50.1188
60.5227
69.6724
71.5737
61.938
53.9427
53.2364
54.3025
53.4422
49.4159
52.6793
53.6096
69.4723
49.2759
72.538
53.5912
60.1676
64.0465
46.7226
53.6723
68.2835
72.0779
71.3172
61.5241
48.1137
68.6674
48.4882
63.7611
49.4288
72.5955
55.5379
51.2485
48.0711
48.9996
49.6809
52.3894
62.7675
47.64
48.652
47.8721
67.3873
50.2012
71.1737
47.4917
54.0675
54.3906
69.1574
56.3334
76.5897
50.2043
61.3195
49.6182
54.37
56.9106
69.0404
47.9773
70.9858
79.0253
69.0978
68.4083
71.0755
53.7146
72.2353
51.8227
57.721
75.3574
47.1388
70.9181
68.7236
55.0916
65.8984
52.8769
49.9489
47.1243
49.1216
64.8488
53.535
63.8556
61.4883
76.4365
73.6427
48.0089
53.6531
56.1102
49.269
70.6962
48.4466
48.4081
50.2038
50.1826
50.6267
51.7615
48.6819
47.8179
53.1952
49.2195
54.8071
70.2809
49.1736
62.2459
49.9511
55.9628
53.1091
65.7034
49.4409
54.5058
54.4734
61.8975
71.5181
47.1406
58.0367
64.2293
71.3167
49.6457
72.498
49.0116
55.0902
56.2734
52.6342
48.8052
53.1898
71.85
54.2072
61.9196
52.7203
69.9174
50.4265
53.574
57.0434
53.4667
58.9178
56.4907
63.3376
60.3063
72.9951
49.5526
56.8806
47.7145
67.7867
53.2871
51.9776
54.4844
65.2953
54.0199
49.4409
54.1865
71.7028
72.6574
54.3516
73.3609
71.9143
52.0787
51.8804
49.772
73.2481
53.5123
49.3724
73.1137
73.0549
52.6258
68.9631
60.9593
69.7165
48.369
65.5098
64.7797
48.8186
72.1802
55.053
55.4487
49.7402
49.2114
48.5904
69.471
50.1324
48.7722
62.6615
48.3539
50.2577
54.4914
52.3661
52.8647
48.8545
47.7793
48.9492
51.0987
63.2011
53.5654
53.4968
69.6427
54.5528
52.3955
48.5715
49.3734
55.2862
48.5282
50.2748
56.581
55.3259
48.4478
54.4264
55.4029
70.148
62.6564
49.453
73.0765
62.4627
54.1493
61.7909
54.5713
48.3768
55.0463
49.9051
57.4225
54.9958
58.5722
49.5106
53.0694
61.1723
71.3332
48.5995
69.4072
55.0585
62.0989
54.7785
59.0374
47.4209
72.246
47.6014
69.3966
52.6323
63.8622
54.0585
53.9088
49.1781
70.6422
50.1708
49.3056
53.5594
52.2324
54.9415
74.9335
47.8476
49.05
53.134
49.8033
48.4556
53.9877
62.4409
51.9299
70.802
61.8774
48.847
72.8325
67.1477
48.681
48.504
67.2711
63.386
52.4299
64.4027
55.4437
69.4055
52.0791
52.9821
73.2686
58.2224
47.8007
53.8556
53.5573
55.3397
49.3459
69.0584
70.1612
47.5088
48.5266
53.8511
70.1704
54.0891
47.8971
68.0323
48.917
51.5396
50.6393
57.0232
50.1462
52.3406
52.1023
54.6738
64.9977
74.2827
57.8404
52.6614
70.1993
49.645
73.3488
55.0644
61.2445
69.773
53.9889
65.0286
51.2371
57.7088
53.1436
71.7666
70.7141
62.773
69.8343
55.6607
48.2302
54.1357
48.2607
60.6066
53.4054
48.3763
63.0153
60.655
53.7108
54.0666
55.2669
69.0197
52.8799
50.9861
47.4414
48.0419
72.8131
72.7235
54.8988
47.7737
68.3967
54.9145
62.2038
53.7293
48.6848
61.7189
55.1513
55.359
70.902
48.7407
54.6395
71.3043
66.0244
54.6565
63.4517
48.6533
49.0375
57.4151
69.5687
48.5256
70.7502
55.8558
53.8877
67.7433
49.3952
71.7537
53.7285
57.0532
53.6962
73.1942
71.3997
49.8218
48.2766
62.2772
49.6198
51.8994
53.5104
70.4924
69.6905
51.5997
59.7084
53.427
48.1248
49.3565
49.3582
48.7961
56.3848
57.9117
49.112
72.942
52.1843
50.5383
52.6101
52.1006
47.8585
61.0521
48.9033
54.329
74.3321
46.9741
66.476
48.0215
62.3637
48.5797
70.3202
50.625
48.8918
55.9583
52.3117
70.6917
48.599
48.0851
51.6228
71.2508
47.2373
59.0591
50.539
49.3487
50.2149
49.7087
55.844
61.2429
45.7558
69.8385
69.5341
69.1492
67.7544
51.7174
72.719
48.1013
48.2714
52.9999
54.4851
58.6485
52.543
47.3934
53.928
59.1794
48.4168
54.158
61.2301
49.5377
54.1421
53.6355
52.0254
62.4939
49.8922
47.2527
47.7508
48.6126
50.3059
65.0827
46.5536
59.4832
55.2157
53.7017
51.2161
46.6667
52.942
49.5917
65.4967
53.628
56.7522
68.9375
71.8027
54.1427
61.4757
52.6083
64.6178
73.0503
56.2678
49.7998
67.3819
63.0101
52.5829
48.0599
49.752
55.1149
67.5391
53.2805
55.3714
62.5063
55.3086
53.2229
71.5446
63.7581
66.5626
55.8061
49.5363
53.8976
52.1265
52.3259
52.3146
59.3382
70.323
70.2146
72.4773
53.7187
53.1375
48.0675
47.1039
54.2562
70.5693
50.8797
63.1429
56.2687
55.472
49.2787
71.2292
47.5432
70.2595
52.5554
55.4391
62.2301
46.6698
54.8791
51.5726
70.4281
54.4385
61.156
56.2519
67.402
72.938
50.0333
49.0465
57.0602
50.3348
48.1382
71.2675
62.5706
60.542
67.9345
52.6049
49.0544
48.9339
49.7427
48.2421
69.3727
69.1193
70.2089
47.4894
72.9137
50.0747
57.5446
69.2009
62.2393
49.6685
49.352
65.0604
63.5772
55.0903
53.0571
48.3101
57.812
70.5702
52.5354
50.3824
53.2547
50.2875
48.7718
46.8087
48.5813
53.9328
69.7927
71.8064
55.8366
66.3025
48.368
71.834
51.8482
60.2492
48.8032
69.2683
55.6438
48.6337
52.7916
64.8754
70.1398
50.2254
64.0705
50.4058
58.7567
47.0316
48.2665
52.0668
73.3453
70.1211
54.4106
59.2314
63.9097
48.8776
71.493
48.7081
52.3319
63.6724
50.6359
47.9188
49.3206
48.4406
47.6131
51.2559
57.4097
72.021
65.7717
49.1603
70.4637
55.8433
55.0303
71.6774
53.2656
49.9007
53.8469
51.0036
49.2861
71.1496
53.6886
52.7226
71.2997
63.7343
54.3673
65.2129
54.2625
69.5526
69.6382
53.5859
63.9069
49.1321
47.2362
49.1572
54.9385
54.8584
52.7641
56.6832
53.5919
69.5013
52.9202
62.0331
48.0005
55.4341
61.4528
63.3418
48.9869
69.5434
52.7511
48.645
54.7622
77.2585
59.1683
74.8653
55.116
72.6756
47.4161
49.8461
47.6246
51.2408
68.1679
71.5338
49.0388
48.1985
52.5733
53.3711
61.4088
49.8249
47.458
49.1526
70.7522
62.7728
53.0194
50.1501
61.2164
52.4931
72.1791
48.4594
49.3443
56.9462
52.5305
55.198
53.7369
47.8798
51.5134
68.5105
53.154
51.4963
53.4742
57.5068
57.3474
71.5472
69.341
49.8762
48.7685
49.7739
49.0618
49.7239
49.7176
55.6542
52.5021
49.9081
48.9497
61.1902
61.6751
55.5507
53.122
49.1457
72.2533
57.9928
72.428
49.1649
71.416
70.3905
53.9453
73.6387
63.8869
54.1191
48.4304
49.7075
67.0805
56.7564
48.9213
69.1197
74.1371
63.2422
64.8682
48.3723
53.2131
58.2579
69.9522
55.7521
49.3942
49.0408
69.5212
68.496
54.4858
49.9449
49.8249
69.3191
70.2061
56.5147
62.9014
47.7041
54.6029
71.372
56.1621
50.1146
71.0462
72.4857
49.0615
67.7304
69.2111
47.7448
50.1659
49.6214
47.4887
54.4019
63.7674
49.465
65.3466
50.3347
64.3054
54.5272
49.4506
53.6603
71.0812
49.6187
49.1294
62.1054
53.3706
59.9592
66.1578
54.174
57.7608
56.7895
48.8115
63.9369
49.3056
71.0729
50.3013
47.9473
72.0801
54.2341
52.0885
75.768
69.8371
52.2325
54.2532
49.3047
64.6727
71.2602
48.0999
48.3579
49.2297
57.0206
49.0571
73.0097
48.1889
53.3113
71.2978
69.9974
74.5722
69.6855
49.1814
64.2798
51.751
53.5647
67.3026
65.5222
73.8582
72.8278
47.9036
48.7269
69.7931
49.8415
55.0754
70.1929
54.6294
60.9091
69.9515
65.1467
48.19
69.2411
73.5769
50.2433
48.0756
67.9544
49.7081
62.5997
68.7534
69.2949
62.1804
70.3762
71.266
52.1421
51.744
62.3301
54.1601
49.1943
54.3221
48.627
69.0997
62.0365
71.7838
52.6678
49.6606
53.6883
65.3284
53.3748
70.023
50.8178
53.7545
64.5487
71.1334
73.5362
73.8832
64.4907
70.2359
61.7932
71.3736
60.943
49.9591
55.7634
62.7633
51.4229
55.0038
53.3938
50.6111
71.6422
57.9543
49.2423
47.9558
54.4209
48.5259
68.7601
51.2167
53.6232
71.776
54.6706
48.2938
55.3487
49.9703
48.7957
57.5265
74.0176
75.3701
54.3957
48.2422
55.9368
49.6452
63.9835
63.9756
67.8509
74.262
74.4681
71.7234
51.4796
51.5493
48.1089
57.3767
62.9649
48.436
75.2787
53.0167
50.7271
49.4254
56.0821
55.5797
49.288
47.3178
49.0759
59.8823
61.8566
50.1699
55.972
52.7239
48.166
51.6849
48.1794
53.11
66.3391
53.0142
53.9722
53.0898
52.3918
72.9313
49.1416
49.3173
48.4355
49.3743
71.4051
74.3705
54.1349
53.8092
62.7744
52.6971
49.774
50.1097
49.4466
63.0481
54.3351
53.6525
50.9538
71.501
74.2264
56.9282
56.62
70.6461
48.7411
70.4216
63.3291
53.1722
53.519
62.9273
49.6483
56.4723
50.0845
56.0817
54.0246
52.8711
63.9815
73.6695
48.1133
75.5202
72.9797
60.8468
71.2119
73.2786
63.0142
52.3743
70.3786
62.6857
77.5771
69.2156
53.9799
48.2732
72.524
71.3917
49.5153
73.6902
60.37
54.2192
57.897
52.5684
72.109
71.5128
61.9066
48.8914
68.6785
69.9118
58.1859
63.0379
52.4667
54.1123
70.4202
50.3212
71.0794
73.277
61.397
53.5111
64.4549
61.0367
61.5223
52.8158
72.7808
68.7234
54.5025
48.8093
51.3127
74.1325
74.1243
60.4192
47.5526
53.7934
53.6255
64.5241
56.6102
53.0205
70.0086
47.843
65.3052
71.1165
75.0827
48.6621
53.5944
49.1313
58.1854
49.1963
71.9972
61.4851
73.1884
74.0839
55.6875
69.6646
63.8137
53.4776
50.0962
69.9115
47.4665
48.8533
47.7899
56.6586
78.6459
52.7572
74.262
49.9605
70.3347
49.536
73.3637
51.8257
55.9768
64.0592
63.3072
76.8538
67.4059
52.9273
49.3468
55.8247
48.4902
48.8602
72.3532
48.7003
54.5847
51.9341
52.3607
48.883
53.4766
52.515
49.3557
63.892
66.683
68.3089
51.8912
49.0059
68.606
68.0255
48.7931
53.32
53.1591
47.495
51.176
57.2495
53.0217
48.9706
49.3207
55.0227
56.3431
49.1499
51.4869
65.151
54.6498
65.1273
46.7549
51.8022
49.4213
71.0294
68.3447
53.4997
49.413
51.002
49.3647
48.1438
55.546
55.7782
69.6137
62.647
51.8216
50.6462
48.0868
48.0614
64.1325
48.4304
73.1389
49.6481
65.7243
53.9179
62.4014
53.0091
56.9797
49.9673
70.3308
48.2881
48.5675
62.0255
69.5451
47.8839
54.2245
48.8077
53.4385
52.2003
53.8888
70.481
48.6249
62.8865
52.8199
66.7734
67.6483
67.8914
71.7224
64.5606
47.4653
53.3664
71.1729
56.1279
70.9104
58.7197
51.824
73.5324
70.6197
66.1208
58.2147
52.8653
65.5386
49.165
62.6415
60.7993
66.3824
48.3703
47.7874
48.9362
50.2364
51.8038
70.1704
72.5422
49.501
62.9539
59.7153
48.7792
47.2634
54.4093
51.9419
72.5656
49.2755
48.2859
64.5946
48.8588
48.5194
53.9791
55.0256
54.932
62.2713
72.307
52.2669
71.2646
70.5639
59.4862
53.1557
55.0528
54.2799
52.8029
53.9635
74.8311
62.2375
52.178
48.1611
71.3021
63.1226
68.3439
56.1719
48.141
62.6282
55.2594
49.4981
57.9271
73.6126
49.5259
72.3531
49.181
49.9981
51.041
48.7542
51.7957
48.3372
71.9417
49.4121
47.8726
69.4066
50.4174
53.5658
61.5409
49.4775
62.7988
49.546
48.0719
48.8426
52.7278
48.9845
52.4809
53.3638
69.7926
56.5432
71.3201
71.7046
58.7291
50.9758
53.5245
48.3248
54.101
48.7222
72.1183
49.082
47.3489
50.7685
49.8944
71.0179
72.1498
53.0835
73.4116
49.7931
52.4765
74.6905
61.0192
49.6318
53.9803
71.3795
68.5411
73.503
48.5489
72.2944
50.7905
57.8993
71.7812
52.3437
49.503
47.6556
49.8675
69.7874
54.9715
48.7224
69.0746
48.5104
54.6327
52.8832
70.8876
50.3571
63.9623
54.4471
63.9577
55.6094
62.8238
62.5296
65.1312
62.2932
50.167
53.7471
48.2664
70.2793
53.748
52.1703
49.411
50.4966
75.2307
49.6492
71.3199
55.3842
47.5532
48.2738
62.4407
59.1532
52.824
62.142
54.1813
59.4822
70.4336
70.9771
51.5947
48.6979
55.5688
62.6892
48.3728
70.3655
51.8389
71.3268
56.9535
47.851
54.8003
72.9122
49.483
70.8557
51.4657
54.7543
72.2713
49.5349
69.1031
63.8459
61.4455
73.2649
66.8141
57.0888
74.2259
50.7741
47.5641
75.6262
65.7806
48.859
56.0852
51.5206
48.9173
50.2101
53.1522
68.379
70.9642
74.1827
58.8248
48.6031
49.7043
54.7895
51.6984
71.4128
71.2949
54.0405
50.7195
73.7779
51.9359
53.0344
61.4546
49.9092
55.6106
48.3888
68.3472
60.3417
48.6325
75.7607
52.6414
48.0036
48.9136
54.0076
49.9096
51.8319
71.2674
48.3895
49.6335
54.2279
51.8328
54.8886
53.1277
52.7239
55.4649
51.9132
53.0854
55.6959
70.7593
62.9142
47.3412
54.6799
46.8208
52.3311
61.6129
48.3981
70.9605
50.2855
70.4787
49.5803
53.9523
63.0368
49.9924
64.6337
60.6446
47.7002
63.4625
49.7393
47.6947
50.5669
70.9041
52.6687
54.1225
67.4434
49.0007
55.9722
53.4716
48.1051
71.5928
50.4595
53.1217
50.5202
60.8937
52.5289
71.1125
70.0992
46.7411
71.7326
52.4544
49.5137
70.6925
62.5262
48.3566
67.5225
69.3669
66.847
65.9514
62.4587
47.505
60.9668
48.0762
56.0423
49.9307
72.7227
64.3571
50.2832
52.9682
71.9247
68.6118
59.7322
62.273
69.9021
53.3899
55.0526
47.8824
54.5026
48.7997
51.3086
55.8192
49.2101
56.5599
65.3792
57.3329
49.814
54.0484
56.5092
48.4732
53.7915
70.5761
72.9849
59.9157
61.0202
55.5957
49.3217
58.4713
51.2048
49.3985
50.5375
48.6575
57.8191
71.1481
56.2107
65.2967
48.6114
57.905
50.8218
49.4688
63.0708
63.1321
51.7654
49.4145
51.818
47.4546
55.7678
63.0041
61.6396
68.8274
62.282
48.5336
69.9908
48.0953
55.7838
49.1744
69.1655
49.8518
51.8655
49.0251
52.7431
56.5304
53.4675
49.3157
71.6105
69.2653
53.5011
64.9097
56.0341
53.9166
52.7776
48.0411
55.6077
71.8086
66.0238
70.2264
57.2889
53.0102
69.3435
49.2332
53.5019
62.2339
55.0472
66.9098
69.9047
47.7176
70.6075
70.3432
56.6529
58.3934
66.7731
66.7988
48.0385
49.9705
66.6126
51.4748
49.0568
53.0922
49.7287
73.2049
48.3492
75.0232
49.567
69.0178
70.8876
48.9631
71.8154
63.0407
56.3963
48.8963
62.5207
53.2721
66.9228
53.4049
54.6599
55.3095
58.5765
49.5085
54.4292
70.3845
50.0385
55.2345
63.9157
52.2491
69.35
59.9625
71.0867
70.2101
53.3054
63.7961
69.498
63.825
54.2695
48.9843
53.7619
73.6606
73.9916
47.4757
70.8979
53.9627
71.4309
49.3967
49.1825
48.727
69.9793
62.4031
48.4045
48.3202
55.6198
47.304
54.3924
56.4228
54.4338
71.1254
55.1583
64.379
52.5733
53.8665
65.7004
56.279
48.391
66.1844
68.4626
69.9197
50.8197
51.0087
74.1508
53.0102
53.3812
55.1512
70.7303
52.6984
62.5432
54.6296
64.0035
62.5805
54.4328
76.1324
49.3737
73.2163
69.8296
55.7012
48.6731
74.4849
52.9843
50.7269
51.5916
74.2065
48.3083
48.2497
75.8519
53.4085
74.7842
72.969
48.3774
64.7645
59.8354
48.9201
48.8153
56.3106
64.5576
54.063
62.8276
59.1411
64.4677
48.694
71.781
54.5335
60.8998
61.1376
50.2996
55.2573
51.0403
54.7852
53.4704
48.2455
54.6304
62.1845
63.9718
50.4423
55.9693
56.2423
51.4515
49.6225
54.1413
47.4387
55.4145
50.7863
64.105
70.5113
53.074
50.8315
69.8019
55.3458
53.1743
74.4959
70.7755
49.6009
69.8912
54.5793
48.7405
55.1797
70.0646
54.9362
53.3612
69.9825
72.6941
69.2331
49.9173
53.2644
53.3047
46.7656
71.5419
52.44
53.8462
48.5799
48.3176
74.752
53.7643
54.7787
49.8408
56.0736
56.7067
57.0514
52.5189
48.1171
66.2539
72.2766
63.5008
49.8695
50.8842
70.4766
63.5247
50.119
48.7716
54.2603
67.5313
72.4912
69.8272
71.6117
52.2396
56.0753
59.2416
50.6788
48.6004
63.9273
49.17
49.4248
51.8345
63.8433
49.6763
61.438
69.8188
65.6364
54.8267
53.4537
57.0575
54.9708
62.5902
49.6885
69.865
70.2656
54.9495
48.6422
50.6108
61.225
62.9862
50.1898
48.03
56.8828
63.3123
49.3802
49.4158
53.6525
48.5947
49.1411
51.4696
71.4041
62.733
71.5274
54.6959
48.0113
61.9895
71.4937
48.8075
70.724
65.5485
67.5961
59.8734
71.6921
50.6085
53.8377
55.0771
57.1554
69.7031
48.1207
68.9854
55.9706
58.8496
54.7031
69.3017
48.4649
50.6203
71.0775
67.1079
62.3908
67.678
55.8482
66.7232
51.3489
62.4331
53.2936
63.1943
65.5952
65.3463
65.8542
50.7122
59.2212
84.9133
71.7363
61.7576
47.9954
49.6444
68.8809
58.8701
50.3198
72.4677
49.8469
49.242
56.3211
70.1178
49.912
71.4801
73.9461
70.9024
50.9295
53.451
64.5831
50.2049
55.3512
52.89
70.8391
75.8362
49.0952
53.7656
48.1404
49.3475
69.6869
53.2962
62.1924
54.7224
53.8416
64.0871
64.1796
47.3178
52.1238
66.1095
69.5676
55.0609
53.3273
53.3277
62.0439
71.0821
70.259
54.9396
56.666
55.7567
48.6094
64.6457
50.7606
63.4832
53.5925
72.5197
48.1024
56.8388
56.9999
47.5579
53.7352
68.714
57.6781
71.3355
49.727
56.8862
53.4249
54.5255
54.3739
53.4897
48.6693
54.6431
77.1019
70.0869
49.9591
77.159
65.4353
49.4012
53.089
49.0881
57.2468
68.0842
69.9505
48.3676
67.1304
49.7292
73.8701
72.7892
50.6559
68.7111
49.4538
79.4032
74.1715
54.8529
49.5494
48.1062
56.2501
48.6398
50.6732
50.5395
49.6375
49.3845
54.7198
53.6637
73.9602
49.1133
54.3873
56.5031
48.9189
53.3258
48.4891
65.8939
49.0861
51.1991
64.5362
69.214
71.9788
50.1877
55.5696
49.2244
49.9184
50.1738
52.3759
73.3438
54.7341
62.3017
65.2889
52.6991
71.2553
70.0349
57.1188
47.382
52.3609
53.5568
69.6178
56.0464
59.7713
71.431
48.2665
55.0926
72.8522
72.6406
72.6135
69.321
48.7507
49.5577
49.0194
67.8411
69.1677
48.879
48.8541
72.236
49.8079
64.2761
46.9552
53.872
51.6398
50.5555
53.1261
52.9633
52.5081
61.909
67.9739
67.51
50.8726
59.4037
70.0539
49.6949
52.1242
72.0173
63.0892
69.3531
49.047
55.4068
54.1693
72.1707
48.3766
48.7835
58.5565
50.3232
55.6864
54.0184
49.2146
59.3481
52.8149
47.6513
52.84
70.0045
72.1977
48.7433
55.0178
70.3823
62.3576
49.7982
47.622
48.8109
48.7593
50.8319
50.4181
51.8959
54.2835
56.6599
49.8005
56.462
57.3095
51.3193
65.9045
65.2793
70.5343
52.385
47.9235
67.9656
54.3284
50.0776
65.1219
48.8578
72.7778
70.0143
69.0528
47.6292
70.9186
70.8015
69.0268
58.27
52.278
61.5033
57.0985
61.5571
54.9656
74.3269
53.7041
72.5939
69.3695
49.3035
69.9479
70.4271
49.039
50.7004
63.0044
71.9326
54.8878
64.5354
71.75
48.074
52.2869
49.2633
57.146
69.9379
70.4522
54.8607
63.2035
48.6786
60.6932
48.7026
65.6382
55.4005
55.594
48.8059
66.4476
59.7962
62.9719
49.2218
68.3766
53.58
74.9566
69.6875
52.2247
63.7789
51.3958
70.3656
53.6619
53.7447
57.1638
74.6873
51.541
48.016
52.9845
51.6225
51.4214
50.8734
69.8379
70.0532
52.1187
72.0912
70.6944
72.6364
53.598
65.2392
74.3344
49.2397
55.3226
74.6083
52.9447
48.6189
49.4152
70.7289
49.5454
49.2412
73.4514
58.4598
56.081
64.7399
53.9797
53.8432
49.8793
72.3227
73.1386
54.5817
70.8759
64.2707
74.9707
70.4608
54.5012
69.1588
50.0267
55.7181
49.6679
68.2204
48.8314
55.5664
57.1067
68.2646
78.8984
49.3461
62.7951
58.3698
52.835
49.4082
73.1576
55.2505
48.712
71.2966
58.268
60.6212
68.868
65.1699
56.7293
63.6239
57.3602
48.8724
50.1535
48.53
56.8272
55.3969
56.2993
61.6402
59.3043
53.2163
73.8469
55.3293
64.9188
73.3387
64.2603
49.8101
71.2318
76.8601
68.4992
51.9296
48.4912
52.288
82.8985
69.6679
48.4046
51.4989
49.0457
53.8845
71.9805
47.7051
70.8896
48.4139
64.2247
61.9724
55.2264
48.9555
69.8995
55.6859
70.2542
56.8085
50.0225
47.0379
48.6628
67.6292
71.114
52.6967
71.5177
63.318
72.492
55.9058
52.9346
48.6292
66.5553
48.6681
66.8696
47.6863
57.309
48.0812
49.3108
52.5569
62.0333
68.5009
61.2185
47.6206
60.1267
54.2256
50.067
66.2758
58.1099
50.7168
57.3891
51.8656
66.9058
60.5759
49.7124
49.9485
71.9207
48.3078
69.736
52.0955
48.8551
72.4593
55.3645
48.7211
53.583
60.9785
55.8938
63.8886
73.133
52.9854
70.9395
54.199
74.9549
49.9123
58.7692
54.3993
57.547
71.0885
63.3786
48.8324
52.6282
56.4609
48.2456
64.3259
49.8667
71.6045
53.6144
62.5161
50.1475
55.4883
53.2316
73.8936
73.3875
48.7545
48.7192
48.9374
72.0117
47.7617
47.7879
51.9791
48.8026
55.219
70.4628
51.3908
54.7401
56.8664
49.936
54.4548
64.5842
50.3653
53.9295
53.0308
58.2039
70.3878
72.3153
71.6647
49.0796
50.4278
61.6223
50.1868
50.3636
69.0512
47.7516
70.6499
68.8602
66.2896
63.1025
49.4742
52.1522
73.7117
49.8828
72.9402
53.1449
53.7669
51.765
48.243
49.4633
50.5401
62.1355
54.353
55.4186
49.2107
71.8279
61.1676
50.2001
65.689
68.9512
74.0472
54.5413
53.8004
64.8697
76.1379
72.7081
72.1198
59.2602
59.8979
55.8371
51.7827
53.9293
74.4032
65.1398
63.6018
62.7948
69.9139
57.7585
71.3192
72.2284
59.4731
64.4416
56.8445
69.4083
62.2447
63.4014
65.4269
48.1713
73.1593
50.4328
54.5678
53.5603
54.0427
69.7465
58.2724
52.6568
64.7353
56.5922
49.8833
48.3033
56.0929
62.0274
54.0153
50.3192
54.1869
52.8257
70.7653
48.7326
47.7354
50.0513
51.7439
50.0038
49.6156
71.9778
71.0684
49.5301
61.7204
58.1465
49.7017
60.1089
59.5924
68.6647
50.7377
58.8994
49.5337
48.8149
75.3997
51.9221
66.1442
48.8892
54.4946
48.9853
47.6782
68.978
49.2922
49.628
51.4234
75.2798
57.1967
58.6417
71.8336
50.8454
69.6828
55.3442
48.7108
59.0724
51.6923
71.6208
71.0397
50.1157
52.3659
57.3052
55.7877
56.038
54.5795
49.2557
48.2357
59.9103
75.8578
54.9972
72.1347
58.8345
59.2379
49.9539
50.4139
66.2014
52.6437
62.5314
69.7528
54.673
64.8813
48.381
55.369
71.6914
71.7456
60.4851
48.6941
53.4064
48.8145
52.2662
72.6853
75.3297
73.9703
63.9917
49.7641
72.1737
48.6408
54.3606
72.4866
70.1526
74.2396
54.9488
64.8817
51.9439
69.3847
63.0619
49.4719
49.9831
71.2788
72.292
56.679
56.7557
65.5083
62.8
57.958
69.0832
59.1237
72.472
54.1147
52.2966
73.4941
49.9089
73.8047
64.9861
65.3698
64.9692
69.6116
51.5927
55.186
51.7474
49.4075
67.7868
72.7786
53.0043
47.9266
72.5312
49.1601
51.3741
50.0609
66.8501
60.0154
50.1022
62.1179
58.2167
60.1316
53.8974
56.7327
70.4231
68.2151
49.1411
68.9349
77.2489
76.7891
60.5436
49.4317
67.5184
72.7636
52.2306
76.0814
53.4889
58.4878
66.8977
56.6261
54.2277
48.1148
70.2141
54.507
49.411
69.4331
75.0008
59.285
58.9162
68.3596
57.3104
62.5185
58.7147
54.6363
50.4673
68.7375
56.4965
50.8658
56.2512
52.5378
54.6804
61.5956
57.7651
61.1342
49.893
60.7187
52.6687
78.518
60.8874
76.984
65.6374
50.4529
57.5218
67.1483
64.0227
55.5356
73.901
64.691
49.5674
69.8221
59.5334
54.0142
67.1196
54.5914
72.6086
56.6218
67.0634
73.9098
57.7434
65.3401
72.8147
49.1201
70.568
56.1171
52.5892
48.8048
67.1984
60.7295
65.886
55.9682
48.216
62.5213
54.0114
81.0101
62.2627
53.6909
72.8495
50.2051
51.4989
55.722
64.7648
71.7383
66.4833
71.1746
71.3535
69.5904
59.2888
52.8013
71.1773
66.0811
67.0255
55.9589
46.9894
57.1143
69.2821
57.3432
48.9454
48.5008
78.4281
51.1581
63.6388
54.4824
70.1834
81.3556
55.9604
66.688
73.8625
50.3327
63.9165
61.0925
51.2633
58.1946
61.9028
56.0384
56.2074
55.4851
53.7314
66.0035
67.3348
65.1459
65.5679
61.3615
63.966
54.4581
50.286
50.2195
60.8964
51.446
69.347
60.5609
50.0859
59.6674
83.1081
56.4985
63.405
74.7653
75.959
63.0506
50.3231
54.0038
51.9376
70.4685
51.4207
58.6804
49.4848
65.1206
55.225
68.9813
59.8792
64.7792
60.2254
72.8467
48.6738
61.2895
72.3625
65.7476
68.1946
55.5611
57.3196
50.1205
62.3246
56.7535
54.364
65.5756
54.1204
62.368
74.1059
48.3985
48.7286
55.1628
48.8145
56.6814
76.9912
52.2604
68.4806
48.8141
48.4887
60.8679
52.4856
52.8235
59.1732
53.9074
68.284
71.4438
59.8587
49.8317
50.6854
66.4278
56.7155
76.9587
71.7472
49.2295
58.5597
64.0995
72.4891
49.8331
53.8884
73.7683
56.4508
73.5065
75.232
55.3741
70.1381
51.6364
68.5622
66.5906
53.7067
64.6485
71.2907
71.7526
81.5925
56.309
58.5074
65.6344
67.4547
57.1594
68.2926
57.3322
67.8729
77.9491
66.1343
72.1031
62.3347
50.2986
54.5654
61.2857
74.2635
70.0634
65.5375
72.9165
70.6458
58.5819
61.7625
64.3959
60.7946
78.1968
73.1822
52.2812
48.1561
73.6832
50.221
74.4062
74.3859
65.3085
58.8469
57.2678
59.8045
67.5981
50.1149
49.0551
58.6823
55.0736
67.6946
55.4263
64.6524
59.0294
48.9465
80.5807
59.0321
48.432
68.3757
55.7418
65.5325
51.5024
59.3129
63.6297
55.6941
49.8531
60.9916
53.6175
60.8985
70.5066
73.1768
49.7919
64.1126
60.9604
71.2578
59.1904
56.5119
70.065
55.3456
56.9503
53.6522
74.481
53.2095
54.277
81.0256
72.4963
50.3707
65.6525
61.9117
52.3787
57.373
49.151
81.2072
49.8513
53.9331
71.5327
64.4718
73.5047
62.9025
63.8805
79.7386
48.6784
70.5877
57.2397
74.9906
66.2349
69.7592
58.2829
58.3682
72.6185
57.5394
59.4341
53.9284
64.1858
68.7192
63.9247
69.6208
69.103
58.3601
67.4834
70.4059
64.9386
71.8062
73.0291
51.9932
60.9254
61.5553
67.0114
56.6602
66.6451
65.0246
54.7109
51.7515
68.5343
52.6115
69.5357
50.4991
53.3184
48.554
73.0992
50.6126
54.022
67.1115
64.1468
74.2408
64.1377
71.1246
63.0571
53.0762
70.2285
67.6109
76.5893
72.8966
55.5782
56.1431
75.6455
50.1245
61.4697
69.8907
69.9439
71.3192
64.8641
79.2752
53.771
49.7451
52.6077
49.1105
50.1458
56.8649
50.194
58.0256
78.5991
54.01
53.4021
51.7396
62.8421
73.096
75.0154
57.5377
56.155
61.6272
67.7788
68.2677
59.4577
70.909
58.1466
59.2201
56.246
51.0408
62.5853
68.5454
71.7517
76.9778
53.0637
49.4492
49.3079
60.9551
68.0886
52.4983
59.4413
66.5127
60.9973
75.3795
70.5269
57.5324
67.3399
63.5699
52.2184
49.1959
73.9275
64.982
63.5915
56.9377
72.72
50.5018
65.3442
50.5441
65.2469
55.3801
68.4827
71.7874
75.7084
51.3758
62.6982
55.2035
61.4549
72.081
57.2608
65.908
66.3642
54.0425
74.4309
50.2312
57.1355
70.7728
72.9849
65.5447
49.6105
60.5684
71.4116
66.6824
56.2477
53.9614
61.2184
58.9176
55.7896
57.4641
56.5085
75.8084
80.3537
66.0403
67.0585
61.6707
65.5389
51.1074
74.3704
68.7279
73.3141
49.3614
51.7419
59.0575
73.0982
52.7009
52.3238
61.6148
55.4256
61.8608
80.6174
57.7946
63.8318
69.1082
75.0923
69.115
73.7897
66.0667
64.5853
57.2425
66.7603
54.6879
63.1354
62.7341
52.4866
73.391
66.6258
66.7352
47.009
50.2407
59.6461
62.0314
49.7182
76.4391
57.1283
68.8777
75.5156
49.7726
56.2208
47.6441
51.3889
68.2167
50.9446
59.5199
68.5954
53.1964
64.1942
67.2316
58.402
57.4966
72.9926
65.4567
74.8816
55.2677
75.7563
72.142
56.5164
55.3913
55.8891
55.8477
69.2531
61.4674
52.6187
54.806
58.8562
57.3204
51.379
56.4241
59.4501
65.841
56.2348
65.3616
65.1485
72.3147
80.1723
62.4313
55.1344
71.9796
49.0591
73.5519
68.5757
61.2496
66.5647
69.2435
63.8238
74.2357
57.9182
59.3129
54.4506
65.1373
71.7895
48.4883
58.3777
68.8962
74.7889
63.1991
54.6779
76.3142
50.0332
74.7444
75.8573
79.0054
74.9245
72.2233
56.6892
78.4467
55.027
74.2646
49.6637
48.336
56.9272
57.8334
66.7079
57.8175
74.7662
55.9504
80.9596
64.124
53.9184
49.0344
63.1954
73.8771
59.1878
59.9468
81.3563
60.4451
57.8424
75.3372
53.0208
57.5213
60.7381
54.4561
79.6328
63.6544
72.1893
69.0888
55.4486
56.3728
55.2717
54.9634
80.5785
66.8754
53.9916