/*--------------------------------*- C++ -*----------------------------------*\
| =========                 |                                                 |
| \\      /  F ield         | OpenFOAM: The Open Source CFD Toolbox           |
|  \\    /   O peration     | Version:  2212                                  |
|   \\  /    A nd           | Website:  www.openfoam.com                      |
|    \\/     M anipulation  |                                                 |
\*---------------------------------------------------------------------------*/
FoamFile
{
    version     2.0;
    format      ascii;
    arch        "LSB;label=32;scalar=64";
    class       volScalarField;
    location    "0.002";
    object      k;
}
// * * * * * * * * * * * * * * * * * * * * * * * * * * * * * * * * * * * * * //

dimensions      [0 2 -2 0 0 0 0];

internalField   nonuniform List<scalar> 
31639
(
0.231628
0.231819
0.235806
0.242422
0.221553
0.230072
0.218028
0.229997
0.229326
0.241926
0.239233
0.239414
0.231666
0.241175
0.22863
0.215945
0.227176
0.213497
0.21107
0.234224
0.200032
0.231375
0.239374
0.213467
0.207813
0.227172
0.232563
0.213258
0.218746
0.23579
0.241547
0.215035
0.242498
0.210817
0.195899
0.238592
0.189407
0.239906
0.239775
0.18616
0.19359
0.197155
0.240206
0.236273
0.239802
0.241754
0.229048
0.214389
0.229511
0.242185
0.240348
0.185119
0.240126
0.195082
0.21251
0.228725
0.195388
0.231787
0.232971
0.186235
0.22499
0.228051
0.198078
0.232432
0.228128
0.240463
0.22545
0.231503
0.205768
0.241912
0.241704
0.221564
0.238738
0.230178
0.240712
0.196773
0.240391
0.216247
0.232357
0.235395
0.210474
0.188869
0.24388
0.236032
0.237185
0.241567
0.241832
0.242937
0.19174
0.242312
0.23574
0.215466
0.196014
0.227546
0.205216
0.229362
0.22159
0.234289
0.231093
0.199794
0.241805
0.239953
0.22895
0.191379
0.197971
0.240748
0.185253
0.188815
0.207399
0.197513
0.236122
0.200054
0.231401
0.21298
0.233305
0.191198
0.218452
0.214684
0.2405
0.231299
0.231537
0.238485
0.237455
0.22703
0.223357
0.238864
0.230802
0.209847
0.209468
0.241759
0.239965
0.236679
0.238132
0.220056
0.234649
0.236412
0.186355
0.195768
0.240354
0.233622
0.232195
0.240342
0.240838
0.190494
0.192588
0.240988
0.238432
0.196073
0.192907
0.239599
0.194323
0.233607
0.207796
0.233624
0.1954
0.240621
0.216544
0.200615
0.196916
0.207779
0.24026
0.197876
0.199392
0.193334
0.198121
0.227504
0.195742
0.240187
0.239769
0.184055
0.223826
0.230432
0.190155
0.23345
0.241666
0.236031
0.233707
0.241626
0.236108
0.233724
0.232974
0.213684
0.228758
0.192679
0.228123
0.240023
0.224016
0.238209
0.197445
0.193391
0.237654
0.230178
0.228006
0.232639
0.231763
0.211944
0.213731
0.239494
0.185336
0.214793
0.238522
0.241093
0.232679
0.235574
0.217355
0.229236
0.229066
0.230529
0.239367
0.18876
0.232119
0.216968
0.231389
0.234427
0.226772
0.240922
0.198525
0.218175
0.241522
0.239488
0.240663
0.22183
0.19071
0.236814
0.187621
0.224797
0.240284
0.210881
0.197926
0.231192
0.232829
0.240331
0.199622
0.192047
0.227196
0.225281
0.192356
0.237372
0.196254
0.185892
0.229801
0.225911
0.229372
0.214472
0.196675
0.227251
0.231834
0.224275
0.198507
0.23114
0.228355
0.198451
0.211185
0.241181
0.238458
0.21474
0.201941
0.239111
0.236346
0.213395
0.241678
0.241572
0.232703
0.239605
0.231216
0.223494
0.194949
0.21485
0.236046
0.228844
0.232651
0.211038
0.21998
0.232205
0.241115
0.232787
0.197971
0.211821
0.200419
0.239145
0.22029
0.240342
0.238518
0.212918
0.198809
0.203385
0.191517
0.195106
0.238341
0.197769
0.238191
0.230359
0.210291
0.19942
0.239083
0.215047
0.19856
0.230135
0.215791
0.204152
0.230456
0.199667
0.232594
0.231487
0.194855
0.219486
0.22852
0.185909
0.189588
0.239759
0.241449
0.239482
0.196707
0.199976
0.239185
0.199163
0.210813
0.241671
0.240588
0.230312
0.239744
0.241246
0.191999
0.241361
0.189382
0.193432
0.24045
0.23679
0.238204
0.239549
0.22671
0.201476
0.226957
0.232149
0.239207
0.240771
0.240849
0.230472
0.227018
0.232158
0.239693
0.224848
0.226559
0.220029
0.233131
0.216037
0.233987
0.226929
0.191165
0.23099
0.242722
0.211363
0.23239
0.238115
0.231425
0.19623
0.232571
0.230656
0.186938
0.241034
0.195151
0.216594
0.239759
0.188723
0.233008
0.231097
0.193157
0.220322
0.19064
0.214225
0.238363
0.227744
0.19168
0.227625
0.200504
0.229604
0.237711
0.241152
0.243802
0.201552
0.236034
0.195724
0.231063
0.193312
0.238094
0.240171
0.24057
0.240835
0.213647
0.234737
0.232702
0.234486
0.232757
0.199262
0.219574
0.22654
0.232232
0.230989
0.227325
0.228793
0.214079
0.193236
0.224278
0.233713
0.239682
0.192488
0.240028
0.238724
0.230661
0.23609
0.239939
0.216039
0.239755
0.200317
0.225363
0.239684
0.192854
0.220102
0.236884
0.193124
0.183899
0.194987
0.219707
0.196505
0.23148
0.233936
0.213713
0.238802
0.200809
0.241326
0.242778
0.232258
0.224019
0.218741
0.240372
0.231282
0.220711
0.239455
0.23573
0.188556
0.233611
0.238893
0.240637
0.229709
0.240173
0.228246
0.223571
0.23603
0.241246
0.237783
0.197787
0.232869
0.187207
0.219176
0.229102
0.194003
0.199257
0.21903
0.228339
0.236058
0.187359
0.226818
0.214996
0.230642
0.231148
0.199739
0.231979
0.193255
0.230137
0.240135
0.240984
0.236952
0.216297
0.202027
0.227998
0.231738
0.238671
0.192534
0.188766
0.230295
0.197803
0.198667
0.22796
0.193949
0.215877
0.196222
0.229109
0.200148
0.24099
0.239113
0.241063
0.237889
0.207034
0.241615
0.240921
0.227093
0.229959
0.235197
0.243723
0.238379
0.21316
0.236498
0.243213
0.232963
0.202969
0.242145
0.233443
0.186978
0.195284
0.234046
0.242866
0.241064
0.227097
0.23777
0.233217
0.23999
0.2338
0.214652
0.224982
0.201997
0.231444
0.227457
0.241133
0.198275
0.198019
0.192424
0.223981
0.228681
0.185221
0.230826
0.217246
0.225238
0.214864
0.235411
0.221936
0.194441
0.232263
0.236958
0.198195
0.22748
0.239293
0.234322
0.231738
0.212546
0.194744
0.233024
0.231108
0.199469
0.19179
0.233054
0.216957
0.225541
0.197834
0.215817
0.241357
0.231684
0.195494
0.199866
0.234099
0.242272
0.196883
0.184841
0.238585
0.192531
0.235302
0.238775
0.19594
0.23222
0.233192
0.22365
0.199544
0.242335
0.222497
0.199672
0.242566
0.232156
0.228213
0.231642
0.189605
0.208974
0.228848
0.214032
0.204674
0.224386
0.236588
0.242149
0.234605
0.228421
0.237818
0.222665
0.214199
0.237249
0.238776
0.241978
0.204453
0.234289
0.222021
0.23984
0.198715
0.188787
0.239867
0.204593
0.241331
0.23
0.195516
0.213506
0.24074
0.220041
0.234162
0.188514
0.234899
0.222648
0.192836
0.241916
0.239797
0.209974
0.195604
0.196907
0.219137
0.232331
0.230714
0.232545
0.229701
0.240546
0.233581
0.232233
0.200385
0.238531
0.195853
0.232532
0.219928
0.217362
0.243421
0.227626
0.202039
0.18426
0.196485
0.215072
0.242098
0.200925
0.240582
0.216418
0.239583
0.194782
0.229738
0.237425
0.24143
0.239503
0.238685
0.234683
0.22154
0.242522
0.240852
0.242484
0.201369
0.23656
0.196947
0.242198
0.231823
0.230051
0.200785
0.228045
0.196553
0.236627
0.22032
0.236978
0.228536
0.227356
0.19153
0.241697
0.185529
0.192895
0.194137
0.204048
0.192167
0.232855
0.192527
0.233042
0.225446
0.186883
0.240166
0.19701
0.210274
0.230321
0.210258
0.233987
0.237741
0.242693
0.23838
0.210199
0.231716
0.214171
0.216592
0.189823
0.179904
0.241465
0.232047
0.230308
0.240719
0.191197
0.241887
0.240944
0.23918
0.237608
0.237952
0.23389
0.240682
0.241836
0.233131
0.240321
0.230568
0.190357
0.240167
0.214015
0.238442
0.227809
0.232982
0.206825
0.238691
0.228069
0.232223
0.217881
0.199991
0.24281
0.222158
0.212519
0.195186
0.239238
0.183842
0.238922
0.230756
0.223432
0.234005
0.239851
0.234177
0.19523
0.230061
0.223492
0.235837
0.192736
0.236728
0.231102
0.226652
0.232848
0.223159
0.228001
0.219371
0.217784
0.185334
0.238605
0.22491
0.239789
0.198527
0.233162
0.236011
0.230786
0.211648
0.232356
0.239548
0.232474
0.180814
0.192919
0.229308
0.190792
0.205009
0.234745
0.23627
0.237795
0.180961
0.232338
0.238744
0.192203
0.187906
0.231551
0.193179
0.2224
0.203612
0.241466
0.215101
0.210637
0.239686
0.191223
0.227111
0.228589
0.238575
0.239584
0.239855
0.198506
0.238034
0.239182
0.217788
0.240451
0.238765
0.2286
0.236647
0.233127
0.239692
0.242061
0.240285
0.23796
0.219525
0.233041
0.231826
0.192483
0.228292
0.23442
0.239423
0.238531
0.229357
0.239865
0.23878
0.225797
0.229355
0.241931
0.232727
0.231457
0.196635
0.2172
0.240997
0.187471
0.221519
0.230984
0.218822
0.226489
0.241381
0.229117
0.237893
0.227138
0.227851
0.220741
0.239629
0.233206
0.215833
0.199624
0.240285
0.199059
0.229493
0.213023
0.230486
0.222856
0.243311
0.198939
0.242711
0.202914
0.234738
0.216115
0.22899
0.232836
0.238722
0.196346
0.237542
0.240459
0.234887
0.234754
0.230004
0.197105
0.242126
0.240992
0.23519
0.238736
0.240905
0.233285
0.221042
0.235442
0.191764
0.215113
0.240527
0.200516
0.199097
0.240373
0.242481
0.20761
0.215144
0.234597
0.210265
0.227033
0.197442
0.235256
0.233472
0.187358
0.225246
0.242384
0.232582
0.235025
0.230853
0.239444
0.200846
0.197442
0.243845
0.24209
0.230679
0.197442
0.226926
0.243535
0.203367
0.240878
0.235157
0.236807
0.225609
0.237878
0.234464
0.231881
0.231342
0.209919
0.193775
0.222387
0.235229
0.195108
0.239108
0.190165
0.23016
0.214806
0.189695
0.229057
0.207175
0.235957
0.224363
0.233035
0.194946
0.199025
0.212591
0.197624
0.230882
0.242277
0.23114
0.242267
0.219235
0.230986
0.242113
0.215882
0.221382
0.232555
0.231038
0.230671
0.192217
0.233722
0.236944
0.242755
0.241419
0.198943
0.192849
0.230249
0.242986
0.2016
0.227764
0.2196
0.231525
0.241464
0.213384
0.227328
0.228367
0.19648
0.24069
0.23372
0.193429
0.20915
0.232361
0.213543
0.240154
0.240106
0.226381
0.190805
0.242389
0.185891
0.232167
0.233446
0.216428
0.239182
0.194805
0.232042
0.2267
0.230939
0.197082
0.185923
0.238231
0.241891
0.213966
0.237686
0.233435
0.231479
0.20032
0.203749
0.236797
0.219205
0.232558
0.241586
0.239539
0.239278
0.240286
0.224734
0.224342
0.239717
0.201922
0.234317
0.238133
0.232516
0.235136
0.243418
0.222482
0.238938
0.230666
0.190976
0.243419
0.212261
0.241398
0.212667
0.240682
0.191393
0.237134
0.239106
0.229356
0.23592
0.195247
0.2413
0.242531
0.23584
0.190427
0.243408
0.218562
0.237939
0.239459
0.238584
0.23964
0.229624
0.21775
0.240391
0.198582
0.193317
0.192119
0.196943
0.236327
0.194044
0.241806
0.241992
0.23463
0.229021
0.219399
0.233824
0.242395
0.232795
0.224535
0.241236
0.230102
0.219589
0.23845
0.231133
0.228736
0.234985
0.214817
0.23836
0.243277
0.240501
0.240321
0.238226
0.213601
0.244632
0.224702
0.230262
0.23359
0.237125
0.243984
0.234209
0.238765
0.207049
0.231437
0.225763
0.193848
0.194624
0.231128
0.217634
0.237002
0.211328
0.180804
0.228934
0.23982
0.207149
0.21324
0.233063
0.241475
0.239308
0.230167
0.19961
0.232359
0.230393
0.212737
0.231763
0.233109
0.192705
0.215496
0.211535
0.228968
0.239627
0.230179
0.233927
0.235811
0.23216
0.225678
0.199032
0.199689
0.193889
0.233112
0.233201
0.242371
0.24378
0.230421
0.187717
0.236471
0.219787
0.228326
0.229153
0.24063
0.183985
0.242676
0.186848
0.231975
0.226571
0.220277
0.238433
0.230252
0.236597
0.195176
0.233555
0.225668
0.22671
0.205739
0.20464
0.237563
0.240171
0.226829
0.238617
0.24214
0.198899
0.21605
0.2182
0.19661
0.233563
0.240245
0.240596
0.238817
0.240786
0.198932
0.201314
0.195768
0.243095
0.201535
0.237834
0.223935
0.193026
0.21744
0.239565
0.23965
0.212772
0.216731
0.229426
0.232337
0.242034
0.223237
0.194128
0.235262
0.237463
0.234975
0.235338
0.239637
0.243613
0.240475
0.232753
0.199433
0.201009
0.230839
0.205717
0.241129
0.193153
0.235399
0.216791
0.240266
0.202647
0.229539
0.241382
0.234737
0.216435
0.200112
0.236491
0.219017
0.234806
0.224035
0.243851
0.241361
0.235758
0.202991
0.189585
0.231276
0.223614
0.212053
0.239211
0.19985
0.239266
0.235341
0.215967
0.237985
0.242613
0.239109
0.240981
0.242635
0.233963
0.22656
0.194627
0.206965
0.239583
0.198206
0.228915
0.231187
0.202577
0.230205
0.23657
0.232242
0.236685
0.241339
0.195303
0.233517
0.234959
0.196482
0.219833
0.231702
0.216862
0.230628
0.192616
0.190788
0.232058
0.213483
0.240548
0.243219
0.238801
0.225959
0.228099
0.233445
0.227626
0.232836
0.2013
0.23382
0.21558
0.241708
0.229045
0.216151
0.220935
0.241048
0.195737
0.234147
0.240415
0.230337
0.179778
0.223398
0.201101
0.228532
0.190978
0.242218
0.238992
0.240409
0.236318
0.196635
0.194806
0.240535
0.241375
0.235882
0.23038
0.22484
0.239211
0.24267
0.24031
0.193787
0.220815
0.233786
0.239626
0.219687
0.235034
0.195764
0.240651
0.238865
0.223604
0.23515
0.230176
0.23404
0.242079
0.237272
0.200512
0.230619
0.236141
0.231154
0.22506
0.227175
0.195464
0.202834
0.240259
0.239008
0.240056
0.239872
0.238899
0.237658
0.22587
0.233471
0.238743
0.240595
0.217599
0.215899
0.229588
0.233911
0.240616
0.192358
0.22382
0.185436
0.240559
0.186228
0.195001
0.228607
0.180354
0.217811
0.229861
0.241654
0.23863
0.209786
0.22824
0.239752
0.204246
0.203032
0.220559
0.208295
0.240887
0.235758
0.221977
0.188601
0.232946
0.241835
0.239876
0.188803
0.202615
0.23072
0.239773
0.23516
0.200076
0.19839
0.228439
0.219398
0.242328
0.232438
0.194122
0.228199
0.238345
0.201657
0.189662
0.240143
0.198648
0.203956
0.242453
0.23553
0.240312
0.243376
0.231935
0.219123
0.24122
0.21421
0.236402
0.208647
0.23211
0.236391
0.231841
0.194977
0.238022
0.238761
0.214507
0.233738
0.215835
0.201027
0.227472
0.22541
0.229098
0.240857
0.212618
0.240373
0.191472
0.239029
0.241193
0.194511
0.234766
0.234123
0.184904
0.199773
0.233481
0.230652
0.240925
0.211219
0.197213
0.239854
0.240242
0.239896
0.227555
0.239332
0.190907
0.241939
0.233443
0.194246
0.197591
0.181325
0.190212
0.241611
0.213017
0.23665
0.232265
0.209677
0.206017
0.186148
0.181991
0.242312
0.240471
0.201722
0.238546
0.230042
0.193952
0.230589
0.221395
0.201719
0.218488
0.24062
0.202336
0.194995
0.237031
0.241941
0.210986
0.238646
0.223652
0.20361
0.191626
0.220591
0.19931
0.195655
0.234859
0.233837
0.214597
0.230183
0.239399
0.231056
0.240382
0.19397
0.219569
0.194486
0.23349
0.238431
0.232169
0.214334
0.233289
0.198007
0.236817
0.232336
0.209586
0.202429
0.189867
0.191049
0.212762
0.188748
0.217118
0.194243
0.218871
0.236903
0.229318
0.218824
0.235867
0.230993
0.232314
0.236311
0.192581
0.222201
0.238964
0.242103
0.231364
0.240683
0.198883
0.237196
0.231001
0.194992
0.229781
0.240877
0.227599
0.238575
0.240069
0.226271
0.184251
0.186864
0.230968
0.241148
0.22715
0.23831
0.211754
0.217027
0.201827
0.192928
0.188722
0.194921
0.235982
0.235217
0.242277
0.225745
0.217231
0.240634
0.195414
0.233855
0.236374
0.240538
0.228911
0.229157
0.240634
0.242056
0.237898
0.212995
0.216518
0.238615
0.228092
0.234445
0.241228
0.237623
0.241454
0.231829
0.206744
0.230729
0.235211
0.231447
0.234731
0.196354
0.239688
0.24015
0.240178
0.240612
0.195616
0.192613
0.230218
0.231757
0.220822
0.234263
0.238962
0.237517
0.23836
0.214862
0.230511
0.23054
0.236796
0.190485
0.195544
0.225559
0.23031
0.199378
0.241628
0.198607
0.208297
0.234115
0.233628
0.218509
0.239015
0.230306
0.237797
0.229564
0.232542
0.233495
0.211153
0.188269
0.241146
0.192115
0.192774
0.214622
0.193692
0.190426
0.212361
0.234821
0.185808
0.214734
0.18564
0.195882
0.229662
0.241397
0.184228
0.196903
0.239071
0.19206
0.218462
0.232285
0.223583
0.234684
0.201948
0.194521
0.21524
0.239642
0.196443
0.19702
0.223413
0.212699
0.234236
0.231858
0.196977
0.237236
0.193884
0.200792
0.222481
0.235913
0.217028
0.219411
0.220077
0.234371
0.190103
0.199983
0.231155
0.239991
0.233959
0.195993
0.187232
0.220168
0.242387
0.232476
0.229439
0.216378
0.227792
0.233218
0.189944
0.241981
0.208357
0.199043
0.193431
0.240586
0.230841
0.240748
0.225433
0.240274
0.191024
0.219241
0.191835
0.191795
0.228375
0.195097
0.217894
0.233579
0.235754
0.194378
0.242996
0.240698
0.242011
0.22611
0.185551
0.233587
0.186244
0.23937
0.198638
0.239559
0.188465
0.236411
0.22711
0.215421
0.216324
0.185608
0.205732
0.232338
0.238537
0.229159
0.241143
0.240444
0.193531
0.240901
0.225389
0.235952
0.23409
0.241549
0.233164
0.232359
0.239843
0.213502
0.205143
0.202736
0.233171
0.239317
0.203735
0.202519
0.238527
0.231623
0.231115
0.242064
0.236518
0.227116
0.232501
0.239113
0.236746
0.228297
0.229544
0.240297
0.236502
0.215191
0.229497
0.210605
0.244643
0.235274
0.239268
0.197381
0.197841
0.228983
0.240103
0.236235
0.239214
0.241929
0.227525
0.229444
0.198231
0.220039
0.235129
0.236797
0.2422
0.242374
0.217231
0.240737
0.201521
0.237536
0.213407
0.232468
0.214069
0.234107
0.226224
0.238958
0.197729
0.242609
0.241053
0.215698
0.193139
0.24338
0.228252
0.238588
0.233141
0.235434
0.229294
0.187698
0.241226
0.218629
0.234444
0.205167
0.207531
0.196821
0.187565
0.21117
0.241732
0.232224
0.194234
0.229319
0.193067
0.223557
0.236113
0.184802
0.194497
0.210428
0.223621
0.233499
0.212831
0.239045
0.215375
0.216073
0.210625
0.240943
0.241262
0.239809
0.237695
0.235492
0.187941
0.192715
0.240198
0.220419
0.219342
0.239517
0.242781
0.233008
0.233954
0.18809
0.238883
0.24194
0.217415
0.240223
0.239947
0.232045
0.229688
0.230455
0.217296
0.198192
0.235775
0.194196
0.192575
0.218879
0.232902
0.232107
0.229792
0.23345
0.232595
0.190549
0.214383
0.237465
0.242332
0.197505
0.219902
0.194124
0.225619
0.241763
0.216601
0.229166
0.236674
0.222102
0.196647
0.238943
0.193079
0.238613
0.238011
0.237253
0.239899
0.233903
0.241202
0.191334
0.239112
0.242088
0.198664
0.237284
0.233188
0.215822
0.240448
0.22344
0.239601
0.242075
0.239652
0.234329
0.239868
0.234234
0.231759
0.195903
0.225534
0.194937
0.195914
0.224124
0.236215
0.232637
0.241637
0.231038
0.240649
0.188506
0.239346
0.243389
0.236976
0.237017
0.198747
0.189986
0.229965
0.19105
0.238192
0.233933
0.188617
0.217853
0.239611
0.229786
0.183714
0.2068
0.18571
0.240004
0.203318
0.236962
0.221421
0.188172
0.234563
0.239611
0.242696
0.239031
0.196221
0.228922
0.240377
0.192387
0.241599
0.232258
0.235256
0.198162
0.236964
0.21605
0.231665
0.217606
0.229184
0.213111
0.215019
0.220409
0.215816
0.238953
0.230822
0.241145
0.205035
0.231867
0.232797
0.240856
0.234297
0.199542
0.238592
0.198221
0.226204
0.242723
0.241189
0.222219
0.22021
0.235536
0.213806
0.231008
0.220781
0.198345
0.192648
0.236495
0.241954
0.226931
0.217123
0.242363
0.194133
0.233248
0.199053
0.225055
0.24262
0.231483
0.191283
0.240145
0.194895
0.233914
0.230668
0.194652
0.237437
0.193103
0.210577
0.218388
0.189176
0.20624
0.226487
0.185792
0.237337
0.241771
0.193944
0.208457
0.241024
0.230672
0.235471
0.239278
0.237626
0.232719
0.205021
0.18674
0.187566
0.213494
0.240563
0.237641
0.230147
0.235718
0.196195
0.199121
0.23175
0.23796
0.185881
0.232645
0.232863
0.222467
0.238272
0.226469
0.242142
0.204067
0.217193
0.239867
0.185034
0.231533
0.242205
0.240785
0.230274
0.238595
0.23328
0.194281
0.24086
0.239567
0.231864
0.234442
0.228103
0.232032
0.232467
0.228981
0.235939
0.233311
0.227337
0.199038
0.215389
0.243199
0.233708
0.242717
0.232528
0.224841
0.238722
0.196009
0.238264
0.189378
0.239905
0.231613
0.215597
0.238097
0.215814
0.218811
0.242325
0.213682
0.239199
0.238621
0.237292
0.203345
0.233689
0.230315
0.198843
0.240268
0.230759
0.231765
0.242315
0.192785
0.236508
0.230145
0.237216
0.219439
0.234872
0.19428
0.201031
0.244445
0.195611
0.235294
0.240246
0.196457
0.216536
0.242093
0.205442
0.201603
0.206256
0.211075
0.21772
0.244251
0.216861
0.240874
0.232071
0.239391
0.194467
0.214953
0.23673
0.232785
0.196694
0.195134
0.216613
0.207029
0.19038
0.232898
0.230296
0.241428
0.229751
0.241632
0.236068
0.231531
0.239591
0.229294
0.207807
0.226185
0.237107
0.231009
0.226171
0.239629
0.230511
0.197271
0.187044
0.218903
0.212548
0.228347
0.240044
0.2244
0.234732
0.240578
0.237796
0.240807
0.222738
0.195951
0.227517
0.215356
0.241452
0.225952
0.23651
0.237054
0.215019
0.216864
0.236721
0.240016
0.234834
0.242777
0.230616
0.22163
0.223755
0.201507
0.218948
0.240644
0.203416
0.240557
0.227267
0.240175
0.20426
0.240976
0.235454
0.240497
0.231081
0.223354
0.232017
0.239667
0.196156
0.190365
0.231844
0.213733
0.224138
0.234257
0.234009
0.242336
0.229637
0.195166
0.205001
0.189277
0.224612
0.233754
0.199166
0.239409
0.232817
0.215495
0.229319
0.2019
0.20099
0.243186
0.198296
0.183234
0.219815
0.216904
0.205041
0.205601
0.242053
0.238147
0.206395
0.235991
0.240724
0.233496
0.237025
0.194422
0.241421
0.171711
0.238896
0.198637
0.187644
0.238443
0.185915
0.219381
0.226607
0.240599
0.214273
0.232538
0.214128
0.232626
0.229172
0.229597
0.219416
0.23815
0.23109
0.1996
0.238078
0.228979
0.218528
0.227465
0.19739
0.22242
0.196364
0.194554
0.232225
0.209687
0.191528
0.213918
0.233741
0.239493
0.233965
0.178339
0.201517
0.243614
0.195303
0.233486
0.194659
0.239278
0.238565
0.242158
0.188146
0.220682
0.240927
0.240496
0.228572
0.243504
0.230627
0.228243
0.230834
0.196381
0.228855
0.218108
0.233213
0.232858
0.214546
0.229425
0.24047
0.207374
0.202973
0.190812
0.236028
0.236161
0.191543
0.233087
0.232123
0.230487
0.198286
0.234398
0.214405
0.234331
0.20588
0.214698
0.231592
0.188264
0.239988
0.196822
0.201211
0.229119
0.240539
0.186755
0.234108
0.237487
0.231263
0.191232
0.241166
0.240601
0.189603
0.232512
0.18574
0.201681
0.241011
0.220759
0.227913
0.240525
0.240497
0.228194
0.209789
0.23037
0.217814
0.216477
0.216144
0.239116
0.194526
0.227085
0.220724
0.219107
0.237363
0.230828
0.237446
0.229184
0.2326
0.24021
0.22998
0.216323
0.2156
0.237186
0.227276
0.228029
0.235813
0.238936
0.230358
0.242411
0.229698
0.236712
0.212078
0.192092
0.232661
0.237881
0.201838
0.231375
0.229607
0.182632
0.19672
0.239645
0.197301
0.226585
0.240568
0.230128
0.190602
0.23152
0.235828
0.196955
0.203805
0.190744
0.238003
0.233985
0.232041
0.244177
0.192977
0.234365
0.230709
0.240823
0.240697
0.180162
0.231831
0.233395
0.23743
0.227866
0.227754
0.217191
0.234308
0.240979
0.204961
0.191888
0.215216
0.236855
0.23525
0.196889
0.215613
0.237994
0.240684
0.230719
0.215328
0.185786
0.189354
0.193135
0.232056
0.229559
0.219366
0.237507
0.240442
0.206167
0.240498
0.238163
0.235239
0.212833
0.23877
0.224572
0.195407
0.206291
0.23082
0.233182
0.22765
0.227312
0.220536
0.23771
0.19499
0.195728
0.230935
0.239559
0.235855
0.216759
0.21654
0.237113
0.242335
0.228585
0.212497
0.23772
0.238684
0.229623
0.24032
0.239776
0.236194
0.191447
0.217738
0.194604
0.229293
0.240076
0.216192
0.196973
0.240412
0.199525
0.217034
0.199019
0.218596
0.197408
0.237225
0.232633
0.230026
0.224708
0.20472
0.242618
0.190213
0.230061
0.223586
0.230887
0.192221
0.239663
0.238299
0.193573
0.198953
0.220176
0.216597
0.228785
0.199621
0.235587
0.214604
0.232728
0.212199
0.21638
0.216856
0.201503
0.236949
0.216454
0.149688
0.19841
0.219738
0.241886
0.238213
0.201935
0.213308
0.235705
0.19649
0.238683
0.239517
0.229795
0.204694
0.236921
0.1927
0.200297
0.194087
0.236565
0.229932
0.209442
0.238447
0.226963
0.232721
0.190543
0.183068
0.239324
0.229789
0.239105
0.240033
0.196203
0.233506
0.221863
0.22885
0.232622
0.212567
0.209861
0.243292
0.234681
0.213937
0.193288
0.230615
0.232057
0.233454
0.216925
0.194112
0.201553
0.227161
0.229832
0.226643
0.241929
0.214798
0.236644
0.218194
0.22894
0.191238
0.240713
0.227475
0.221898
0.241867
0.232272
0.19329
0.223071
0.190649
0.240486
0.224741
0.232069
0.231431
0.231267
0.232566
0.241494
0.229519
0.14173
0.192046
0.238604
0.161898
0.21784
0.238556
0.234107
0.239327
0.22383
0.19974
0.20013
0.241465
0.19986
0.237773
0.199893
0.183878
0.238478
0.195487
0.238601
0.152571
0.197889
0.231708
0.239238
0.241298
0.228229
0.239674
0.236344
0.236678
0.237295
0.238463
0.229468
0.230075
0.190025
0.23874
0.231712
0.226797
0.240816
0.23444
0.239984
0.210108
0.24009
0.237427
0.205742
0.199061
0.195639
0.237398
0.22906
0.239885
0.238562
0.23774
0.233121
0.187837
0.230293
0.218163
0.211541
0.23495
0.195311
0.194868
0.22512
0.24233
0.23561
0.232136
0.188826
0.227866
0.22142
0.196671
0.241643
0.230674
0.170707
0.187362
0.195062
0.192805
0.240079
0.237323
0.239345
0.200839
0.195278
0.238868
0.240777
0.190566
0.237942
0.210301
0.243471
0.231756
0.235905
0.238048
0.234265
0.233193
0.233523
0.217381
0.201857
0.197877
0.236071
0.21808
0.202593
0.236544
0.235064
0.194463
0.216146
0.194357
0.239457
0.229091
0.228844
0.189665
0.241601
0.238297
0.218943
0.237112
0.228435
0.2322
0.239955
0.224421
0.232703
0.241771
0.233056
0.193472
0.197272
0.239146
0.22728
0.199438
0.214129
0.238331
0.243411
0.238676
0.239003
0.236136
0.234761
0.234791
0.230937
0.225998
0.236666
0.214831
0.22292
0.234389
0.215232
0.204518
0.19936
0.234848
0.242847
0.195099
0.230707
0.238311
0.204549
0.240347
0.187562
0.197878
0.192356
0.243064
0.197927
0.190156
0.192725
0.222438
0.235345
0.206878
0.216361
0.223058
0.230017
0.18839
0.231584
0.205844
0.199549
0.239876
0.2034
0.189477
0.239208
0.234546
0.212742
0.195957
0.229518
0.210959
0.193154
0.241165
0.231913
0.238541
0.223521
0.199058
0.192998
0.231224
0.218372
0.239972
0.220263
0.23982
0.216007
0.228932
0.230343
0.23878
0.194395
0.213127
0.213932
0.240385
0.200926
0.232131
0.176437
0.194966
0.233396
0.214784
0.235604
0.191812
0.232795
0.232296
0.227117
0.201603
0.236358
0.242853
0.226587
0.235083
0.23192
0.235741
0.20095
0.191765
0.234857
0.19735
0.184336
0.185512
0.225116
0.20925
0.188824
0.237465
0.227638
0.193211
0.23142
0.24179
0.237176
0.196386
0.23826
0.239442
0.195216
0.223392
0.22843
0.212616
0.229792
0.230873
0.238473
0.191664
0.192905
0.231689
0.199153
0.206834
0.18574
0.194455
0.229185
0.20407
0.239343
0.230583
0.237621
0.201656
0.240597
0.227553
0.225664
0.203687
0.149461
0.239796
0.208318
0.22236
0.234357
0.238161
0.18944
0.2319
0.242313
0.200504
0.224984
0.220315
0.193555
0.204887
0.226677
0.211683
0.225358
0.240124
0.235693
0.240305
0.227678
0.223857
0.221095
0.206343
0.21307
0.234689
0.198853
0.22957
0.214289
0.187692
0.209771
0.239097
0.195245
0.156644
0.215456
0.234383
0.240734
0.234315
0.149484
0.197161
0.240524
0.235853
0.239183
0.232359
0.196994
0.241877
0.195118
0.238452
0.213234
0.218757
0.229322
0.239207
0.191657
0.224402
0.186706
0.226884
0.238747
0.242744
0.238729
0.20496
0.187658
0.231715
0.195911
0.219243
0.186196
0.220822
0.231477
0.239708
0.210912
0.23984
0.204246
0.243239
0.215854
0.241739
0.237918
0.232136
0.216813
0.201279
0.214052
0.243914
0.218367
0.230902
0.236919
0.211316
0.22588
0.236521
0.222473
0.229877
0.212237
0.217211
0.234822
0.238117
0.190287
0.241289
0.196402
0.234097
0.238969
0.193874
0.231614
0.239416
0.224873
0.218715
0.221006
0.219133
0.186839
0.23336
0.187815
0.228163
0.165345
0.237474
0.213307
0.222518
0.225365
0.193464
0.213541
0.240312
0.232434
0.227146
0.2409
0.208395
0.237285
0.197381
0.2288
0.216722
0.234674
0.230469
0.233416
0.188239
0.18314
0.240299
0.238662
0.238799
0.191277
0.242969
0.242488
0.233661
0.239043
0.226244
0.198236
0.234761
0.220325
0.224616
0.238553
0.230377
0.209194
0.237316
0.231767
0.233098
0.218576
0.197757
0.196525
0.191323
0.239908
0.237055
0.216076
0.238647
0.237456
0.193804
0.241742
0.19713
0.201009
0.205141
0.210514
0.238708
0.234048
0.185189
0.238935
0.19088
0.234019
0.23177
0.235638
0.239983
0.237193
0.237486
0.214132
0.227526
0.228044
0.239548
0.190832
0.213103
0.234454
0.203558
0.209959
0.18484
0.225018
0.232367
0.214512
0.181561
0.179948
0.180273
0.217965
0.219588
0.226246
0.232428
0.23265
0.18709
0.219887
0.213549
0.2195
0.191709
0.224916
0.19578
0.176616
0.217679
0.21275
0.220695
0.201784
0.214133
0.218825
0.208703
0.238824
0.187679
0.235781
0.225907
0.230721
0.228527
0.190733
0.223522
0.231735
0.20709
0.223139
0.23534
0.238651
0.229561
0.216001
0.231682
0.23597
0.230616
0.234159
0.19696
0.240129
0.242357
0.238552
0.23526
0.238616
0.236847
0.181213
0.196252
0.238503
0.217831
0.222245
0.238929
0.210908
0.213004
0.188946
0.237402
0.220059
0.235784
0.239843
0.183725
0.2364
0.202352
0.240214
0.233127
0.239942
0.242383
0.190213
0.23879
0.238782
0.233791
0.182588
0.222739
0.218805
0.181366
0.235694
0.187931
0.228842
0.239646
0.217559
0.233289
0.192988
0.190864
0.238649
0.23357
0.222941
0.22644
0.225153
0.230957
0.239177
0.24111
0.217956
0.149392
0.224137
0.188737
0.217464
0.218417
0.238879
0.237453
0.210964
0.233417
0.206566
0.190357
0.229047
0.206451
0.240046
0.230439
0.191425
0.185423
0.221342
0.237295
0.232476
0.239925
0.231944
0.176385
0.185906
0.20051
0.209066
0.239168
0.190879
0.238232
0.231124
0.192607
0.190667
0.186671
0.232975
0.197652
0.231812
0.199715
0.220584
0.236961
0.238054
0.196591
0.191611
0.22724
0.226026
0.204426
0.203966
0.215335
0.19112
0.213707
0.191189
0.228129
0.229489
0.18658
0.237393
0.185167
0.213277
0.204725
0.207028
0.200146
0.230875
0.227096
0.229297
0.237032
0.204202
0.185213
0.230408
0.239998
0.19131
0.238464
0.235089
0.234683
0.204451
0.220745
0.236556
0.210816
0.22355
0.222972
0.230426
0.225474
0.206192
0.199469
0.240233
0.185497
0.17672
0.17179
0.224904
0.236984
0.21176
0.188418
0.231927
0.181243
0.234088
0.222409
0.205902
0.222883
0.226991
0.242892
0.184484
0.230053
0.239251
0.188509
0.178792
0.218392
0.221218
0.1956
0.225744
0.21459
0.222438
0.226729
0.23711
0.203393
0.218189
0.232564
0.227433
0.230707
0.230027
0.218669
0.225042
0.204681
0.234068
0.21533
0.231794
0.178329
0.216604
0.170198
0.1999
0.236488
0.225678
0.20052
0.208699
0.228507
0.184323
0.206031
0.238805
0.190495
0.209222
0.225735
0.207429
0.220983
0.19363
0.226199
0.197955
0.171899
0.224932
0.205108
0.189599
0.237971
0.185923
0.227132
0.234259
0.238731
0.191881
0.215989
0.197568
0.227556
0.241635
0.211448
0.227438
0.157726
0.212779
0.22634
0.191123
0.234632
0.230096
0.220053
0.203446
0.1855
0.204134
0.181195
0.180467
0.193512
0.219212
0.231591
0.186729
0.211319
0.203313
0.217664
0.23786
0.222982
0.199243
0.225547
0.238489
0.240274
0.148881
0.236814
0.214516
0.229387
0.187745
0.164182
0.228091
0.206815
0.180374
0.23388
0.206746
0.216801
0.230646
0.214424
0.20971
0.223815
0.217914
0.218898
0.23256
0.208101
0.205024
0.208926
0.197548
0.209227
0.208605
0.229089
0.234126
0.237906
0.211423
0.236822
0.179668
0.207987
0.235043
0.215218
0.149395
0.223877
0.211852
0.182683
0.17536
0.210654
0.235292
0.229123
0.230224
0.186264
0.235423
0.21533
0.237818
0.203393
0.22049
0.196283
0.212011
0.209671
0.216615
0.186135
0.240372
0.221299
0.190551
0.210731
0.190699
0.219638
0.224441
0.236493
0.205523
0.216624
0.222923
0.20011
0.229667
0.214798
0.181787
0.240217
0.241469
0.220603
0.238293
0.222068
0.171144
0.234069
0.199672
0.239417
0.240317
0.217301
0.231947
0.229819
0.219627
0.230741
0.195236
0.185461
0.210847
0.238438
0.235919
0.204286