/*--------------------------------*- C++ -*----------------------------------*\
| =========                 |                                                 |
| \\      /  F ield         | OpenFOAM: The Open Source CFD Toolbox           |
|  \\    /   O peration     | Version:  2212                                  |
|   \\  /    A nd           | Website:  www.openfoam.com                      |
|    \\/     M anipulation  |                                                 |
\*---------------------------------------------------------------------------*/
FoamFile
{
    version     2.0;
    format      ascii;
    arch        "LSB;label=32;scalar=64";
    class       volScalarField;
    location    "0.002";
    object      nut;
}
// * * * * * * * * * * * * * * * * * * * * * * * * * * * * * * * * * * * * * //

dimensions      [0 2 -1 0 0 0 0];

internalField   nonuniform List<scalar> 
31639
(
8.83157e-05
8.93885e-05
9.76521e-05
0.000111213
7.22271e-05
8.66175e-05
6.56337e-05
8.74067e-05
8.58693e-05
0.000108056
0.000103394
0.000103074
9.21612e-05
0.000108178
8.61419e-05
6.37422e-05
8.30691e-05
6.60566e-05
6.11924e-05
9.38162e-05
4.81959e-05
8.88712e-05
0.000107534
6.33163e-05
5.93482e-05
8.30353e-05
9.35113e-05
6.83844e-05
6.84459e-05
0.000106486
0.000107966
6.69285e-05
0.000110764
6.24471e-05
4.97472e-05
0.000104165
4.46779e-05
0.000107061
0.000105021
4.19388e-05
4.93101e-05
4.9632e-05
0.000104924
9.80523e-05
0.000104848
0.000108872
8.32803e-05
6.57814e-05
8.52784e-05
0.000110152
0.000105295
4.14857e-05
0.000106583
4.73012e-05
6.40676e-05
8.47584e-05
4.75716e-05
9.06557e-05
9.15857e-05
4.40335e-05
7.854e-05
8.54036e-05
5.20412e-05
8.98437e-05
8.46047e-05
0.000107052
8.04008e-05
9.16444e-05
5.50928e-05
0.00011009
0.000109936
7.57102e-05
0.000102284
8.9518e-05
0.000106749
4.87263e-05
0.000107037
6.89401e-05
8.95663e-05
9.38795e-05
6.14661e-05
4.41349e-05
0.000112892
9.64965e-05
9.84908e-05
0.000107826
0.000109929
0.000110689
4.59218e-05
0.000111015
9.63724e-05
6.86192e-05
4.90551e-05
8.70761e-05
5.58459e-05
8.51106e-05
7.4466e-05
9.3249e-05
9.13864e-05
5.16792e-05
0.000110911
0.000104539
8.78346e-05
4.4947e-05
4.92583e-05
0.000107486
4.3593e-05
4.32843e-05
5.62301e-05
4.88214e-05
9.86537e-05
5.04902e-05
8.93978e-05
6.29408e-05
9.26891e-05
4.53661e-05
6.50801e-05
6.21066e-05
0.000106914
8.9328e-05
8.86715e-05
0.000101561
0.000100334
8.20887e-05
7.45974e-05
0.000105937
8.83347e-05
6.07511e-05
5.82965e-05
0.000107843
0.000105498
0.000100699
0.000102704
6.77541e-05
9.29238e-05
9.67454e-05
4.41786e-05
4.74603e-05
0.000105174
9.23257e-05
9.01466e-05
0.000105544
0.000106241
4.43123e-05
4.46911e-05
0.000109449
0.000102382
4.80051e-05
4.78457e-05
0.000104818
4.9497e-05
9.24061e-05
5.95373e-05
9.23482e-05
4.759e-05
0.00010723
6.82975e-05
5.28769e-05
5.01641e-05
5.95191e-05
0.000105933
4.95171e-05
5.09363e-05
4.75607e-05
4.96385e-05
8.39187e-05
4.92352e-05
0.00010751
0.00010439
4.32857e-05
7.51744e-05
8.77958e-05
4.6911e-05
9.4924e-05
0.000109471
9.76095e-05
9.42956e-05
0.000109269
9.68614e-05
9.35979e-05
9.20681e-05
6.69233e-05
8.58169e-05
4.35303e-05
8.04211e-05
0.000106599
8.0654e-05
0.000103504
4.94704e-05
4.61889e-05
0.000100934
8.9214e-05
8.46757e-05
9.16865e-05
9.06116e-05
6.28714e-05
6.49867e-05
0.000103821
4.31805e-05
6.62772e-05
0.000103588
0.000108451
9.33901e-05
9.84801e-05
7.10926e-05
8.87441e-05
8.61574e-05
8.89733e-05
0.000103756
4.29744e-05
8.99211e-05
6.59944e-05
9.13351e-05
9.45778e-05
8.0887e-05
0.000108319
5.1028e-05
6.43762e-05
0.00010681
0.000103939
0.000105585
6.83002e-05
4.49215e-05
9.74741e-05
4.5778e-05
7.39768e-05
0.000104779
6.08579e-05
4.92535e-05
8.85224e-05
8.86903e-05
0.000106099
5.03223e-05
4.611e-05
8.43384e-05
8.08293e-05
4.64731e-05
0.000102195
5.07543e-05
4.30181e-05
8.91586e-05
8.14214e-05
8.59452e-05
6.41026e-05
5.08721e-05
8.41065e-05
8.94002e-05
8.06004e-05
4.92577e-05
8.83625e-05
8.54262e-05
5.05126e-05
6.19451e-05
0.000109093
0.000101869
6.43966e-05
5.20351e-05
0.000103062
9.77737e-05
6.25199e-05
0.000110494
0.000108767
9.03046e-05
0.000105818
8.72809e-05
7.52177e-05
4.70821e-05
6.27999e-05
9.93863e-05
8.68252e-05
8.9413e-05
6.25052e-05
7.19353e-05
8.95214e-05
0.000108574
9.23808e-05
4.89999e-05
6.30942e-05
5.24774e-05
0.000104121
7.19454e-05
0.000105709
0.000103625
6.27359e-05
5.00321e-05
5.4191e-05
4.70106e-05
4.70161e-05
0.000102764
5.04469e-05
0.000102319
8.81526e-05
6.1912e-05
5.25306e-05
0.000105463
6.60275e-05
5.24588e-05
8.7684e-05
6.55301e-05
5.21133e-05
8.63761e-05
5.09412e-05
9.10292e-05
8.94646e-05
4.86161e-05
7.13102e-05
8.8083e-05
4.16009e-05
4.41373e-05
0.000104733
0.000109427
0.000104593
4.90312e-05
5.10892e-05
0.000102784
5.27235e-05
5.94551e-05
0.000109645
0.000106657
8.73131e-05
0.000106313
0.000109183
4.75663e-05
0.000109282
4.3288e-05
4.63829e-05
0.000106277
9.93374e-05
0.000101946
0.000105049
8.29384e-05
5.31367e-05
8.40905e-05
8.99913e-05
0.000103951
0.000107096
0.000107858
8.75056e-05
8.06624e-05
9.26772e-05
0.000102899
8.15195e-05
7.98828e-05
7.28344e-05
9.09747e-05
6.72576e-05
9.25979e-05
8.2649e-05
4.69974e-05
8.78167e-05
0.000112571
6.26386e-05
9.17216e-05
0.000103968
8.92058e-05
4.86903e-05
9.09065e-05
8.73454e-05
4.44458e-05
0.000107894
4.80373e-05
6.85094e-05
0.000104893
4.37676e-05
9.19099e-05
8.89605e-05
4.74074e-05
7.4362e-05
4.68337e-05
6.67313e-05
0.000104228
8.29643e-05
4.57413e-05
8.38369e-05
5.16312e-05
8.59151e-05
0.000100855
0.000108071
0.000112044
5.24336e-05
9.79699e-05
4.84596e-05
8.79813e-05
4.48066e-05
0.000102283
0.000105461
0.00010638
0.000107131
6.14436e-05
9.37633e-05
9.06016e-05
9.57071e-05
9.05564e-05
5.08139e-05
7.37858e-05
8.35321e-05
9.25444e-05
8.96948e-05
8.26907e-05
8.37987e-05
6.86359e-05
4.71362e-05
7.59253e-05
9.28495e-05
0.000104229
4.39722e-05
0.000104832
0.000102586
8.68725e-05
9.80424e-05
0.000104208
6.71133e-05
0.000105909
5.1123e-05
8.14097e-05
0.000105506
4.58848e-05
7.44788e-05
9.8538e-05
4.83689e-05
4.25981e-05
4.82704e-05
6.89802e-05
4.86911e-05
9.21785e-05
9.3709e-05
6.28739e-05
0.000103142
5.10612e-05
0.000107333
0.000111741
9.10159e-05
8.14073e-05
7.06115e-05
0.000105555
9.04519e-05
7.06585e-05
0.000105965
9.5066e-05
4.53721e-05
9.20533e-05
0.000103572
0.000106105
8.6536e-05
0.000105877
8.37816e-05
7.92806e-05
9.62372e-05
0.000109355
0.000102272
4.96841e-05
9.10426e-05
4.2259e-05
6.91554e-05
8.66647e-05
4.78849e-05
4.7801e-05
7.09991e-05
8.60085e-05
9.6524e-05
4.43169e-05
8.43688e-05
6.2922e-05
8.91862e-05
8.8295e-05
5.58982e-05
8.93108e-05
4.65392e-05
8.74973e-05
0.000105453
0.000108738
9.96966e-05
6.8915e-05
5.00637e-05
8.40282e-05
9.10805e-05
0.0001036
4.62346e-05
4.52287e-05
8.69751e-05
4.98963e-05
5.10495e-05
8.32243e-05
4.69183e-05
6.67565e-05
4.97829e-05
8.47323e-05
5.04699e-05
0.000108066
0.000103378
0.000107097
0.000102233
5.46004e-05
0.000107412
0.000107347
8.08121e-05
8.61285e-05
9.44988e-05
0.000111735
0.000104239
6.48987e-05
0.00010069
0.000111795
9.01296e-05
5.48844e-05
0.000110825
9.218e-05
4.14261e-05
4.62785e-05
9.31708e-05
0.000109989
0.000108229
8.35233e-05
0.000108755
9.44816e-05
0.000104618
9.37278e-05
6.56307e-05
8.07607e-05
5.25984e-05
8.80736e-05
8.30968e-05
0.000108617
5.18507e-05
5.07817e-05
4.78949e-05
7.7041e-05
8.77305e-05
4.10992e-05
8.88148e-05
6.54324e-05
8.11111e-05
6.8709e-05
9.82523e-05
7.45512e-05
4.79434e-05
9.36376e-05
0.000101173
5.09398e-05
8.50389e-05
0.00010437
9.44779e-05
8.9008e-05
6.86321e-05
4.96146e-05
9.10315e-05
8.99825e-05
5.05353e-05
4.64426e-05
9.10234e-05
6.71704e-05
8.19119e-05
5.20209e-05
6.7564e-05
0.000107556
8.96602e-05
4.85362e-05
5.32715e-05
9.32229e-05
0.000110352
4.86022e-05
4.13728e-05
0.0001028
4.63125e-05
9.65881e-05
0.00010413
4.84386e-05
9.17362e-05
9.02408e-05
7.39369e-05
4.815e-05
0.000108632
7.18799e-05
5.09816e-05
0.000109531
9.11215e-05
8.38333e-05
9.24378e-05
4.29991e-05
6.0272e-05
8.6062e-05
6.56705e-05
5.30424e-05
7.37659e-05
9.52101e-05
0.000110574
9.72774e-05
8.581e-05
0.000102317
7.86535e-05
6.25032e-05
9.96092e-05
0.000106589
0.000111161
5.54469e-05
9.33667e-05
7.6193e-05
0.00010679
5.04737e-05
4.37399e-05
0.000105988
5.61354e-05
0.000108562
8.50253e-05
4.7087e-05
6.58978e-05
0.000107403
6.88654e-05
9.19015e-05
4.48583e-05
9.67068e-05
7.81692e-05
4.60419e-05
0.000110465
0.00010326
6.55622e-05
4.9424e-05
4.8754e-05
6.97778e-05
9.00581e-05
8.99873e-05
8.96267e-05
8.88558e-05
0.000105383
9.32135e-05
9.05412e-05
5.20188e-05
0.00010392
4.75925e-05
9.08058e-05
7.23505e-05
6.63917e-05
0.000114138
8.6883e-05
5.38016e-05
4.23939e-05
4.87198e-05
6.76651e-05
0.000109636
5.29125e-05
0.000107432
6.61111e-05
0.000104514
4.70359e-05
8.55298e-05
9.89955e-05
0.000109129
0.000105359
0.000103206
9.46155e-05
7.03742e-05
0.000111115
0.00010731
0.000110542
5.41566e-05
0.000100325
4.90483e-05
0.000111164
8.94583e-05
8.75726e-05
5.24646e-05
8.3084e-05
4.53974e-05
0.000100376
7.12442e-05
0.000101864
8.64555e-05
8.1745e-05
4.78206e-05
0.000109584
4.36411e-05
4.23759e-05
4.90902e-05
5.47769e-05
4.67607e-05
9.08491e-05
4.61823e-05
9.43169e-05
7.92492e-05
4.17117e-05
0.000110125
4.92561e-05
5.7904e-05
8.66609e-05
6.0377e-05
9.3188e-05
0.000101841
0.000112489
0.000104114
6.13202e-05
9.02648e-05
6.46492e-05
6.8665e-05
4.24267e-05
3.95545e-05
0.000109302
9.0323e-05
8.5078e-05
0.00010585
4.65379e-05
0.000108694
0.000107934
0.000102554
0.000101254
0.000100656
9.5117e-05
0.000107093
0.000110076
9.19542e-05
0.000105606
8.72979e-05
4.64024e-05
0.000105569
6.62247e-05
0.000102438
8.34615e-05
9.19855e-05
5.85951e-05
0.000103712
8.58876e-05
8.90983e-05
6.90253e-05
5.03325e-05
0.000112559
7.65353e-05
6.32855e-05
4.80781e-05
0.000103758
4.19573e-05
0.000104823
8.69909e-05
7.98415e-05
9.36325e-05
0.000106087
9.27899e-05
4.7743e-05
8.78763e-05
7.26002e-05
9.49491e-05
4.78169e-05
0.000100019
8.97214e-05
8.10508e-05
9.12646e-05
7.60718e-05
8.28206e-05
6.83817e-05
7.07833e-05
4.23505e-05
0.000103403
8.00382e-05
0.000108455
5.23282e-05
9.182e-05
9.64478e-05
8.79812e-05
6.17432e-05
8.99492e-05
0.000104458
8.97635e-05
4.10364e-05
4.61011e-05
8.70703e-05
4.46579e-05
5.25983e-05
9.52302e-05
9.68406e-05
0.00010225
4.0236e-05
9.07878e-05
0.000103902
4.54739e-05
4.34987e-05
9.16936e-05
4.87017e-05
7.30249e-05
5.35196e-05
0.00010849
6.35653e-05
6.16415e-05
0.000105912
4.55935e-05
8.43216e-05
8.48126e-05
0.000102988
0.000104977
0.000106559
5.10489e-05
0.000101719
0.000105567
6.81254e-05
0.000107613
0.000102089
8.63108e-05
9.62489e-05
9.25252e-05
0.000105839
0.00011037
0.000106157
9.9733e-05
6.86257e-05
9.12479e-05
9.04147e-05
4.78799e-05
8.59821e-05
9.43925e-05
0.000106217
0.000103715
8.56348e-05
0.000106705
0.000102068
8.10975e-05
8.55721e-05
0.00010873
8.95625e-05
8.70263e-05
4.96074e-05
6.77634e-05
0.000105699
4.32844e-05
7.07038e-05
8.86776e-05
6.97427e-05
8.46008e-05
0.000108395
8.58279e-05
0.000102061
8.08609e-05
8.49597e-05
7.48713e-05
0.000104382
9.22311e-05
6.85367e-05
5.0278e-05
0.000106921
5.13808e-05
8.60907e-05
6.57674e-05
8.72814e-05
7.5712e-05
0.000112357
4.93025e-05
0.000111379
5.33985e-05
9.42228e-05
6.58218e-05
8.72994e-05
9.05072e-05
0.000104293
4.91159e-05
0.000101222
0.000105543
9.27097e-05
9.49575e-05
8.66586e-05
4.6662e-05
0.000110272
0.000106563
9.36935e-05
0.000102996
0.000107793
9.0724e-05
7.04243e-05
9.60715e-05
4.67446e-05
6.73047e-05
0.000106594
4.96837e-05
5.31301e-05
0.00010682
0.000109099
5.76646e-05
6.57218e-05
9.44731e-05
6.17835e-05
8.36695e-05
5.05508e-05
9.56449e-05
9.25939e-05
4.3119e-05
7.84272e-05
0.000110615
9.03992e-05
9.28224e-05
8.66717e-05
0.000104568
5.25716e-05
5.00063e-05
0.000112641
0.000108697
8.89335e-05
4.99999e-05
8.56844e-05
0.000111444
5.47129e-05
0.000106753
9.65645e-05
9.96653e-05
8.03347e-05
0.000101558
9.45268e-05
9.28784e-05
8.80994e-05
6.10168e-05
4.54935e-05
7.69536e-05
9.4565e-05
4.88044e-05
0.000103647
4.43722e-05
8.65827e-05
6.78062e-05
4.64158e-05
8.74631e-05
5.94037e-05
9.77966e-05
7.85064e-05
9.19672e-05
4.76594e-05
5.04141e-05
6.47979e-05
5.0333e-05
8.61935e-05
0.000109534
8.88198e-05
0.000109455
7.13744e-05
8.99138e-05
0.000109055
6.65626e-05
7.2721e-05
9.0622e-05
8.88547e-05
8.66491e-05
4.81782e-05
9.2972e-05
9.91022e-05
0.000111794
0.000109185
4.89205e-05
4.60258e-05
8.69113e-05
0.000111229
5.34799e-05
8.50205e-05
6.97735e-05
8.97895e-05
0.000107784
6.63972e-05
8.43318e-05
8.47852e-05
4.90027e-05
0.000106971
8.9976e-05
4.72249e-05
5.96282e-05
8.89051e-05
6.46799e-05
0.000106686
0.000105808
8.03333e-05
4.70986e-05
0.000108967
4.39573e-05
8.68512e-05
9.10179e-05
6.22305e-05
0.000104236
4.75989e-05
9.01926e-05
8.1071e-05
8.9391e-05
4.77597e-05
4.35726e-05
0.000102523
0.00010908
6.61608e-05
0.00010247
9.4496e-05
9.01211e-05
5.1233e-05
5.36117e-05
9.7802e-05
7.24281e-05
9.11057e-05
0.000109149
0.000104629
0.000104397
0.000106491
8.06156e-05
7.82166e-05
0.000105306
5.03076e-05
9.46911e-05
0.000100986
9.24864e-05
9.5508e-05
0.000111427
7.29677e-05
0.000105069
8.81405e-05
4.41596e-05
0.000113526
6.09985e-05
0.000109213
6.52699e-05
0.000107318
4.68829e-05
9.99691e-05
0.000105241
8.46052e-05
9.57572e-05
4.85338e-05
0.000107827
0.000110095
9.69696e-05
4.58048e-05
0.000112883
7.27955e-05
0.000100821
0.000104575
0.000102021
0.000103975
8.49767e-05
6.96792e-05
0.000113666
5.08193e-05
4.83711e-05
4.80392e-05
5.15211e-05
9.71923e-05
4.66008e-05
0.000109401
0.000109183
9.34833e-05
8.66391e-05
7.38678e-05
9.36495e-05
0.000111576
9.04435e-05
7.66728e-05
0.000108176
8.79876e-05
7.08757e-05
0.000103301
8.88039e-05
8.77926e-05
9.55228e-05
6.6457e-05
0.000102489
0.000112725
0.000109018
0.000106925
0.000101531
6.30935e-05
0.000115696
7.63943e-05
8.64218e-05
9.14457e-05
9.88077e-05
0.000114805
9.32504e-05
0.000103461
5.89073e-05
8.98907e-05
8.0829e-05
4.90578e-05
4.74782e-05
8.8799e-05
6.93415e-05
9.60933e-05
6.22018e-05
4.02749e-05
8.38305e-05
0.000103941
5.73148e-05
6.49485e-05
9.29705e-05
0.000109195
0.000103597
8.65088e-05
5.30945e-05
9.11996e-05
8.62773e-05
6.51632e-05
8.74053e-05
9.18891e-05
4.67147e-05
6.55517e-05
6.05032e-05
8.45491e-05
0.000104326
8.84718e-05
9.44811e-05
9.56432e-05
9.27246e-05
7.7248e-05
5.06982e-05
5.11123e-05
4.66817e-05
9.10432e-05
9.2109e-05
0.00010999
0.000113549
8.80718e-05
4.49399e-05
9.89127e-05
6.88526e-05
8.33847e-05
8.51965e-05
0.000105751
4.27708e-05
0.000111482
4.47211e-05
9.21527e-05
8.33362e-05
7.01746e-05
0.000109633
8.69447e-05
9.76881e-05
4.86798e-05
9.01807e-05
7.49454e-05
8.22333e-05
5.65201e-05
5.16736e-05
0.000101517
0.000105847
8.11537e-05
0.000101807
0.000109619
4.99592e-05
6.71397e-05
7.07773e-05
5.12111e-05
9.33303e-05
0.000105895
0.000106465
0.000103192
0.000108163
5.1341e-05
5.27703e-05
4.91283e-05
0.000111995
5.01341e-05
0.000101665
7.84297e-05
4.84576e-05
6.83686e-05
0.000103994
0.000104735
6.26263e-05
6.64939e-05
8.59909e-05
9.15665e-05
0.000109134
7.7581e-05
4.80615e-05
9.48187e-05
0.000100729
9.33099e-05
9.9121e-05
0.000105969
0.000114108
0.000107131
9.04027e-05
5.12892e-05
5.06417e-05
8.58898e-05
5.74453e-05
0.000108189
4.67431e-05
9.61876e-05
7.02058e-05
0.000106458
5.33567e-05
8.52192e-05
0.000107824
9.39378e-05
6.49858e-05
5.13837e-05
0.000100219
6.73814e-05
9.84422e-05
7.68803e-05
0.000113789
0.000108625
9.60757e-05
5.05622e-05
4.61322e-05
8.84753e-05
7.59785e-05
6.33233e-05
0.000105364
5.02791e-05
0.00010578
9.52511e-05
6.59277e-05
0.000100667
0.000110552
0.000104329
0.000107895
0.000111282
9.61155e-05
8.04682e-05
4.73359e-05
5.86133e-05
0.000105085
5.01779e-05
8.44541e-05
8.74113e-05
5.15277e-05
8.95418e-05
0.000100938
9.01498e-05
9.88518e-05
0.000106358
4.82492e-05
9.14106e-05
9.42391e-05
4.87307e-05
6.82425e-05
8.88718e-05
6.49043e-05
8.822e-05
4.80079e-05
4.70432e-05
9.04454e-05
6.4183e-05
0.000105994
0.00011271
0.000104407
8.36421e-05
8.53587e-05
9.29554e-05
8.2268e-05
9.10427e-05
5.24731e-05
9.29791e-05
6.74274e-05
0.000109542
8.51739e-05
6.84253e-05
6.93556e-05
0.000106751
4.95829e-05
9.35378e-05
0.000106937
8.71946e-05
3.76503e-05
7.59123e-05
4.86171e-05
8.52826e-05
4.51671e-05
0.00011136
0.000103129
0.000109223
9.80889e-05
5.10486e-05
4.7746e-05
0.000106184
0.000108791
9.52501e-05
8.95006e-05
7.40901e-05
0.000103362
0.000111678
0.00010574
4.77697e-05
6.99084e-05
9.27783e-05
0.000103048
7.09553e-05
9.47109e-05
4.77854e-05
0.000107557
0.000104066
7.90201e-05
9.47372e-05
8.63849e-05
9.1738e-05
0.000110155
9.83594e-05
5.28162e-05
9.00527e-05
9.74565e-05
8.99295e-05
7.92723e-05
8.09936e-05
4.80597e-05
5.33993e-05
0.000104162
0.000105421
0.0001042
0.00010555
0.000103301
0.000102244
8.25012e-05
9.344e-05
0.000102786
0.00010643
6.96427e-05
6.80194e-05
8.53988e-05
9.26978e-05
0.000106024
4.60896e-05
7.7744e-05
4.27292e-05
0.000105933
4.37058e-05
4.86187e-05
8.71903e-05
3.97546e-05
6.68331e-05
8.78666e-05
0.000108521
0.000103102
5.90474e-05
8.26057e-05
0.000105748
5.43186e-05
5.00422e-05
6.92283e-05
6.01964e-05
0.000107962
9.40064e-05
7.61205e-05
4.57647e-05
8.75977e-05
0.000106563
0.000105599
4.61468e-05
5.3941e-05
8.79286e-05
0.000103598
9.98907e-05
5.1973e-05
5.04552e-05
8.31042e-05
6.88729e-05
0.000110788
8.90513e-05
4.75188e-05
8.34498e-05
0.000102021
5.15145e-05
4.46632e-05
0.000105789
5.24359e-05
5.40931e-05
0.000110808
9.95233e-05
0.000104743
0.000112255
8.89938e-05
6.7767e-05
0.000105869
6.31973e-05
9.99255e-05
6.09282e-05
8.89238e-05
0.000101703
9.01505e-05
4.81344e-05
0.000102762
0.00010443
6.668e-05
9.21299e-05
6.99246e-05
5.49757e-05
8.59625e-05
7.91693e-05
8.31798e-05
0.000106964
6.3634e-05
0.000105468
4.64247e-05
0.000102226
0.000109196
4.72404e-05
9.14616e-05
9.47087e-05
4.06115e-05
5.14317e-05
9.39303e-05
8.82535e-05
0.000105954
6.20854e-05
4.91209e-05
0.000107644
0.000107417
0.000105211
8.17302e-05
0.000105085
4.49271e-05
0.000109322
9.19989e-05
4.7629e-05
5.01989e-05
3.96807e-05
4.67279e-05
0.000106826
6.35326e-05
9.73953e-05
9.06421e-05
5.87913e-05
5.8299e-05
4.22241e-05
4.09303e-05
0.000110312
0.000106807
5.24731e-05
0.000102753
8.64765e-05
4.82322e-05
8.7598e-05
7.2426e-05
5.23529e-05
6.59485e-05
0.000108131
5.3214e-05
4.65101e-05
0.000100641
0.000109581
5.89567e-05
0.000103115
7.19144e-05
5.42684e-05
4.76925e-05
7.04314e-05
5.08013e-05
4.83441e-05
9.52069e-05
9.51062e-05
6.64954e-05
8.80463e-05
0.000104851
8.84504e-05
0.000106947
4.90046e-05
6.99418e-05
4.74236e-05
9.31606e-05
0.000103028
9.03588e-05
6.3288e-05
9.17687e-05
5.03919e-05
9.93232e-05
9.03775e-05
6.12465e-05
5.18461e-05
4.41206e-05
4.44616e-05
6.31732e-05
4.56506e-05
6.86582e-05
4.75771e-05
7.0745e-05
0.000101104
8.48733e-05
6.86635e-05
9.73692e-05
8.73067e-05
9.09713e-05
9.93037e-05
4.65908e-05
7.66744e-05
0.000104369
0.000110002
8.85256e-05
0.000107439
5.17725e-05
9.88657e-05
8.95611e-05
4.76756e-05
8.69198e-05
0.000108129
8.42316e-05
0.000102513
0.0001063
8.00996e-05
4.12789e-05
4.16962e-05
8.82632e-05
0.000108489
8.30177e-05
0.000102956
6.30723e-05
6.62607e-05
5.40313e-05
4.51095e-05
4.30446e-05
4.76761e-05
9.73569e-05
9.65952e-05
0.00010981
7.99363e-05
6.74509e-05
0.000107594
4.56545e-05
9.28377e-05
9.91295e-05
0.000105356
8.40913e-05
8.50339e-05
0.000105734
0.000111442
0.00010379
6.81842e-05
6.82095e-05
0.00010214
8.36552e-05
9.38245e-05
0.000108732
9.83235e-05
0.000108906
9.10757e-05
5.79881e-05
9.03765e-05
9.22544e-05
9.08105e-05
9.46502e-05
4.75782e-05
0.000105217
0.000105247
0.000107187
0.00010553
4.82307e-05
4.48966e-05
8.81137e-05
8.98365e-05
6.99111e-05
9.37268e-05
0.000103252
0.000101324
0.000103413
6.59004e-05
8.80125e-05
8.91547e-05
9.90412e-05
4.56723e-05
4.63629e-05
8.04331e-05
8.43135e-05
5.0642e-05
0.000107806
5.0411e-05
6.16606e-05
9.2772e-05
9.17878e-05
6.82873e-05
0.000103559
8.45312e-05
0.000101613
8.45724e-05
9.0085e-05
9.28064e-05
6.27165e-05
4.33025e-05
0.000108777
4.39847e-05
4.58287e-05
6.81324e-05
4.74148e-05
4.45367e-05
6.44098e-05
9.47542e-05
4.41499e-05
6.62025e-05
3.99807e-05
4.98916e-05
8.79402e-05
0.000108643
4.21184e-05
4.88766e-05
0.000103886
4.50514e-05
7.11497e-05
8.95639e-05
7.77078e-05
9.42943e-05
5.09019e-05
4.76202e-05
6.7352e-05
0.000105715
5.05704e-05
4.99703e-05
7.72041e-05
6.45913e-05
9.41168e-05
8.94107e-05
4.9588e-05
0.000100659
4.75976e-05
4.95184e-05
7.25575e-05
9.36055e-05
6.57686e-05
7.09853e-05
7.08532e-05
9.36023e-05
4.46894e-05
5.23749e-05
8.82335e-05
0.000106201
9.60055e-05
4.66353e-05
4.2564e-05
7.22064e-05
0.000111195
9.04207e-05
8.835e-05
6.53048e-05
8.24943e-05
9.23259e-05
4.63813e-05
0.000110151
5.98292e-05
5.01381e-05
4.48494e-05
0.000107051
8.94849e-05
0.000106172
7.86078e-05
0.000105614
4.56144e-05
7.03587e-05
4.52541e-05
4.46883e-05
8.42912e-05
4.91735e-05
6.69607e-05
9.18198e-05
9.98517e-05
4.86394e-05
0.000111958
0.000106731
0.0001103
8.12115e-05
3.93995e-05
9.30802e-05
4.20378e-05
0.000103218
5.04889e-05
0.000104267
4.35734e-05
9.70586e-05
8.29288e-05
6.51981e-05
6.65269e-05
4.03433e-05
5.65128e-05
9.17918e-05
0.000103775
8.46625e-05
0.000107929
0.000106491
4.65893e-05
0.000107248
8.37599e-05
9.64803e-05
9.41897e-05
0.000107423
9.14958e-05
9.25289e-05
0.000104896
6.42096e-05
5.67993e-05
5.41533e-05
9.42969e-05
0.000105182
5.44519e-05
5.4263e-05
0.000104945
9.0556e-05
9.04321e-05
0.000111034
9.83796e-05
8.10896e-05
9.17565e-05
0.000105078
0.000102277
8.52516e-05
8.41658e-05
0.000105735
9.77725e-05
6.39692e-05
8.67378e-05
6.12938e-05
0.000115208
9.61705e-05
0.000104255
4.93645e-05
5.15433e-05
8.82059e-05
0.000105002
9.84788e-05
0.000104328
0.000109415
8.38781e-05
8.49438e-05
5.08032e-05
6.9557e-05
9.60161e-05
9.96437e-05
0.000109791
0.000110006
6.62226e-05
0.000107698
4.9973e-05
0.000102282
6.23639e-05
9.02059e-05
6.6093e-05
9.30512e-05
8.0835e-05
0.000102849
5.00307e-05
0.000109703
0.000107677
6.75097e-05
4.82741e-05
0.000111333
8.64718e-05
0.000104967
9.15431e-05
9.55672e-05
8.78073e-05
4.49875e-05
0.000107704
6.8407e-05
9.36532e-05
5.67355e-05
5.72995e-05
5.13536e-05
4.41458e-05
6.21641e-05
0.000110799
9.09468e-05
4.77068e-05
8.43222e-05
4.73097e-05
7.66015e-05
9.68168e-05
4.18001e-05
4.82107e-05
6.02712e-05
7.73098e-05
9.28202e-05
6.22034e-05
0.000104604
6.66454e-05
6.91108e-05
6.01464e-05
0.000108017
0.000109625
0.000105765
0.000101219
9.63455e-05
4.53035e-05
4.6077e-05
0.000104898
6.94573e-05
7.25102e-05
0.000105848
0.00011224
8.98075e-05
9.48386e-05
4.38777e-05
0.000104228
0.000109104
6.58604e-05
0.000106299
0.000106796
8.97766e-05
8.62884e-05
8.70143e-05
6.82428e-05
4.88914e-05
9.57217e-05
4.76266e-05
4.72997e-05
7.24826e-05
9.18413e-05
8.80722e-05
8.75534e-05
9.28904e-05
9.02281e-05
4.36689e-05
6.64618e-05
9.72643e-05
0.000109741
4.92374e-05
6.89473e-05
4.96252e-05
8.15594e-05
0.000109271
6.74206e-05
8.55333e-05
0.000101849
7.66422e-05
4.72786e-05
0.000103753
4.63722e-05
0.000104191
0.000101973
9.92539e-05
0.00010624
9.50651e-05
0.000108324
4.57979e-05
0.000104138
0.00011018
5.11778e-05
0.000100508
9.13624e-05
6.81193e-05
0.000105167
7.15503e-05
0.000104283
0.000109711
0.000105829
9.37246e-05
0.000105713
9.40896e-05
9.05875e-05
4.94898e-05
8.09628e-05
4.79534e-05
4.81756e-05
7.69777e-05
9.85127e-05
9.10014e-05
0.000108742
8.87982e-05
0.000106975
4.43454e-05
0.000105045
0.000112599
9.95534e-05
0.000101332
5.00581e-05
4.50246e-05
8.96617e-05
4.4748e-05
0.000102548
9.38556e-05
4.28685e-05
7.00008e-05
0.000104111
8.80348e-05
4.25553e-05
5.61556e-05
4.22289e-05
0.000106783
5.14623e-05
9.94983e-05
7.62089e-05
4.4396e-05
9.46011e-05
0.000104382
0.000111238
0.000103118
4.96544e-05
8.57987e-05
0.000106733
4.82251e-05
0.000108292
8.8865e-05
9.41899e-05
4.98556e-05
0.000100356
6.56789e-05
8.87129e-05
6.6633e-05
8.50086e-05
6.50623e-05
6.65441e-05
6.71293e-05
6.72926e-05
0.000102435
8.92158e-05
0.000108431
5.38358e-05
9.00241e-05
9.34919e-05
0.000105666
9.78393e-05
4.76338e-05
0.000103191
4.95831e-05
8.31488e-05
0.000111502
0.000108454
7.11765e-05
7.37798e-05
9.45204e-05
6.62061e-05
8.86437e-05
7.37527e-05
5.02694e-05
4.70602e-05
9.75623e-05
0.000108193
8.34061e-05
6.76799e-05
0.000109289
4.82038e-05
9.44546e-05
4.99951e-05
8.00388e-05
0.000110715
8.8003e-05
4.51644e-05
0.00010489
4.8247e-05
9.56838e-05
8.74577e-05
4.71838e-05
0.00010243
4.85651e-05
6.25072e-05
6.98571e-05
4.39622e-05
5.72955e-05
8.0868e-05
4.18546e-05
9.98463e-05
0.000110604
4.47634e-05
5.94534e-05
0.000107008
8.53855e-05
9.68579e-05
0.000105338
0.000101214
9.17032e-05
5.53243e-05
4.42261e-05
4.26825e-05
6.97356e-05
0.000107161
0.000102256
8.70077e-05
9.67277e-05
4.85112e-05
5.00514e-05
8.94466e-05
0.000100479
4.21488e-05
9.37911e-05
9.20206e-05
7.24803e-05
0.000102378
8.30049e-05
0.000109053
5.48364e-05
7.03587e-05
0.000106478
4.06726e-05
9.16515e-05
0.000109985
0.000106677
8.83644e-05
0.000102655
9.44928e-05
4.76661e-05
0.0001079
0.000104069
8.92251e-05
9.54349e-05
8.53143e-05
9.12045e-05
9.22479e-05
8.50788e-05
9.65079e-05
9.2286e-05
8.35142e-05
5.03884e-05
6.6365e-05
0.000112442
8.99008e-05
0.000113241
9.29895e-05
7.38451e-05
0.000105974
4.87278e-05
0.000101606
4.57979e-05
0.000104475
8.94867e-05
6.63642e-05
0.000102057
6.4855e-05
7.10539e-05
0.000110795
6.47533e-05
0.000103529
0.000107446
0.000100217
5.24853e-05
9.33187e-05
8.82082e-05
5.27623e-05
0.000106031
8.56224e-05
9.041e-05
0.000109853
4.67218e-05
9.97682e-05
8.9737e-05
0.000100246
7.11703e-05
9.45165e-05
4.77697e-05
5.18868e-05
0.000115055
4.8008e-05
9.49909e-05
0.000104913
4.91364e-05
6.74901e-05
0.000109081
5.62562e-05
5.27334e-05
5.72761e-05
6.07985e-05
6.83042e-05
0.000113025
6.94244e-05
0.000108616
8.64903e-05
0.000103298
4.68022e-05
6.4615e-05
0.000100306
9.20736e-05
4.84112e-05
4.99472e-05
7.06976e-05
6.1945e-05
4.66654e-05
9.14355e-05
8.67039e-05
0.000109558
8.71644e-05
0.00010768
9.77522e-05
8.64326e-05
0.000104985
8.36605e-05
5.94462e-05
8.0309e-05
0.000101574
8.88622e-05
8.14699e-05
0.000106616
8.8902e-05
4.96264e-05
4.31415e-05
7.19792e-05
6.66321e-05
8.44098e-05
0.000105144
7.75076e-05
9.68444e-05
0.000105449
0.000100702
0.000107258
7.72253e-05
4.85708e-05
8.28803e-05
6.39243e-05
0.000107936
7.9352e-05
9.90586e-05
0.000102236
6.59732e-05
6.70451e-05
9.74265e-05
0.000104922
9.57816e-05
0.000111784
8.583e-05
7.01668e-05
7.31016e-05
5.30961e-05
6.92726e-05
0.000107387
5.32076e-05
0.000108287
8.33313e-05
0.000105575
5.42898e-05
0.000104836
9.62006e-05
0.00010618
9.1118e-05
7.94233e-05
9.06136e-05
0.000104827
4.83582e-05
4.7087e-05
9.04215e-05
6.33396e-05
8.06905e-05
9.16019e-05
9.33812e-05
0.000110018
8.53478e-05
4.7739e-05
5.72869e-05
4.59131e-05
7.92569e-05
9.27687e-05
5.14836e-05
0.000104777
9.11803e-05
6.7157e-05
8.59783e-05
5.4831e-05
5.20099e-05
0.000111543
5.01212e-05
4.2957e-05
7.67603e-05
7.25127e-05
5.66657e-05
5.6954e-05
0.000109768
0.000102145
5.7555e-05
9.73727e-05
0.000106312
9.24212e-05
0.000101677
4.6472e-05
0.000108494
3.53705e-05
0.000103626
5.14519e-05
4.47034e-05
0.000104506
4.33166e-05
6.87101e-05
8.19481e-05
0.00010655
6.60926e-05
9.13543e-05
6.16617e-05
9.11963e-05
8.64765e-05
8.57782e-05
7.39699e-05
0.000103101
8.83026e-05
5.09434e-05
0.000101947
8.54324e-05
6.72431e-05
8.91234e-05
5.05646e-05
7.42524e-05
4.8818e-05
4.85203e-05
9.1052e-05
6.20287e-05
4.75047e-05
6.45278e-05
9.06059e-05
0.000105383
9.16366e-05
3.88596e-05
4.93953e-05
0.000112506
4.84203e-05
9.09224e-05
4.77427e-05
0.000104315
0.000104147
0.00010831
4.55262e-05
7.02374e-05
0.000107926
0.000107728
8.45397e-05
0.000112812
8.80087e-05
8.30967e-05
8.80995e-05
4.87998e-05
8.54576e-05
6.65031e-05
9.31068e-05
9.05953e-05
6.30545e-05
8.4174e-05
0.000107547
5.84786e-05
5.41582e-05
4.68658e-05
9.86592e-05
9.84042e-05
4.45304e-05
9.22401e-05
9.08429e-05
8.66925e-05
5.00287e-05
9.38324e-05
6.61505e-05
9.04635e-05
5.96028e-05
6.62917e-05
8.86805e-05
4.18996e-05
0.000104984
4.76193e-05
5.21802e-05
8.48203e-05
0.000106985
4.21422e-05
9.3095e-05
0.000100066
9.32985e-05
4.43527e-05
0.000108356
0.00010798
4.26545e-05
9.11008e-05
4.15185e-05
5.01687e-05
0.000108062
6.77242e-05
7.81309e-05
0.000106432
0.000106637
8.32259e-05
6.13562e-05
8.83471e-05
6.79614e-05
7.13146e-05
6.5221e-05
0.000105678
4.74447e-05
8.5105e-05
7.19986e-05
7.06722e-05
0.00010081
8.67823e-05
9.94163e-05
8.62876e-05
9.10643e-05
0.000107639
8.71342e-05
6.77276e-05
6.53962e-05
0.000100375
8.30614e-05
8.32072e-05
9.72705e-05
0.000103545
8.82104e-05
0.000111484
8.5691e-05
9.92971e-05
6.31456e-05
4.70982e-05
9.1793e-05
0.000100191
5.25268e-05
8.70543e-05
8.92301e-05
4.02963e-05
4.92103e-05
0.000104205
5.01276e-05
8.46595e-05
0.000106863
8.63779e-05
4.66658e-05
8.78135e-05
9.38013e-05
4.98872e-05
5.14246e-05
4.72968e-05
0.000102131
9.25084e-05
9.09089e-05
0.000114743
4.6848e-05
9.42681e-05
8.89642e-05
0.000107444
0.000107914
3.90791e-05
8.99685e-05
8.94985e-05
0.000101796
8.33378e-05
8.23267e-05
7.44147e-05
9.40805e-05
0.000108618
5.70657e-05
4.58503e-05
6.56464e-05
0.000101244
9.78858e-05
4.95038e-05
6.58645e-05
0.000101712
0.000106898
8.8293e-05
6.17928e-05
4.28532e-05
4.62135e-05
4.68791e-05
9.27749e-05
8.45784e-05
7.31064e-05
0.000100178
0.000107059
5.98403e-05
0.000105868
0.000103287
9.60822e-05
6.38563e-05
0.000103289
7.38783e-05
4.92209e-05
5.83523e-05
8.74576e-05
9.15489e-05
8.17459e-05
8.45969e-05
6.99351e-05
0.000102348
4.89785e-05
4.90687e-05
8.73489e-05
0.000106183
9.89209e-05
6.90663e-05
6.7e-05
0.000100818
0.000110043
8.26714e-05
6.41892e-05
0.000102996
0.000103759
8.84471e-05
0.000106963
0.000105296
9.75505e-05
4.61971e-05
6.80164e-05
4.7651e-05
8.65103e-05
0.000108043
6.78587e-05
4.88413e-05
0.000106578
5.06608e-05
6.46751e-05
5.27363e-05
7.18278e-05
4.89216e-05
0.000100078
9.04688e-05
8.64618e-05
7.95103e-05
5.41141e-05
0.000110092
4.72027e-05
8.51075e-05
7.64517e-05
8.77063e-05
4.79846e-05
0.000106664
0.000100963
4.74458e-05
5.30848e-05
6.99296e-05
6.23875e-05
8.43508e-05
5.37502e-05
9.72782e-05
6.63902e-05
9.14674e-05
6.41286e-05
6.424e-05
6.47686e-05
5.54912e-05
9.96412e-05
7.12025e-05
2.37488e-05
4.93892e-05
7.03661e-05
0.000109715
0.000102873
5.32802e-05
6.95602e-05
9.9367e-05
4.7949e-05
0.00010286
0.000104853
8.43827e-05
5.37804e-05
0.000101215
4.67543e-05
4.88286e-05
4.7816e-05
9.88947e-05
8.90197e-05
6.11295e-05
0.000101925
8.37579e-05
9.21599e-05
4.61273e-05
3.9773e-05
0.000104997
8.83889e-05
0.000106883
0.00010508
4.97166e-05
9.20749e-05
7.12317e-05
8.61352e-05
9.0454e-05
6.34547e-05
6.17605e-05
0.000112583
9.50963e-05
6.2309e-05
4.83332e-05
8.69307e-05
9.08826e-05
9.19797e-05
6.82596e-05
4.77073e-05
5.2038e-05
8.45326e-05
8.38961e-05