/*--------------------------------*- C++ -*----------------------------------*\
| =========                 |                                                 |
| \\      /  F ield         | OpenFOAM: The Open Source CFD Toolbox           |
|  \\    /   O peration     | Version:  2212                                  |
|   \\  /    A nd           | Website:  www.openfoam.com                      |
|    \\/     M anipulation  |                                                 |
\*---------------------------------------------------------------------------*/
FoamFile
{
    version     2.0;
    format      ascii;
    arch        "LSB;label=32;scalar=64";
    class       volScalarField;
    location    "0.002";
    object      p;
}
// * * * * * * * * * * * * * * * * * * * * * * * * * * * * * * * * * * * * * //

dimensions      [0 2 -2 0 0 0 0];

internalField   nonuniform List<scalar> 
31639
(
0.0199132
0.0136306
0.0230173
0.00999336
0.0135598
0.0194422
0.0217995
0.0208021
0.0145373
0.012365
0.0216703
0.0138901
0.01434
0.0190779
0.0162091
0.0238833
0.0277985
0.0284421
0.00449418
0.0210123
0.0151356
0.0114401
0.0159517
0.00980535
0.0173706
0.0209999
0.0200109
0.0669277
0.020957
0.0209496
0.0110119
0.031187
0.0143226
0.00805532
0.0387716
0.0206807
0.011829
0.0216309
0.021582
0.0179881
0.0142043
0.0203495
0.0157344
0.0224785
0.0234531
0.0093912
0.0140887
0.0109747
0.0244321
0.0100393
0.00904851
0.00759876
0.0391544
0.0228307
0.00722126
0.0287505
0.0117939
0.0198931
0.0136963
0.00946158
0.010336
0.0202901
0.0165497
0.0205939
0.0393648
0.00550694
0.00367938
0.0111634
0.0139204
0.00864853
0.0126933
0.0282271
0.0118713
0.00488811
0.0400597
0.0303738
0.012668
0.0112593
0.0135354
0.0129534
0.0197052
0.0190456
0.0182437
0.0102334
0.0184831
0.0170539
0.0157932
0.0109824
0.0028576
0.0147341
0.00835727
0.0277417
0.00978011
0.0132555
0.00621564
0.0200317
0.0106736
0.00761498
0.0141776
0.0192399
0.0367621
0.0368562
0.0170859
0.0128241
0.00723351
0.00900344
0.0190267
0.0097027
0.01099
0.0177344
0.021958
0.0194432
0.0199744
0.0116042
0.0052039
0.0217378
0.0386621
0.0225364
0.0368511
0.0104109
0.0312782
0.00906044
0.00460635
0.0100631
0.0195863
0.0188575
0.0133879
0.010101
0.0126472
0.014765
0.0387003
0.00148653
0.0231326
0.0052441
0.00609293
0.0114674
0.0118932
0.0131693
0.00927698
0.0102947
0.010253
0.0155082
0.0167566
0.0093852
0.0144923
0.0186146
0.0375939
0.0116618
0.0177602
0.039383
0.010392
0.0249899
0.00770292
0.0067741
0.00797737
0.00681306
0.0047355
0.0129418
0.0252732
0.0112376
0.00590036
0.0276609
0.0113922
0.0204665
0.0305986
0.0304336
0.0225263
0.0257333
0.00764147
0.00534902
0.0259104
0.0190179
0.0267398
0.0143765
0.0179103
0.0124594
0.0164177
0.0311821
0.0114178
0.0174432
0.0145395
0.0244908
0.0204271
0.0217895
0.0216493
0.0205837
0.0253366
0.0175702
0.0192504
0.0238283
0.0241622
0.0123374
0.0246627
0.0072726
0.00816177
0.00811252
0.00832642
0.0132144
0.00845858
0.0217136
0.018088
0.0283824
0.0240916
0.0257347
0.0120668
0.0102401
0.00409944
0.00721637
0.0319527
0.00842161
0.00806181
0.0176419
0.0366139
0.0185524
0.0221288
0.0186599
0.0191142
0.0185798
0.0265411
0.013949
0.0141877
0.0174331
0.0183944
0.0265745
0.0228094
0.0127671
0.0240063
0.0228851
0.0153639
0.0309857
0.0071418
0.021506
0.0279678
0.0238888
0.024947
0.00390472
0.00405589
0.0251009
0.0202025
0.00720743
0.0101447
0.022498
0.0263229
0.0247587
0.0104391
0.0288761
0.00793366
0.0303867
0.0238806
0.00397482
0.00112784
0.00945056
0.024609
0.029068
0.0135085
0.0145147
0.0201109
0.00629981
0.0198948
0.0230353
0.00944931
0.0075546
0.0136781
0.0190745
0.0134106
0.0185255
0.00287151
0.0379082
0.0223159
0.0197429
0.0486623
0.00854648
0.0198714
0.0251121
0.0114639
0.0236051
0.00808113
0.0267238
0.010512
0.00923135
0.030447
0.0313271
0.0312322
0.042173
0.0214774
0.0212481
0.0267172
0.0255821
0.00448743
0.0240331
0.027759
0.00209577
0.00718584
0.00718248
0.0226954
0.00622455
0.0278416
0.00372621
0.0102519
0.0115057
0.0111292
0.0263019
0.00794496
0.00729301
0.0166214
0.00637379
0.0190468
0.00442202
0.0155133
0.0269828
0.0108219
0.047375
0.0377324
0.015145
0.0142379
0.0205044
0.00368772
0.0318216
0.0236173
0.0229482
0.0222225
0.00876626
0.0360455
0.00694528
0.0180304
0.0257054
0.0221777
0.0251385
0.00780974
0.00887486
0.00891402
0.00955686
0.0265903
0.00742682
0.0281749
0.0392357
0.0393597
0.0109243
0.0256457
0.0295791
0.00598711
0.0030221
0.0285834
0.00544463
0.00790003
0.0262232
0.00715071
0.0227957
0.022739
0.0365614
0.0120458
0.0269747
0.0120322
0.0240378
0.00727583
0.00936736
0.00798623
0.016348
0.0165701
0.0249776
0.0277698
0.0165478
0.0470585
0.00460505
0.0109289
0.0101789
0.00538515
0.0168366
0.0178575
0.0256498
0.0155541
0.0320349
0.0192884
0.00847338
0.00563673
0.00954598
0.0377861
0.030534
0.0249083
0.0317421
0.02312
0.00735188
0.010873
0.00699807
0.00693544
0.00657961
0.00760868
0.0139315
0.00118181
0.0286842
0.00393955
0.0326515
0.00812926
0.0267846
0.00681684
0.0269364
0.0286843
0.021578
0.0099608
0.0441546
0.0284856
0.0214069
0.0209693
0.00698646
0.0251343
0.00382506
0.0104647
0.0105389
0.0109513
0.0215367
0.00904084
0.0104744
0.0244949
0.0485964
0.022579
0.0252042
0.0175293
0.0190494
0.0166874
0.0141958
0.0134371
0.036062
0.0161364
0.00146563
0.0251571
0.04813
0.0151076
0.0351808
0.0193385
0.0229369
0.0094657
0.00793365
0.0266339
0.00893939
0.0204279
0.0205514
0.0258895
0.00572709
0.00725563
0.0279876
0.0110608
0.00404618
0.00464182
0.018656
0.00603942
0.0110214
0.0119138
0.0293726
0.0284663
0.0315043
0.0291637
0.0252608
0.0118354
0.0257545
0.0109206
0.0281102
0.0322377
0.00889651
0.0251763
0.00968721
0.0203153
0.0302392
0.0195414
0.00506218
0.0242115
0.067841
0.00499675
0.0155735
0.0101478
0.0233394
0.00295013
0.00781283
0.00879436
0.007791
0.025661
0.00202072
0.0156661
0.0349155
0.0140628
0.0163867
0.00953419
0.0371853
0.00630796
0.0131145
0.0358484
0.0474976
0.0156256
0.0230455
0.0184243
0.0116386
0.0090802
0.00717608
0.0303245
0.00338151
0.0194844
0.0186322
0.0176398
0.00512911
0.00760652
0.0296385
0.0341165
0.00428703
0.00478874
0.00524686
0.00267964
0.0408743
0.0101739
0.00403099
0.0322288
0.0359909
0.0317643
0.00646636
0.0280913
0.0258641
0.0296893
0.00326572
0.03599
0.0363087
0.000209706
0.0306099
0.0296716
0.0309007
0.0185254
0.0333427
0.00133312
0.00479533
0.02918
0.00428792
0.00498249
0.00837598
0.0221194
0.0139947
0.0269697
0.00155344
0.00890004
0.0144942
0.0333672
0.00190044
0.0255972
0.00331381
0.0473039
0.0481629
0.0101797
0.0668583
0.0105514
0.0100863
0.0174409
0.0176627
0.0116666
0.0168881
0.049649
0.0118828
0.0256042
0.00111487
0.0105838
0.0171274
0.00957004
0.0292707
0.00179519
0.00664794
0.0164457
0.00627839
0.0150174
0.0154146
0.0079312
0.03834
0.00556389
0.00442077
0.000973644
0.0200945
0.0342824
0.00465194
0.000840833
0.00538867
0.00640557
0.00472925
0.0317691
0.000341581
0.00219555
0.00139447
0.0278617
0.00318507
0.0290014
0.0305475
0.0322342
0.00893222
0.000730368
0.000859027
0.00421183
0.000795713
0.0184714
0.00155127
0.0183718
0.031515
0.00239672
0.0102359
0.0141545
0.0376088
0.0342399
0.026908
0.0122002
0.00554042
0.0363327
0.0305435
0.00241801
0.00249928
0.0123068
0.0209824
0.00836186
0.00204229
0.000430522
0.0014721
0.0296448
0.0241319
0.0105006
0.0675136
0.0243044
0.0176145
0.0123044
0.0191472
0.0258615
0.0257172
0.0170928
0.0107165
0.013518
0.0140212
0.0245536
0.00482839
0.0169597
0.00191803
0.0185311
0.0467606
0.0309873
0.0291476
0.0203179
0.0163757
0.0428533
0.0181803
0.0223147
0.00886409
0.0376058
0.034868
0.004656
0.0175429
0.0202631
0.000496316
0.0429202
0.010452
0.00192127
0.00511888
0.00236694
0.0378997
0.0341134
0.0350506
0.00448095
0.00059632
0.0291327
0.0185753
0.0314407
0.0318598
0.0317823
0.00183395
0.000668927
0.0300967
0.0258648
0.0267099
0.0326056
0.00186695
0.0106039
0.0484621
0.00593394
0.00321742
0.0333162
0.0174502
0.0073243
0.0300502
0.0297778
0.0229979
0.0128998
0.0079734
0.0208834
0.0109982
0.000735559
0.00127189
0.00236466
0.00843917
0.00333885
0.0375957
0.0123996
0.000425933
0.000898654
0.0281791
0.00903999
0.000764698
0.067816
0.00861409
0.0101933
0.0136207
0.0159865
0.0134157
0.0170237
0.0166375
0.0105298
0.012042
0.0184219
0.01093
0.0101527
0.0119687
0.0161737
0.0330476
0.0175446
0.0165383
0.0286206
0.0378939
0.0315167
0.00802389
0.0161225
0.0043176
0.0184537
0.0396143
0.00112994
0.00286679
0.00249903
0.00900138
0.0103883
0.028352
0.0264176
0.00757342
0.00249607
0.0214568
0.0377919
0.00118285
0.0305245
0.0108274
0.0275831
0.0256752
0.0268044
0.0358154
0.0327554
0.0425695
0.0293846
0.0240237
0.0312517
0.0277905
0.0285547
0.00929258
0.0373686
0.00947781
0.00258074
0.00639001
0.0281361
0.000415206
0.0228379
0.00516711
0.00709669
0.0225362
0.0133204
0.0356538
0.00610751
0.0240397
0.00703359
0.0415751
0.0108532
0.00121326
0.00174203
0.0334601
0.0209897
0.00130138
0.00304514
0.00209431
0.00654491
0.000438226
0.000299556
0.0277126
0.0267275
0.000498603
0.0266444
0.023798
0.0287033
0.0146758
0.0149113
0.0116848
0.0194765
0.0201699
0.00883525
0.00133713
0.0176418
0.0255253
0.0178981
0.0359758
0.031362
0.0176479
0.0302107
0.0106816
0.0483989
0.00505723
0.0308723
0.0172889
0.000521183
0.0198033
0.00483924
0.0098214
0.00436461
0.00466117
0.0226026
0.0333936
0.0075842
0.029528
0.000939327
0.00166518
0.000840476
0.0397407
0.0392782
0.0377229
0.0406775
0.0332937
0.0306785
0.00961374
0.00588277
0.0104853
0.00233346
0.0206891
0.0085872
0.0254416
0.0132874
0.0101783
0.00339843
0.000492676
0.00730476
0.00388362
0.0352022
0.0140578
0.00753268
0.00705939
0.0133031
0.001463
0.0234853
0.00685609
0.0305003
0.00487988
0.00348498
0.0190815
0.0193231
0.0304935
0.0372226
0.032582
0.0243312
0.0127831
0.0146196
0.0293843
0.000393046
0.00117984
0.0286214
0.0290989
0.000377992
0.000886956
0.00409292
0.0289805
0.00765205
0.0165538
0.0381796
0.0365627
0.0171955
0.0450393
0.012786
0.0110316
0.0113503
0.00759175
0.00442296
0.0302046
0.0046342
0.0176964
0.0217904
0.0349651
0.00996013
0.0112005
0.010703
0.027639
0.028143
0.0284367
0.0409235
0.00316766
0.0323624
0.0322226
0.0326087
0.0167387
0.000503285
0.0385248
0.0403256
0.0371262
0.0205787
0.0215811
0.0239081
0.022309
0.0267004
0.020134
0.000753503
0.0287123
0.0122232
0.00898579
0.0293425
0.00198913
0.00120026
0.00435767
0.00389629
0.0358985
0.0129386
0.00450368
0.00678873
0.0114993
0.0259777
0.01153
0.0101554
0.0228695
0.0157801
0.00110746
0.0306221
0.0185102
0.0317692
0.0153422
0.0027123
0.0245517
0.0243543
0.00112717
0.0131547
0.0120355
0.001026
0.00108375
0.0300002
0.035037
0.013009
0.0168666
0.0018778
0.0325451
0.0412871
0.0339205
0.0222279
0.00958523
0.0308145
0.0227679
0.0117398
0.0164466
0.00883524
0.00865299
0.0149282
0.0294052
0.00478484
0.0177903
0.0112812
0.010189
0.000462407
0.0331883
0.0121557
0.0345898
0.00801221
0.0279627
0.0324576
0.014518
0.0148284
0.0344141
0.0270456
0.0307983
0.0108229
0.0126813
0.0266642
0.0255204
0.0197127
0.0205268
0.0320928
0.0326776
0.0439708
0.0242662
0.0284691
0.0016948
0.00105226
0.0290387
0.0263982
0.0123372
0.0315462
0.00412306
0.0218276
0.0239084
0.030939
0.0033922
0.0320748
0.0289544
0.0345219
0.0329731
0.0345161
0.0151582
0.0293324
0.011845
0.021409
0.021013
0.0200492
0.0359605
0.0333424
0.0320623
0.026752
0.0136976
0.0183615
0.0202769
0.0327159
0.0200806
0.00037808
0.0341984
0.0376908
0.0165817
0.0140176
0.0050714
0.00364731
0.0112714
0.0335024
0.00916014
0.0101045
0.0418242
0.0156883
0.00491783
0.00782906
0.000620297
0.0148835
0.0166794
0.0152307
0.030126
0.000964015
0.0353954
0.00238692
0.0345929
0.0332502
0.0414716
0.0141128
0.0142972
0.0124692
0.0252587
0.0214738
0.0261204
0.0419798
0.0298374
0.0317605
0.0198071
0.0247746
0.0137912
0.0256035
0.0222654
0.00452049
0.00386244
0.0182904
0.00173075
0.0122239
0.0355602
0.0379251
0.00621388
0.0346446
0.0220562
0.0366166
0.0182159
0.0194294
0.00251942
0.00128973
0.0259755
0.0228636
0.0103121
0.0142074
0.0130288
0.020831
0.0146933
0.0295089
0.0322409
0.0422495
0.0313232
0.0340689
0.0196022
0.0137279
0.0159534
0.00123938
0.00237568
0.00499033
0.0141391
0.0122705
0.0230537
0.0128181
0.024102
0.0277972
0.0311051
0.0129741
0.00850192
0.0430879
0.0216913
0.037931
0.0377003
0.0152101
0.0388061
0.00325273
0.0308795
0.00902763
0.0169047
0.00648812
0.0133584
0.0142485
0.0363401
0.0363206
0.000898054
0.0326876
0.039779
0.0460283
0.0133207
0.0266774
0.0312654
0.0323174
0.0114779
0.0129127
0.0294997
0.0459626
0.0294903
0.00475517
0.0259847
0.0449896
0.0246776
0.0243098
0.0235549
0.0110427
0.0374755
0.0316591
0.0374421
0.00281004
0.0251158
0.00202815
0.0212147
0.0312177
0.00613622
0.0306736
0.00834514
0.029811
0.0415843
0.016386
0.000436938
0.0182856
0.0202586
0.00122743
0.0119594
0.0126655
0.0203526
0.01403
0.0439781
0.0343426
0.0123922
0.0124594
0.0332379
0.0179295
0.0314684
0.0424703
0.0323853
0.0012893
0.0011817
0.0344367
0.0293712
0.0200011
0.0219975
0.026135
0.0206981
0.0218967
0.0374409
0.0326965
0.0400448
0.0290023
0.0252045
0.00324711
0.0390934
0.00399618
0.0133167
0.0356595
0.038556
0.0302026
0.0148608
0.0129833
0.000526487
0.0327778
0.0194872
0.0351497
0.018177
0.0371395
0.0399432
0.0238562
0.0253529
0.0144601
0.00674195
0.0438946
0.0196816
0.0256626
0.0189976
0.0175363
0.0264078
0.0442476
0.0240539
0.02303
0.0479986
0.00347701
0.0370806
0.0214355
0.0462854
0.0224085
0.0181537
0.0368397
0.0375702
0.00604014
0.0129792
0.00703541
0.0082439
0.0318653
0.0159883
0.017211
0.000485405
0.0142217
0.0559266
0.0140538
0.0153473
0.0209489
0.0216172
0.0201296
0.0340389
0.034638
0.0249193
0.0123388
0.0338914
0.0183347
0.036064
0.0321811
0.0321261
0.0357436
0.0367271
0.0334171
0.0119436
0.000991121
0.0388778
0.0106158
0.0413374
0.0455025
0.0426146
0.0142438
0.038819
0.02505
0.00331828
0.00272029
0.00445264
0.0344728
0.0360774
0.0356638
0.0323281
0.0397939
0.0144051
0.012643
0.0356493
0.0406221
0.0180199
0.0359181
0.0383377
0.0242534
0.0132673
0.0438022
0.0386968
0.0331772
0.0261168
0.034286
0.0270808
0.0374263
0.00270362
0.0269228
0.0329721
0.0386626
0.0265158
0.0354751
0.0173876
0.0464346
0.0283309
0.00344375
0.0347219
0.0072283
0.000418896
0.00677213
0.0268692
0.0221552
0.0261758
0.0341803
0.0373349
0.0132894
0.0290456
0.0162682
0.0224575
0.0204342
0.0206616
0.0122658
0.0351903
0.0225877
0.0231951
0.0351066
0.0244236
0.0112817
0.0109813
0.02355
0.0252388
0.0227787
0.0327229
0.0333026
0.00171392
0.0221318
0.034964
0.0335853
0.0234038
0.023863
0.019394
0.0244987
0.0452165
0.00170457
0.0111725
0.0366166
0.00453058
0.0152437
0.0163157
0.0155929
0.0419344
0.0440656
0.00432999
0.0449033
0.0398913
0.0279571
0.027552
0.0405238
0.0286151
0.0374297
0.0346214
0.00580709
0.0146247
0.0425902
0.000504419
0.000802866
0.0406034
0.0378743
0.00540394
0.0398402
0.028186
0.02457
0.0150202
0.03824
0.0376168
0.0118589
0.0350923
0.0321386
0.0284214
0.0251104
0.00141456
0.00238664
0.00142041
0.0284429
0.0332915
0.0201217
0.038638
0.0432917
0.0195498
0.0175317
0.0123244
0.00656555
0.0474552
0.000252397
0.00492964
0.0163012
0.00187717
0.000511435
0.000925533
0.016601
0.0123545
0.00131421
0.0594248
0.0365136
0.0274173
0.0435199
0.0231479
0.046809
0.00622654
0.0135147
0.0140392
0.0451
0.0450369
0.022621
0.0115115
0.024681
0.0218403
0.0293194
0.0270432
0.0284756
0.0332482
0.00250434
0.0355353
0.0365834
0.036566
0.0355691
0.0291926
0.0289214
0.0218097
0.0196446
0.038965
0.0335164
0.00971522
0.00746752
0.0217264
0.0320541
0.0435281
0.0100554
0.0111342
0.0118348
0.0318548
0.0408094
0.0430456
0.0425187
0.0025757
0.00148303
0.0402159
0.00091496
0.0399735
0.0411647
0.00723699
0.00994688
0.0042128
0.0387546
0.0135951
0.0334252
0.0256732
0.0253243
0.0415257
0.0424696
0.0178571
0.0466809
0.0463286
0.0305271
0.028056
0.000310338
0.000916588
0.0310103
0.027945
0.0349141
0.0460339
0.0669278
0.0468681
0.0357407
0.0471576
0.0367347
0.0039672
0.0335793
0.0391082
0.00446478
0.0362884
0.00779938
0.000923151
0.0357537
0.00142301
0.0157026
0.0169529
0.0167031
0.0155443
0.000502089
0.00302081
0.0108551
0.044224
0.0415788
0.0288224
0.0160645
0.0208013
0.0132643
0.0167665
0.0119707
0.0160347
0.0157473
0.0142876
0.0304673
0.0257069
0.03659
0.0259886
0.0358357
0.00215205
0.034717
0.00137747
0.0475338
0.0367046
0.0224531
0.0297288
0.0131181
0.0181766
0.00565416
0.00451792
0.0107766
0.00672295
0.0202951
0.0352211
0.0153088
0.0267202
0.0241516
0.00962525
0.0241058
0.0440954
0.0019983
0.00495588
0.00160667
0.027611
0.0417636
0.0326242
0.00930108
0.00725057
0.040703
0.00475559
0.0408817
0.0393276
0.0676003
0.0410146
0.040769
0.0464436
0.0435681
0.0415659
0.0318518
0.00716317
0.0328321
0.0066311
0.0334676
0.0355043
0.0003315
0.0439116
0.0188243
0.00341733
0.0339568
0.0433074
0.0332343
0.0388342
0.0335619
0.0162343
0.0196658
0.0318378
0.0359822
0.040146
0.043222
0.00109686
0.00504416
0.0264077
0.0361074
0.0338156
0.0292706
0.0303171
0.00171831
0.0292921
0.0151561
0.0155874
0.0149635
0.0134741
0.0177252
0.021775
0.00072507
0.0365366
0.0387057
0.0327061
0.00162378
0.0382581
0.0220935
0.023427
0.0272952
0.0281954
0.0336773
0.0256766
0.0603732
0.0058503
0.0227838
0.0369147
0.0280924
0.0282253
0.00495974
0.0259348
0.0414557
0.047135
0.0336169
0.014513
0.0403148
0.013297
0.025474
0.0428094
0.0455535
0.0255432
0.0457764
0.0448502
0.0452809
0.0417184
0.0271192
0.0439019
0.041559
0.0352261
0.0146256
0.0316504
0.0111874
0.00318549
0.032877
0.00881522
0.042249
0.0431103
0.0420169
0.0395915
0.0236992
0.039025
0.0447847
0.012659
0.00812787
0.0182227
0.0480096
0.0316889
0.0308995
0.00691549
0.00631849
0.0366168
0.00202847
0.0211843
0.047244
0.0398548
0.0335855
0.0346633
0.0198999
0.017196
0.00438998
0.0363151
0.000573956
0.0123071
0.0403146
0.00154326
0.00435235
0.00617869
0.00875086
0.00533305
0.0282279
0.030862
0.0373713
0.0231421
0.0134599
0.0554133
0.0137928
0.0160218
0.016998
0.0388998
0.034654
0.0445015
0.0399518
0.0117267
0.0208203
0.0205073
0.0202776
0.0247076
0.029948
0.0302687
0.0355007
0.0336626
0.0307451
0.0217966
0.0163955
0.0170627
0.00337544
0.0332606
0.040702
0.0128657
0.00512903
0.0606676
0.0216472
0.0411937
0.0265704
0.0420046
0.0508287
0.0313902
0.0133056
0.0112965
0.0259908
0.0441804
0.0426228
0.0100619
0.047772
0.000738708
0.000238121
0.0412301
0.0456588
0.0215596
0.0174036
0.0383462
0.00870425
0.0426503
0.0462243
0.0168727
0.0374267
0.0394257
0.0585734
0.00873612
0.0444604
0.024636
0.0255936
0.0361068
0.0436878
0.00443866
0.0343264
0.0476316
0.0466602
0.0497339
0.00914159
0.0383034
0.0365642
0.00444351
0.0293179
0.0443464
0.0305339
0.0040585
0.0121317
0.02781
0.00794022
0.0304367
0.0127591
0.00115834
0.00129305
0.0183473
0.00470671
0.0418414
0.023363
0.00932553
0.0170262
0.0439555
0.0438595
0.0384487
0.0400333
0.0428538
0.0237279
0.00389808
0.00787298
0.0196374
0.0358945
0.0359861
0.0372837
0.0377617
0.025281
0.0243839
0.0215066
0.0309649
0.0272753
0.0275363
0.0294366
0.0469305
0.0329047
0.0358138
0.0302543
0.0341529
0.0342405
0.016286
0.0332557
0.0251942
0.0144434
0.0225384
0.0541772
0.0257549
0.0597247
0.0345106
0.00890306
0.0149649
0.0296271
0.0512087
0.0272713
0.025507
0.0107168
0.0347435
0.00128051
0.00255521
0.000881699
0.0437999
0.0434119
0.0443459
0.0215482
0.0485159
0.00720196
0.0454823
0.0459995
0.044356
0.00369781
0.0509446
0.0444148
0.00281501
0.047994
0.0255127
0.0265882
0.0255636
0.0361142
0.039838
0.0318505
0.0336229
0.0357363
0.0208409
0.0207351
0.00501931
0.0461756
0.0359266
0.0416213
0.0306382
0.0398369
0.0456157
0.0154357
0.0434914
0.00382519
0.0312587
0.0138208
0.00158757
0.000578076
0.0178108
0.0402655
0.0141502
0.0363784
0.0367803
0.010959
0.039001
0.0140376
0.047315
0.0370507
0.0465639
0.0344123
0.0176431
0.0367373
0.0386871
0.0437709
0.00848335
0.0380193
0.0373415
0.0399551
0.0434891
0.0301347
0.0401154
0.0320152
0.00391755
0.0383774
0.00902694
0.0282634
0.0299946
0.0199093
0.0331953
0.0516227
0.0247533
0.0228813
0.0232569
0.0157499
0.0320501
0.0110929
0.0201143
0.0401119
0.0181454
0.0370298
0.0100838
0.0405713
0.033008
0.00916059
0.0273127
0.04234
0.0100661
0.0325862
0.0205413
0.00237185
0.000730746
0.00247501
0.0427233
0.0265726
0.0312044
0.0230447
0.0226133
0.0422391
0.0464878
0.0446412
0.0334532
0.0438824
0.0352579
0.0472114
0.0229015
0.0479703
0.0474356
0.0470095
0.0457127
0.0446167
0.0041535
0.0363524
0.044324
0.033444
0.0298434
0.0499558
0.0443656
0.0211278
0.0462507
0.00405138
0.0420689
0.043818
0.0299353
0.027758
0.0392756
0.0409253
0.0393264
0.00168997
0.0466126
0.0345278
0.0117788
0.000976099
0.0459336
0.0127624
0.00501701
0.00340872
0.000544423
0.0321285
0.00890869
0.0557781
0.0150761
0.0391287
0.0197493
0.0141398
0.0214136
0.0374526
0.0147249
0.0456772
0.0369527
0.0207846
0.0429692
0.0377341
0.0318459
0.0514634
0.0338684
0.0439855
0.0274928
0.0478368
0.0268769
0.026614
0.00491345
0.0345835
0.0334403
0.0354007
0.0415667
0.0292607
0.0480491
0.035448
0.0341866
0.00381485
0.0092735
0.0483821
0.0244612
0.00797063
0.0249335
0.0632914
0.0139109
0.0501463
0.00987765
0.00160078
0.0173966
0.0183763
0.0163777
0.032522
0.00923488
0.0294106
0.0373616
0.0264086
0.00798071
0.00891764
0.044865
0.00221029
0.0329141
0.0305223
0.0198156
0.0419684
0.0500564
0.0203294
0.0418289
0.038399
0.0340847
0.00045302
0.0328282
0.0369362
0.0447048
0.0457047
0.0519776
0.0482138
0.0046245
0.00307533
0.0487639
0.00508464
0.0432287
0.0464859
0.043014
0.00766209
0.0527903
0.0189663
0.0381451
0.0464512
0.0414978
0.0426553
0.041124
0.0386292
0.0352935
0.0198141
0.0389768
0.0283379
0.00310521
0.0177212
0.0429734
0.0385348
0.0508708
0.0535536
0.0027297
0.0271452
0.00405401
0.00712528
0.0451887
0.00730081
0.00610367
0.0477118
0.00908004
0.0164241
0.0266898
0.0455303
0.00052494
0.0448189
0.0379532
0.020308
0.0441286
0.0467197
0.0226633
0.043937
0.0352471
0.0477339
0.0436808
0.0431567
0.0307513
0.0488084
0.0335637
0.00807228
0.00924251
0.0479408
0.0352351
0.0437946
0.0527803
0.0387145
0.0417103
0.0523206
0.008588
0.047687
0.0467781
0.0478143
0.0252954
0.0661463
0.00689828
0.0122595
0.0196683
0.0178145
0.0516332
0.0137892
0.0371287
0.0284573
0.0302878
0.0275498
0.00961395
0.0180138
0.0112355
0.0443383
0.00178261
0.0472606
0.0485518
0.0497202
0.0216115
0.0401173
0.0609499
0.0372848
0.00271025
0.0432686
0.0134361
0.0166004
0.0502904
0.021952
0.0499666
0.05014
0.0327083
0.00435573
0.0444837
0.0427806
0.0445785
0.0326727
0.0436977
0.0439066
0.0420821
0.0366543
0.0378956
0.0388928
0.0390351
0.0320521
0.0293991
0.00252442
0.0456405
0.0264451
0.0281555
0.0313907
0.0151777
0.0121932
0.0551431
0.0429294
0.0385328
0.0503267
0.0516997
0.0178802
0.00671662
0.0117645
0.054179
0.0266816
0.0128664
0.0458582
0.010787
0.0396944
0.0219013
0.00863661
0.00835712
0.0376166
0.0206523
0.0412024
0.00127283
0.0361322
0.00330832
0.0385848
0.0211356
0.0321127
0.032813
0.0312626
0.0411323
0.0398047
0.0450602
0.0127346
0.0620382
0.0600957
0.0530353
0.0354495
0.035187
0.0271279
0.0371408
0.0420822
0.0449878
0.0513348
0.000227024
0.0185728
0.020631
0.067011
0.0457541
0.0046086
0.0463111
0.00508269
0.025738
0.0296769
0.0172718
0.0123202
0.0534865
0.042543
0.0129
0.0279571
0.0547237
0.0171981
0.0106327
0.000866012
0.0253263
0.00293442
0.049667
0.0102878
0.0521099
0.0621334
0.0138063
0.0434884
0.000505479
0.000471129
0.0135994
0.0507152
0.0505925
0.0483019
0.0424947
0.00250805
0.0320541
0.0675171
0.0310799
0.0422066
0.0401553
0.0418594
0.0426681
0.0331076
0.0471447
0.0407867
0.0127905
0.00289337
0.00323647
0.0033067
0.0391221
0.044166
0.023639
0.0441914
0.0088114
0.00954372
0.0109148
0.0379356
0.0518159
0.0512169
0.053449
0.0289623
0.0137661
0.0468238
0.0127845
0.0374068
0.0407953
0.0424739
0.0217883
0.046875
0.0199219
0.038311
0.0397589
0.0381103
0.0188597
0.0275223
0.0674397
0.0162851
0.0036899
0.0364359
0.0305495
0.0383741
0.0245671
0.0290714
0.0310408
0.033083
0.0269838
0.0405421
0.0597398
0.0299723
0.0463264
0.0198507
0.0370642
0.0278978
0.0360571
0.0386406
0.0369922
0.0508669
0.00621257
0.0502478
0.0318747
0.0011954
0.0202765
0.0521293
0.0462161
0.0267618
0.00553304
0.0420382
0.0134696
0.0538468
0.0135182
0.0431284
0.0407222
0.0490053
0.0361085
0.0447876
0.0296585
0.00414943
0.0395068
0.0036545
0.0492115
0.000503393
0.00126944
0.00894819
0.0031513
0.0327457
0.00137395
0.0543095
0.0547139
0.0456498
0.046918
0.051474
0.0515218
0.0497987
0.0506776
0.0124488
0.0544831
0.0496452
0.00974053
0.0467693
0.0579209
0.0316631
0.000407882
0.044683
0.0491609
0.0419836
0.0383512
0.0437853
0.0526375
0.00411694
0.0462977
0.00197473
0.0013126
0.000507711
0.0397365
0.0272228
0.0108153
0.0223437
0.0456986
0.0665228
0.0311443
0.0418701
0.0432268
0.0523794
0.00331225
0.067149
0.0478878
0.0123453
0.0336655
0.0153184
0.0353199
0.0443418
0.0158166
0.0478761
0.0364558
0.018785
0.0306352
0.018078
0.0383799
0.0310188
0.0506002
0.0516208
0.0133875
0.0256864
0.0313623
0.0307885
0.0426881
0.0607632
0.0206274
0.0429943
0.0317809
0.0204466
0.0270424
0.0547276
0.0295752
0.0274279
0.000210117
0.058228
0.0569504
0.00142492
0.0469453
0.00285687
0.0347385
0.0541818
0.00670456
0.0500894
0.0505858
0.0530991
0.05135
0.0407469
0.0415818
0.0461207
0.0112182
0.0439976
0.013506
0.00296899
0.0218034
0.00520386
0.0416285
0.045538
0.018027
0.0181328
0.0221687
0.0531064
0.00506256
0.0450706
0.0260297
0.0524211
0.0365592
0.0516392
0.0493773
0.0550043
0.049851
0.00203534
0.0317991
0.0491343
0.0331404
0.0442624
0.0427918
0.00742277
0.0514098
0.0384843
0.0540533
0.000355942
0.0496532
0.0107256
0.0256589
0.00298804
0.041538
0.0408298
0.0634619
0.0380931
0.0113291
0.048668
0.0462799
0.00142497
0.000922455
0.0628709
0.0430094
0.0136977
0.067629
0.0156152
0.0256787
0.0469809
0.000462586
0.00440837
0.0676352
0.0121933
0.0189416
0.0188904
0.0326605
0.0459409
0.0253992
0.0178652
0.0466521
0.0527092
0.0495512
0.0455231
0.0257296
0.045873
0.0315673
0.0180592
0.0399539
0.0393685
0.0319405
0.0360376
0.0253518
0.0235417
0.0465726
0.0480027
0.0484668
0.0398833
0.0573139
0.0382847
0.0399393
0.0371922
0.0390542
0.0480127
0.0336923
0.00665328
0.0524109
0.0508405
0.0472341
0.0069412
0.0452811
0.0385407
0.043855
0.0391306
0.0540006
0.0469094
0.00525282
0.01753
0.053053
0.0539244
0.0579254
0.00393337
0.0249069
0.0166662
0.049561
0.0478561
0.0516413
0.0577861
0.0576557
0.049891
0.0573506
0.0493735
0.0486877
0.0303617
0.051515
0.0432759
0.056546
0.0677643
0.0425076
0.0395152
0.0677978
0.0349331
0.0240886
0.0530804
0.0281765
0.0565299
0.00152643
0.0440953
0.0261575
0.0646219
0.0420464
0.0395937
0.0544945
0.0247853
0.00144848
0.0227914
0.0660135
0.000814386
0.000288356
0.0433354
0.0152858
0.0168344
0.0166234
0.0114705
0.0097599
0.0108626
0.00916867
0.0180986
0.0508815
0.0567202
0.00499268
0.0511505
0.0455164
0.00414524
0.0418603
0.0524693
0.0530646
0.0289697
0.0361465
0.0271416
0.051537
0.0285008
0.0454426
0.0397068
0.0288177
0.0410554
0.0511813
0.0279165
0.0277467
0.0406234
0.039974
0.033085
0.0554261
0.00559454
0.0577079
0.0340523
0.0290179
0.0326175
0.0524834
0.0215907
0.0163401
0.0532481
0.0468134
0.0478508
0.0513746
0.0653929
0.0592558
0.0530893
0.0478864
0.0523006
0.0554155
0.0536151
0.0321188
0.0557506
0.0536472
0.0142021
0.0481803
0.0348816
0.0560501
0.0460741
0.0551132
0.0265461
0.0496548
0.0341379
0.0399336
0.0516167
0.0560671
0.013923
0.0451793
0.0350452
0.0342337
0.0360381
0.0576509
0.046153
0.0491222
0.00095293
0.0411591
0.000386518
0.0495367
0.00358037
0.0661345
0.0150881
0.0338306
0.0121288
0.0117044
0.0104526
0.0447933
0.04876
0.0330059
0.0336577
0.0443277
0.0295642
0.0515474
0.0525298
0.0375709
0.057965
0.0504925
0.0579454
0.0508532
0.0471064
0.0546695
0.0296684
0.0389674
0.0407179
0.031744
0.00623954
0.0549809
0.0538573
0.0635463
0.0151755
0.0506515
0.044127
0.0159907
0.0399422
0.0500435
0.0434039
0.0569453
0.0537936
0.0516177
0.056462
0.0411262
0.0541573
0.0553114
0.0543031
0.0530458
0.0436018
0.0492392
0.0385193
0.057718
0.0480009
0.0675522
0.0671464
0.0463152
0.0570102
0.0454649
0.0442539
0.0438688
0.0359697
0.0528501
0.0462732
0.0505067
0.0529463
0.0580111
0.0506537
0.0429558
0.0484601
0.0483306
0.0567991
0.0461449
0.0500213
0.0530867
0.0553889
0.00336507
0.0504735
0.00444043
0.00514196
0.00542042
0.00241652
0.050003
0.00969871
0.00073475
0.0358269
0.049796
0.0669304
0.0671887
0.0569738
0.0452606
0.0553008
0.0294329
0.0629484
0.0403521
0.0441776
0.0486425
0.0526584
0.0333992
0.0523672
0.0541307
0.0380799
0.0414489
0.0541852
0.0420957
0.0623161
0.0543135
0.0600562
0.0172135
0.00246225
0.0504832
0.049817
0.0488412
0.060165
0.0518946
0.061837
0.0514374
0.0555577
0.0321965
0.0580251
0.0414565
0.0561262
0.0438102
0.0560984
0.0578145
0.0339986
0.0510766
0.0374645
0.0533451
0.0365673
0.0534685
0.0464424
0.0442961
0.0542474
0.051573
0.0469541
0.0512084
0.0348782
0.0616219
0.0483445
0.0517148
0.0530634
0.0549825
0.0135281
0.0362951
0.0556973
0.00446873
0.00632356
0.0570034
0.0500393
0.000527633
0.0666829
0.0447644
0.0630771
0.049571
0.0430632
0.0430454
0.058675
0.049068
0.0416262
0.0443971
0.0480175
0.0496458
0.0490991
0.0632353
0.0546177
0.0548667
0.0361589
0.0362345
0.0576183
0.0460703
0.0545548
0.054764
0.0617627
0.0660471
0.0641649
0.0431078
0.0579615
0.0454795
0.0534385
0.0521985
0.0448143
0.0189734
0.056671
0.06758
0.0552253
0.0423047
0.0492596
0.0422879
0.0677823
0.0388626
0.0505429
0.042462
0.0448132
0.0535833
0.056567
0.0454011
0.0546128
0.0534347
0.0482751
0.0548453
0.0538158
0.0537316
0.0480677
0.0578713
0.057656
0.0571952
0.0491009
0.0556651
0.0563865
0.0559282
0.0155203
0.0566914
0.0400439
0.0410555
0.0514891
0.0619105
0.0404035
0.049775
0.0575647
0.0488366
0.0502497
0.0422494
0.0641662
0.0478869
0.0565656
0.0403856
0.0405882
0.0495969
0.0569962
0.0402096
0.0490073
0.047893
0.0565042
0.0576762
0.0480193
0.0488705
0.0609449
0.0612793
0.0507976
0.0603367
0.0598849
0.0533739
0.060658
0.0237586
0.0607375
0.0569234
0.0557341
0.0563564
0.0543397
0.0567684
0.0624732
0.0514562
0.0570749
0.0448161
0.0519633
0.0460698
0.0535521
0.053628
0.0646155
0.0547897
0.064065
0.0640274
0.0460616
0.053347
0.0551058
0.0366483
0.0480899
0.0496957
0.0498684
0.0624112
0.0548857
0.0422495
0.0489263
0.0394415
0.0579558
0.039978
0.0419864
0.0483934
0.0500985
0.0507451
0.0566226
0.0556597
0.0566802
0.0469526
0.0413386
0.0438948
0.0554551
0.057598
0.0377684
0.0571599
0.0641971
0.0600437
0.0478129
0.05534
0.0542994
0.0563323
0.0524344
0.0516895
0.0630156
0.0476881
0.0514832
0.0599328
0.0468021
0.0550887
0.055774
0.0451699
0.0557613
0.0359393
0.0538457
0.057894
0.0517594