/*--------------------------------*- C++ -*----------------------------------*\
| =========                 |                                                 |
| \\      /  F ield         | OpenFOAM: The Open Source CFD Toolbox           |
|  \\    /   O peration     | Version:  2212                                  |
|   \\  /    A nd           | Website:  www.openfoam.com                      |
|    \\/     M anipulation  |                                                 |
\*---------------------------------------------------------------------------*/
FoamFile
{
    version     2.0;
    format      ascii;
    arch        "LSB;label=32;scalar=64";
    class       surfaceScalarField;
    location    "0.002";
    object      phi;
}
// * * * * * * * * * * * * * * * * * * * * * * * * * * * * * * * * * * * * * //

dimensions      [0 3 -1 0 0 0 0];

oriented        oriented;

internalField   nonuniform List<scalar> 
68568
(
-1.27179e-07
1.31924e-07
-2.47991e-08
2.00538e-08
1.23307e-07
-6.25171e-08
-6.60214e-08
5.23116e-09
1.48113e-07
-1.1358e-07
-5.04004e-08
1.58675e-08
-4.06194e-09
2.15497e-09
-1.39888e-07
1.41795e-07
-1.44931e-09
1.18825e-07
1.0624e-09
-1.18439e-07
1.17772e-07
-3.89353e-10
-1.07707e-07
-9.67581e-09
7.06756e-08
-7.75134e-08
1.12433e-07
-1.05595e-07
-3.29025e-08
-2.24017e-08
1.2598e-07
1.10371e-07
-1.33721e-08
-9.32143e-08
-3.78496e-09
1.26659e-07
4.41844e-08
-4.75359e-08
8.41358e-08
1.15571e-07
-5.15938e-08
-5.44714e-08
-1.6769e-07
1.59644e-07
-1.18944e-07
5.81201e-08
-5.19794e-09
1.52809e-07
-1.57462e-07
1.16508e-08
-6.99764e-09
-6.05164e-08
-4.38503e-08
1.03295e-07
1.0715e-09
1.0831e-07
7.6799e-08
-1.13262e-07
-7.18471e-08
-4.30338e-08
-6.66272e-08
9.74509e-08
1.22101e-08
9.84496e-08
-1.02739e-07
-3.87448e-08
9.4597e-08
-4.28237e-09
-3.22753e-11
-9.02824e-08
7.28101e-08
-1.3057e-07
6.49115e-08
-7.15127e-09
9.9107e-08
-3.3653e-10
-9.89586e-08
1.88178e-10
-1.44841e-08
7.54825e-09
1.17627e-07
-1.10692e-07
-3.87881e-08
1.59239e-07
-2.26991e-08
-9.77519e-08
-3.5953e-10
-1.16001e-10
-1.16125e-07
1.16601e-07
-6.60106e-08
-4.16092e-08
1.01659e-07
5.96039e-09
-8.30687e-08
-3.40157e-08
-1.00947e-08
-5.5252e-08
1.20499e-07
7.56266e-09
6.5203e-08
3.97723e-08
-2.51965e-08
-7.97788e-08
-5.74318e-08
-8.79643e-08
1.12494e-07
4.04808e-08
-1.01551e-07
3.63879e-09
1.28613e-07
-6.93406e-08
-1.20971e-07
6.16987e-08
-1.15055e-08
2.40392e-09
1.02918e-07
-9.38164e-08
1.31961e-07
-2.80195e-08
-9.34096e-09
-9.46009e-08
1.0424e-07
-8.07956e-08
-5.00399e-08
2.65952e-08
-1.35296e-10
9.66485e-08
-9.64479e-08
-6.5335e-11
1.02215e-07
7.53205e-08
-7.56225e-08
7.61754e-10
-4.59802e-10
3.60364e-08
-1.33675e-07
7.8092e-08
1.95464e-08
-1.3788e-07
1.20406e-07
5.3511e-08
-6.58629e-08
8.11406e-11
-2.2887e-10
-7.89629e-10
1.00499e-07
-6.02147e-10
9.87036e-08
-9.84191e-08
-1.87851e-10
-9.66305e-11
-2.25251e-08
-1.35207e-07
1.01592e-07
1.6296e-07
-1.25262e-07
-1.39291e-07
-5.14907e-08
-8.74161e-08
2.47217e-07
-1.22662e-07
1.3924e-07
-1.17274e-07
1.00696e-07
-1.07244e-07
5.7402e-08
-4.62906e-09
9.77429e-08
-9.5497e-08
-3.02812e-09
7.82184e-10
8.40921e-08
2.17079e-08
9.68547e-09
-1.15485e-07
1.88877e-09
-1.30106e-07
1.25808e-07
2.93077e-08
-2.50098e-08
-7.10967e-09
-8.29365e-08
8.94133e-08
6.32959e-10
-1.80346e-07
1.17285e-07
1.54212e-07
-9.0118e-08
-3.69977e-10
-3.44415e-10
1.60493e-09
-1.31235e-09
9.23266e-08
-9.26192e-08
3.40441e-08
-9.90585e-08
-1.61285e-09
8.10773e-08
-8.68251e-08
3.0898e-09
2.65802e-09
-7.31087e-08
1.21212e-07
-5.36971e-08
5.59328e-09
1.25255e-07
-6.52027e-08
-6.32191e-08
3.16683e-09
8.05384e-08
-8.05843e-08
-3.13726e-10
-9.56149e-08
-1.67613e-09
9.9446e-08
6.41201e-08
6.07794e-08
-6.36274e-09
-1.18537e-07
-4.79247e-09
1.18149e-07
-1.13949e-07
5.92812e-10
7.60586e-08
-1.28328e-07
-2.98221e-09
9.29828e-08
-1.54353e-08
2.83346e-08
-1.05882e-07
1.2566e-07
-1.93924e-08
-1.43137e-07
3.68701e-08
3.59385e-08
6.93226e-08
-1.0664e-08
5.51473e-08
-1.09384e-07
6.023e-08
-5.99282e-09
1.17371e-07
-1.18893e-07
7.22122e-11
-8.47204e-08
1.20523e-07
-2.66558e-08
-9.14646e-09
-1.74195e-07
-1.29588e-07
2.4564e-07
5.81431e-08
-9.8515e-08
5.51282e-09
9.84862e-08
-6.26495e-09
1.16309e-07
-1.23176e-07
-4.53505e-08
5.22171e-08
-1.07121e-07
5.54682e-08
5.74683e-08
-5.81585e-09
-8.89175e-08
-4.15354e-08
-4.15982e-08
-8.99055e-08
8.97709e-08
1.21412e-10
1.31822e-11
3.34302e-08
1.47993e-07
-5.61683e-08
9.21219e-08
-5.3545e-08
4.25004e-08
-6.25099e-08
-6.91052e-08
1.27861e-07
3.7541e-09
-2.78939e-10
-1.85894e-07
-3.31563e-10
1.86505e-07
6.58058e-08
-4.02943e-08
7.3192e-08
-4.71901e-12
5.82326e-08
-5.81412e-08
-8.66269e-11
-1.63022e-08
1.1972e-07
5.61687e-08
-1.59587e-07
1.44699e-07
-7.29703e-08
-7.60834e-08
4.35434e-09
1.03425e-07
3.18847e-08
-3.06792e-08
-1.0463e-07
1.377e-07
-6.56993e-08
6.50643e-08
-1.37065e-07
2.97493e-08
1.11591e-08
9.67921e-08
-7.57309e-08
7.23999e-08
-1.36557e-07
1.09769e-07
2.65157e-10
-1.0647e-07
-3.56413e-09
-3.34316e-08
-2.37894e-07
1.64081e-07
7.20752e-08
7.27336e-08
-5.56839e-09
-5.01477e-10
3.95283e-10
7.99133e-08
-7.98071e-08
-1.08033e-07
1.08335e-07
-4.18084e-10
-5.13832e-08
1.03378e-07
5.4068e-09
6.0389e-09
7.48248e-08
-3.8585e-09
-7.70052e-08
-1.09615e-07
4.87077e-08
7.66349e-08
-1.57274e-08
-3.79777e-08
-6.94294e-08
-8.71836e-09
-7.0311e-08
1.37544e-07
4.84202e-09
6.21166e-08
6.48127e-08
-1.22483e-07
-4.44644e-09
1.00511e-07
5.58492e-10
-1.00655e-07
-4.14668e-10
-3.47948e-09
-1.14094e-07
-1.17424e-08
1.17509e-07
-1.22249e-10
9.90604e-08
-1.02048e-07
4.94927e-08
-6.58429e-09
8.63772e-08
-5.77097e-10
-8.4678e-08
-1.12208e-09
1.06378e-07
-5.32479e-10
1.15801e-07
-3.88584e-08
6.77565e-08
-6.17508e-11
-9.11094e-08
-3.11719e-09
9.84897e-08
-4.26303e-09
8.0656e-08
-4.33131e-08
-7.96643e-08
-3.10078e-11
7.99225e-08
-2.27241e-10
-2.97432e-08
-1.1661e-07
1.25055e-07
2.12979e-08
-1.28767e-09
1.13982e-07
-1.12433e-07
-2.62065e-10
-7.4738e-08
-3.15278e-08
1.07171e-07
-9.04832e-10
-4.03382e-09
2.25374e-09
-9.38348e-08
-1.39608e-07
7.55895e-08
6.94554e-08
-5.43663e-09
2.8435e-10
-8.93722e-08
8.93615e-08
-2.73651e-10
1.1742e-07
-2.6989e-10
-4.84196e-11
-9.46304e-08
1.08353e-10
9.45705e-08
-9.57798e-08
1.79543e-08
9.04651e-08
1.12509e-07
-6.16231e-08
4.26101e-09
1.19841e-07
-1.19309e-07
-1.20378e-08
-1.06863e-07
1.20237e-07
1.58877e-08
-2.9262e-08
6.1125e-08
-6.31335e-08
1.27668e-07
3.62843e-09
9.60033e-08
1.28722e-07
-1.18129e-09
-1.28828e-07
5.8316e-08
-1.21277e-07
-3.84869e-09
6.68101e-08
1.22848e-07
-6.76753e-08
6.94397e-09
8.84361e-08
-8.64838e-08
-9.89259e-08
4.94044e-08
-2.6101e-08
-1.28538e-07
1.23114e-07
-1.64297e-08
2.18534e-08
1.38642e-07
3.72896e-08
-3.61997e-08
-1.39863e-07
-6.30992e-08
-2.50941e-08
6.85772e-08
1.96162e-08
-1.11057e-07
5.83837e-08
-4.59039e-08
9.8577e-08
-1.2928e-07
-2.6493e-09
1.34371e-07
-2.44125e-09
-9.19796e-08
1.68765e-08
-5.4177e-08
-1.39695e-07
-5.37695e-09
8.37119e-08
-1.36851e-09
-9.87652e-08
-4.39698e-10
-9.21104e-08
1.19899e-07
-6.29305e-08
5.22469e-09
1.33494e-07
-7.05061e-08
-6.86198e-08
5.63143e-09
-1.13064e-07
1.52757e-07
-3.90874e-08
-6.05386e-10
7.11889e-08
-7.07831e-08
-1.1347e-07
8.39976e-08
6.66448e-09
-2.22595e-09
5.11171e-10
9.1945e-08
-9.19414e-08
-5.14767e-10
1.60632e-07
-4.07544e-08
-8.7993e-08
-9.32134e-08
1.19058e-07
1.0122e-07
-9.65179e-08
-2.44866e-09
-1.25191e-09
9.01144e-08
-8.89716e-08
1.09135e-10
-7.78323e-09
-1.15357e-07
1.12252e-07
1.0888e-08
-1.20971e-07
1.36559e-07
-9.21527e-09
-6.37309e-09
1.04124e-07
4.26176e-09
-1.0848e-07
9.14105e-09
-6.5253e-09
-8.32499e-08
8.26655e-08
2.81967e-08
-5.53701e-09
-1.14639e-07
-1.82194e-08
9.77361e-08
-7.33937e-08
-6.12299e-09
1.33951e-07
-5.3793e-09
-1.12932e-08
-1.17278e-07
1.32251e-07
5.83728e-11
-1.55861e-09
-1.30751e-07
1.18799e-07
-1.29397e-09
-1.34089e-10
1.13307e-07
-1.1357e-07
3.58422e-10
-9.48445e-11
-1.07051e-07
-7.24666e-08
1.10088e-07
1.81113e-08
-1.44624e-07
-9.77123e-08
9.77808e-08
3.24638e-12
-7.17625e-11
-1.16853e-07
-6.21946e-09
2.1014e-09
-9.01926e-08
4.40902e-11
9.04644e-08
-3.15962e-10
-1.07703e-07
-2.13779e-10
1.08164e-07
-2.47127e-10
-1.50028e-08
1.15637e-07
-9.15592e-08
-6.68644e-09
-9.0468e-08
9.03798e-08
3.98767e-11
3.04111e-08
2.38779e-08
6.40098e-08
-1.18362e-07
6.18509e-08
-6.19528e-08
1.21295e-07
-1.21193e-07
9.11437e-08
-7.24674e-08
-2.16133e-08
2.93699e-09
4.01824e-08
5.43015e-08
-9.4115e-08
2.04684e-09
4.65102e-09
-9.25991e-08
1.05523e-07
-1.75745e-08
-4.21663e-10
9.06936e-08
-9.00799e-08
-1.92009e-10
-1.20428e-07
-7.28476e-09
1.39975e-07
1.73466e-07
-7.48315e-08
1.57666e-07
1.31995e-07
-6.62258e-08
5.4198e-09
-4.21721e-08
2.13306e-08
-8.83413e-08
1.10608e-07
7.46431e-08
7.98477e-08
-6.49778e-09
8.00486e-08
6.23499e-08
-1.37282e-07
-5.11699e-09
7.03078e-08
6.78953e-08
-6.20815e-09
1.06012e-07
-6.39731e-08
7.12679e-08
6.38272e-08
-1.07855e-07
5.05526e-08
-6.52527e-09
6.89178e-11
-8.77603e-08
-2.72907e-10
1.09794e-10
-2.6105e-07
1.55073e-07
1.12597e-07
-9.24652e-08
1.22165e-08
8.08124e-09
3.65609e-08
3.80056e-08
-8.26477e-08
-1.11815e-07
1.73085e-09
1.11262e-07
-1.17767e-09
-8.67271e-08
8.64656e-08
1.38965e-10
1.22558e-10
1.08678e-07
-1.40227e-07
1.64995e-07
-1.33446e-07
1.25377e-08
-1.30671e-09
1.07594e-07
-2.72768e-08
6.48867e-09
-6.25395e-08
8.33277e-08
-6.20985e-08
1.19194e-07
4.75566e-09
-1.24245e-07
6.39862e-08
6.52668e-08
-5.00807e-09
-9.40924e-08
-2.20941e-08
9.79671e-08
1.52494e-10
6.51712e-08
-6.60779e-11
-6.52576e-08
1.23268e-07
-5.76837e-08
6.63771e-08
1.04823e-09
1.28151e-11
4.18502e-11
-8.28262e-08
1.49276e-07
-3.98952e-08
-2.47857e-08
-8.45952e-08
2.09596e-08
2.559e-08
-1.19713e-07
7.5416e-08
-2.95819e-08
1.88616e-08
1.16538e-07
7.14805e-08
1.40351e-07
-1.62128e-07
-5.41115e-08
-5.77527e-08
5.00166e-09
1.11877e-07
4.71607e-09
-6.16308e-08
-6.14284e-08
1.16849e-07
6.21005e-09
-1.26722e-08
8.29986e-08
-1.12034e-07
-1.04623e-10
5.98656e-08
-6.01722e-09
-6.45341e-10
-1.14504e-07
1.69207e-10
1.1498e-07
-1.12553e-07
1.37541e-07
-3.40013e-08
9.25007e-09
-7.72319e-09
4.25586e-08
9.38861e-08
-1.0866e-07
6.33018e-08
-2.2731e-08
6.80891e-08
-1.18437e-07
8.00341e-08
-1.12385e-07
1.10998e-07
2.06243e-10
7.91629e-08
1.88403e-08
-1.39761e-07
-1.80585e-08
1.3898e-07
-1.53959e-07
8.47287e-08
-1.16664e-07
-1.17291e-09
1.39896e-07
2.17174e-08
5.84067e-08
-8.45203e-08
4.39621e-09
1.22602e-07
-9.30181e-08
-4.1898e-10
-8.79591e-08
-1.71244e-10
-2.01216e-07
2.01253e-07
-3.68628e-10
-8.14481e-08
-8.36226e-08
-8.21231e-08
8.74645e-08
-9.58094e-08
7.37137e-08
-9.33285e-08
1.44676e-08
5.14723e-09
1.06794e-07
-7.74698e-08
-7.99334e-09
-1.31569e-07
-1.07902e-08
1.82301e-08
1.24129e-07
-2.61e-07
5.97188e-11
-1.14015e-07
1.13556e-07
-4.28884e-11
-8.19111e-08
-2.95185e-11
-1.82403e-10
-1.14427e-08
-8.03602e-08
1.28463e-07
-3.66606e-08
9.10988e-08
3.95894e-09
3.71931e-08
-1.17694e-07
1.16523e-07
-3.11128e-09
-5.68131e-08
1.25258e-07
-8.04556e-08
2.35377e-10
-1.11579e-07
-4.71537e-10
8.11531e-08
-8.26415e-08
1.75996e-10
-5.68567e-08
-5.72727e-08
1.0727e-07
6.8593e-09
9.67271e-08
1.51092e-08
-8.32599e-08
-2.85765e-08
-3.13635e-08
1.30557e-07
-1.07259e-07
5.11551e-09
-9.79821e-08
-1.60218e-08
1.10582e-07
5.46514e-11
-1.10563e-07
-7.39927e-11
2.07257e-08
6.42543e-09
4.64544e-08
-7.36055e-08
-1.22004e-07
6.51724e-08
-4.79959e-09
-1.00576e-07
9.21566e-08
-6.39843e-09
-2.06755e-10
1.06356e-07
-1.37176e-10
-6.84473e-08
-6.21031e-08
1.2501e-07
5.54061e-09
1.11798e-07
-5.88626e-08
-5.76332e-08
4.69809e-09
1.12368e-07
-1.85746e-09
7.15555e-11
-8.96151e-08
-7.82133e-08
8.59172e-08
-1.00415e-07
-3.94618e-08
-1.66136e-08
1.56118e-07
-9.02415e-08
2.45425e-08
-1.08496e-07
1.99626e-10
-8.99299e-08
4.2264e-10
-3.14206e-10
1.15078e-07
2.18676e-08
-2.31613e-08
-1.13784e-07
3.95028e-08
-1.09232e-07
-5.78655e-11
7.56515e-11
3.22361e-08
-1.63205e-07
-6.71894e-08
1.11369e-07
7.63429e-08
1.73637e-08
-1.2375e-07
-1.53589e-08
1.21745e-07
-7.0606e-08
5.83073e-09
1.15786e-07
-1.17428e-07
8.15163e-08
3.6423e-08
-5.1137e-10
-4.12248e-10
1.81639e-10
-8.20637e-08
5.65748e-08
-4.25435e-09
-1.30036e-09
-2.28473e-09
-2.02754e-09
8.07847e-08
-7.64724e-08
7.00116e-08
9.26323e-08
-8.86864e-08
-7.39575e-08
1.26638e-07
-1.40432e-07
-2.79262e-10
4.84661e-10
1.32785e-07
-8.24201e-09
-1.16995e-07
-3.55357e-08
1.30501e-07
9.15899e-09
1.03489e-07
-9.78602e-08
-4.70379e-09
-9.25225e-10
-5.54424e-10
9.75836e-08
1.43453e-07
-5.00866e-08
-1.24445e-09
7.90139e-08
-6.97643e-08
-6.66058e-10
5.39976e-10
1.19967e-07
-1.27632e-07
2.14071e-10
1.15943e-07
1.06061e-08
-1.02058e-08
8.11617e-08
-1.04112e-07
2.26789e-08
1.0351e-09
7.76132e-08
-6.994e-10
-7.79489e-08
-1.03367e-07
1.03653e-07
-2.44883e-10
1.17354e-09
-3.19272e-10
-9.89648e-08
9.85046e-08
-9.42742e-11
-9.76788e-08
-6.36593e-11
-2.39695e-10
6.11258e-08
-8.63548e-08
-6.57001e-08
9.09292e-08
-8.76113e-11
-1.02031e-07
1.02237e-07
-1.18937e-10
-4.94182e-08
1.37587e-07
-6.23616e-08
-1.63071e-08
-1.20155e-07
6.32187e-08
-6.16274e-09
2.41885e-08
-1.3834e-08
9.31347e-08
-1.19877e-07
5.72586e-08
5.56755e-08
6.94275e-09
-1.34682e-07
-9.36229e-08
9.76029e-08
-1.09568e-07
-3.73762e-08
4.9341e-08
1.13825e-07
-1.13948e-07
2.59896e-10
-1.36771e-10
-1.13216e-09
-1.55536e-07
5.19971e-10
1.56148e-07
-8.91909e-08
-2.81771e-11
8.92737e-08
-1.10747e-07
2.53941e-10
-6.94916e-11
6.20863e-08
-1.10236e-07
-5.96184e-09
-1.35164e-10
-1.13317e-07
-1.18292e-10
6.59277e-08
6.51472e-08
-5.26699e-09
-6.35127e-08
-6.37025e-08
1.21525e-07
5.69012e-09
-1.02863e-07
1.25863e-09
1.01905e-07
-3.00171e-10
1.08376e-07
2.61987e-08
9.53973e-08
-1.41114e-08
9.55022e-08
-4.39069e-09
-8.87124e-08
4.15887e-08
3.99846e-08
7.13909e-09
9.3697e-08
1.08762e-07
-1.06898e-07
-9.25304e-08
6.18715e-08
-6.01986e-08
-1.11644e-07
-8.88766e-08
9.73033e-08
1.03217e-07
9.63836e-08
-1.47298e-10
1.0123e-07
-1.02326e-07
1.32812e-09
-2.32195e-10
-1.11206e-07
-1.13243e-07
6.27568e-10
1.83311e-10
1.40128e-08
4.01079e-08
-1.4089e-07
1.24945e-08
-3.62084e-08
1.65668e-07
1.14787e-07
-4.52701e-08
-7.34352e-08
2.77394e-09
1.67475e-08
-1.78434e-08
1.1211e-07
-2.79399e-08
-6.6327e-08
9.43164e-08
-5.39469e-10
-9.35231e-08
-2.53769e-10
-3.46261e-08
-1.22801e-07
2.43599e-07
-8.61716e-08
9.23151e-08
-6.99178e-08
-6.79926e-10
3.84485e-10
9.05492e-08
-2.40074e-10
6.19595e-08
-6.20288e-08
1.00523e-07
-1.27755e-07
-1.09591e-07
6.68467e-08
1.06731e-07
-1.26967e-09
-2.63591e-08
-6.9003e-08
6.17744e-08
7.30293e-08
8.64929e-09
7.31202e-08
-1.11369e-07
2.55007e-09
1.27609e-07
-6.81149e-08
5.77286e-09
1.0118e-07
-1.30063e-07
1.16715e-07
-7.77036e-08
-2.61856e-08
-1.24522e-08
1.9086e-09
8.72136e-08
-9.69055e-08
5.84662e-08
-1.10543e-07
-4.77944e-09
1.28928e-07
1.45304e-08
-3.87588e-08
1.06432e-07
-6.69514e-08
-2.08357e-09
-2.20325e-08
1.19506e-07
-1.33686e-07
3.62129e-08
9.95644e-08
1.70039e-08
-4.72457e-08
1.6636e-09
-1.04189e-07
1.02066e-07
-1.23308e-09
-2.52929e-08
1.9614e-08
-8.34467e-08
8.91256e-08
6.53988e-08
-1.21901e-07
-4.92577e-09
-1.16348e-07
1.16443e-07
-2.3005e-10
-6.73783e-08
1.36139e-07
-1.03387e-07
-6.24923e-08
-6.99322e-08
1.58144e-08
-8.91494e-08
-1.1452e-10
1.88414e-07
-3.2588e-08
-6.5558e-08
-9.38074e-08
-6.32605e-08
1.13927e-07
1.94973e-07
-1.1384e-10
-7.68855e-08
-4.79433e-11
7.70473e-08
2.72456e-08
9.66614e-08
-1.12901e-09
1.2767e-07
5.10416e-09
8.37408e-08
5.01698e-08
2.64892e-09
6.31178e-08
-1.21811e-07
-4.81931e-09
-6.29144e-08
-7.1198e-08
1.25767e-07
8.34512e-09
-8.08841e-08
-3.96107e-09
-3.8672e-09
1.46322e-08
-1.12094e-07
9.58264e-08
-1.19917e-10
-1.04852e-07
-2.68377e-09
1.02743e-07
-7.48484e-08
-1.16222e-07
8.14488e-08
1.09622e-07
-9.8706e-08
3.4591e-08
6.75263e-08
-3.41131e-09
6.01957e-08
6.04565e-08
-1.14211e-07
-6.44116e-09
-6.17669e-08
-5.94172e-08
1.15339e-07
5.84544e-09
4.60097e-08
4.22386e-08
-9.80616e-08
9.81328e-09
-5.78866e-08
9.62e-08
-3.1188e-08
-7.1255e-09
9.33579e-08
-9.35896e-08
-4.13659e-10
-8.02897e-08
2.87908e-10
7.09468e-08
8.94224e-08
-2.43372e-08
-1.36032e-07
-2.62134e-08
7.57439e-08
3.27693e-08
-8.22997e-08
-8.71949e-08
-6.12955e-11
8.86478e-08
-1.39158e-09
-6.34008e-08
-3.63603e-08
8.19176e-08
1.08809e-07
-3.08209e-09
6.05413e-08
-1.12817e-07
5.6799e-08
-4.52321e-09
-4.3954e-08
2.81396e-08
-9.74821e-08
1.0189e-08
1.15326e-07
-8.76051e-08
-3.85778e-08
1.29693e-07
6.72256e-08
-6.28508e-08
5.48577e-10
-1.08266e-07
1.46251e-11
7.67506e-08
-6.46911e-08
8.75738e-08
-1.04509e-07
4.99397e-08
4.75059e-08
7.06329e-09
6.3124e-08
-4.08765e-09
3.44298e-08
5.59699e-08
7.33648e-09
7.83766e-09
1.07182e-07
-8.28897e-09
-4.16182e-09
-7.02674e-08
6.87011e-08
1.13677e-07
-6.38002e-08
-1.32613e-07
1.33194e-07
1.4034e-07
5.23074e-08
-4.91933e-08
-1.43454e-07
1.21577e-08
-1.09782e-07
1.1835e-07
-6.709e-08
-6.24972e-08
1.23957e-07
5.63016e-09
-3.99445e-08
-8.9409e-08
1.45583e-09
5.86547e-08
-5.94478e-09
1.14205e-07
-6.37705e-11
-3.15604e-10
1.88911e-08
-7.37602e-08
7.90577e-08
3.19416e-10
6.43247e-11
-1.16732e-07
1.1134e-09
8.05467e-08
-7.93198e-08
9.99668e-09
-7.18541e-08
1.22761e-07
-6.09036e-08
-2.37029e-08
-1.15396e-07
1.12185e-09
1.37977e-07
7.91553e-08
-1.5265e-07
6.01184e-08
1.33765e-08
-1.08195e-07
7.78294e-08
-8.36487e-08
8.91508e-08
-4.35708e-10
-8.8202e-08
-5.13115e-10
-3.94212e-08
-1.13781e-07
3.99723e-08
1.1323e-07
-6.41942e-08
-1.04411e-07
1.29426e-07
3.91785e-08
-2.69694e-09
-1.23625e-07
1.24116e-07
2.20612e-09
-1.1015e-07
1.10168e-07
-1.14943e-09
-1.21507e-07
1.0751e-07
-5.47355e-08
1.17015e-07
6.14827e-08
-5.30791e-09
6.52564e-08
-1.18559e-07
-5.45522e-08
-1.09734e-07
7.44358e-08
-8.67051e-08
-1.23785e-08
1.20791e-07
-7.4336e-08
-3.02322e-08
1.07077e-07
-1.05305e-07
-3.01517e-09
1.24352e-09
-8.41827e-08
-2.12469e-09
3.48117e-09
-2.90943e-12
-1.2844e-07
1.25746e-07
-8.11992e-08
-6.66366e-10
9.81445e-10
-8.00145e-08
6.72812e-08
1.30242e-08
-2.90832e-10
-4.75783e-08
-1.13963e-07
1.53358e-07
8.18352e-09
1.01868e-07
-4.38531e-10
5.07577e-08
4.221e-08
-1.02125e-07
9.15724e-09
-9.73303e-08
-1.35966e-10
9.75871e-08
-1.2082e-10
-9.41387e-08
1.26454e-08
-2.08322e-08
5.57761e-08
-1.08748e-07
4.56714e-08
7.30017e-09
-4.03518e-09
-8.15333e-08
4.12033e-09
1.32599e-09
-1.14702e-07
1.73217e-09
4.80266e-08
6.4509e-08
-1.40271e-07
1.77739e-08
1.12704e-07
1.75946e-08
1.12625e-07
-1.13202e-07
8.40858e-10
-2.64146e-10
-1.7597e-07
1.65722e-07
7.45888e-08
-6.43411e-08
4.79647e-08
-1.24833e-07
9.54835e-08
-1.86152e-08
6.39017e-08
-5.7634e-09
-5.5842e-10
1.82029e-10
5.12065e-08
-5.4066e-08
-9.96895e-08
1.39678e-07
-1.14726e-07
9.7598e-08
-1.35549e-08
4.6483e-10
-1.29055e-07
1.28974e-07
1.10063e-07
-1.34271e-07
-1.08516e-09
-7.48273e-08
-7.14469e-08
1.40573e-07
5.70129e-09
8.43634e-08
1.09195e-10
-8.43894e-08
-8.32327e-11
-1.26939e-07
6.79576e-08
6.3357e-08
-4.37539e-09
-1.70201e-07
1.0568e-07
-1.18529e-07
1.8305e-07
-1.63058e-07
2.19996e-08
-3.94893e-08
-9.70146e-08
-1.39869e-07
8.52439e-08
3.25924e-08
-1.21052e-08
-1.10059e-07
1.1993e-07
2.23354e-09
-2.54998e-09
-9.64302e-08
-8.07037e-09
1.04918e-07
-8.51946e-08
9.64337e-08
-2.71842e-08
1.43781e-07
5.14586e-08
1.67753e-07
-1.08138e-07
-1.0428e-07
4.30926e-10
1.0558e-07
-1.05872e-07
-1.38299e-10
8.84035e-08
-9.62881e-08
3.84936e-09
-7.09044e-08
-8.0045e-10
5.96842e-08
9.25954e-08
-3.8075e-08
5.64095e-08
-1.06847e-07
-4.29817e-09
9.17348e-11
1.02961e-07
-1.02813e-07
-2.39159e-10
-1.06834e-07
-1.45005e-10
1.07296e-07
-3.17276e-10
-1.0722e-07
3.81534e-08
-2.8794e-08
-1.00695e-08
8.55096e-08
6.9908e-08
-1.57898e-09
-1.53839e-07
2.10549e-09
-1.49631e-10
-1.47044e-08
7.13138e-08
-1.27869e-07
7.1259e-08
-1.11266e-07
1.12935e-07
5.78338e-08
-5.88947e-09
2.32927e-08
-1.14871e-07
-3.25098e-08
1.24088e-07
3.92381e-08
1.00005e-08
3.1563e-08
-8.08016e-08
6.10727e-08
6.62476e-08
-1.2169e-07
-5.63051e-09
-9.40953e-08
9.25164e-08
1.73388e-09
-1.5501e-10
-5.99025e-08
6.57773e-09
4.90702e-08
-4.71959e-08
1.0922e-07
-1.11094e-07
-9.0931e-08
1.90802e-07
-3.96315e-08
-6.02395e-08
7.49637e-08
-6.46915e-08
-6.49099e-08
5.46377e-08
5.99208e-08
-4.95737e-08
-1.23935e-07
4.74406e-08
9.11612e-09
5.0961e-08
7.05006e-08
6.66585e-08
6.76403e-08
-1.28279e-07
-6.02025e-09
1.19014e-07
7.06741e-09
-5.08379e-09
-1.20997e-07
9.35399e-08
1.02033e-09
-2.43791e-10
8.80173e-08
-8.9446e-08
2.01286e-09
-5.84076e-10
-5.85561e-08
-6.89903e-08
1.20865e-07
6.68093e-09
-1.08992e-07
1.26232e-09
5.09687e-10
-9.74701e-08
2.14923e-11
1.18231e-10
9.90045e-09
1.08625e-07
1.00953e-07
1.82265e-09
-9.07948e-10
-3.80811e-11
-9.14462e-08
9.13483e-08
8.88259e-08
1.58592e-08
2.39193e-09
-9.74578e-09
3.19473e-08
-1.0647e-07
8.42688e-08
1.13343e-07
-1.13179e-07
6.32151e-11
-2.27244e-10
-2.6086e-08
-1.03609e-07
1.51694e-07
-1.06042e-07
-1.74132e-08
1.27574e-07
-4.11843e-09
1.36121e-07
-1.16096e-07
-2.02109e-08
-1.75717e-08
1.12746e-07
1.14134e-07
-1.14418e-07
2.64511e-10
1.93279e-11
1.33154e-07
-4.04499e-08
-1.31612e-07
3.89074e-08
1.09098e-07
-1.09236e-07
1.30197e-07
-1.30059e-07
7.50904e-09
-1.08471e-08
-8.76329e-08
9.0971e-08
2.38795e-08
-9.10044e-08
-3.86591e-08
1.05784e-07
7.57573e-08
7.00481e-08
-1.40103e-07
-5.70225e-09
1.79717e-07
-1.89145e-07
-2.69251e-08
-1.5943e-07
9.39837e-08
-1.14919e-08
1.10481e-08
-1.62839e-07
1.41674e-07
-7.52576e-08
1.17088e-07
-1.9921e-07
1.5738e-07
7.13429e-08
-1.40987e-07
-5.61306e-09
1.87473e-08
8.02305e-08
-1.3972e-08
-8.50058e-08
-8.18688e-10
1.19743e-07
-1.36859e-08
-1.03417e-07
-5.25025e-08
1.36363e-07
-9.48006e-08
1.09404e-08
-2.55211e-08
7.36146e-08
-4.07097e-08
-7.38384e-09
1.96451e-10
-9.19625e-08
9.20304e-08
-2.64323e-10
2.49819e-09
1.10551e-07
-1.12032e-07
-1.0166e-09
-1.02289e-07
-1.10795e-07
1.21404e-07
9.64801e-08
1.40708e-08
7.57498e-08
1.66146e-09
-4.19485e-08
-3.87995e-08
1.14048e-07
-2.11172e-07
6.59485e-08
-1.35662e-07
1.06676e-07
-6.19442e-08
1.0893e-07
-1.06099e-07
-3.32495e-10
-8.67702e-08
1.59291e-09
-2.27132e-09
8.74486e-08
5.52572e-08
-1.67074e-07
-1.34313e-07
-4.29044e-11
1.14709e-07
-1.1454e-07
-1.258e-10
-9.52829e-08
-3.19395e-08
1.20497e-07
5.15955e-09
-7.82443e-09
9.86276e-08
-8.83992e-08
-9.89769e-09
1.26505e-07
-1.07311e-07
4.98392e-10
-2.14554e-11
5.7269e-08
-1.39845e-07
7.61949e-08
6.381e-09
-1.28357e-09
-9.67212e-08
-1.31526e-09
1.13866e-07
5.04079e-09
-9.63451e-08
4.89528e-08
4.55487e-08
1.84354e-09
-9.36077e-08
2.57102e-08
1.27818e-07
4.41617e-10
1.21256e-07
-6.27107e-10
-1.21071e-07
5.36582e-09
1.0715e-07
-2.29674e-08
-8.95484e-08
1.26004e-07
-1.42615e-07
7.44616e-08
-5.78498e-08
4.20717e-08
1.06057e-07
-5.20637e-08
-5.96653e-09
7.64897e-08
7.1683e-08
-1.3627e-07
-1.28976e-08
-5.55511e-09
9.52739e-08
-1.14813e-07
1.05676e-07
5.27116e-11
-1.06127e-07
3.98274e-10
6.47416e-09
8.87985e-08
-4.1738e-09
6.93386e-08
-1.71731e-07
2.7544e-08
-1.17057e-07
2.16107e-09
-6.64171e-08
-5.70858e-08
1.17375e-07
6.12842e-09
-9.44391e-08
-4.37216e-08
3.01342e-08
1.08027e-07
-1.07997e-07
-5.40756e-10
-4.53436e-10
-6.183e-08
1.30682e-07
-7.39905e-08
5.13811e-09
6.73004e-08
-1.3281e-07
6.8306e-08
-2.79646e-09
-1.02377e-07
-3.17312e-10
9.3284e-08
-9.56791e-08
4.15214e-09
-1.757e-09
1.34498e-07
-7.51178e-08
7.92025e-09
-1.05091e-07
1.70284e-08
-1.72432e-08
5.25732e-08
-8.67607e-08
-1.93575e-08
1.13658e-07
-1.13029e-07
-1.64361e-10
6.22203e-08
5.39844e-08
-5.52816e-08
-6.0923e-08
7.02819e-08
1.30261e-07
-1.40347e-07
6.99353e-08
6.06629e-08
-1.2644e-07
-4.15831e-09
-1.07052e-07
5.62007e-08
4.3312e-08
7.53952e-09
1.27307e-10
1.14045e-07
-3.88858e-11
7.11877e-08
6.63167e-08
-1.31728e-07
-5.77582e-09
9.25968e-08
1.07459e-07
-8.90085e-09
-9.53607e-08
-3.19716e-09
8.69876e-08
2.0438e-10
1.29988e-07
-1.3168e-07
-7.07612e-08
7.24534e-08
4.54467e-08
5.45554e-08
7.45658e-09
-5.59368e-09
-1.4353e-07
1.68418e-08
7.26801e-08
-3.54433e-09
5.13595e-09
1.34494e-07
1.14739e-07
-1.93457e-07
-1.08676e-07
9.85757e-10
-1.30059e-09
1.08991e-07
4.39045e-10
9.18546e-08
-9.22449e-08
-4.87342e-11
-7.03075e-08
1.58883e-07
-1.55666e-07
4.80092e-08
1.08609e-07
-5.90529e-08
-9.75649e-08
4.18928e-08
5.3935e-08
-1.02963e-07
7.13493e-09
1.31735e-07
-9.50159e-09
1.83398e-08
-1.19186e-07
-5.41427e-09
2.94303e-08
-1.13662e-07
-1.69168e-08
-8.28595e-08
-9.97219e-08
9.63484e-08
1.8332e-08
-4.91099e-09
-1.78593e-08
8.88774e-08
2.53304e-08
9.13233e-08
-6.90907e-08
-8.64195e-10
1.13907e-07
2.73465e-09
1.56196e-10
-5.6594e-11
-1.9521e-07
-1.53948e-08
-1.10775e-10
1.54329e-07
1.54697e-08
-1.62579e-07
-1.07301e-08
2.3881e-07
-1.05504e-07
-1.22576e-07
-1.46147e-07
1.19413e-07
1.01007e-07
-1.26597e-07
-5.9432e-08
6.51923e-08
-6.68608e-08
6.11005e-08
1.05452e-07
-1.08169e-07
-3.00761e-09
5.72418e-09
-3.39849e-09
-5.68189e-08
6.93497e-08
-1.58678e-07
-7.04928e-08
5.71966e-08
4.04999e-08
-1.0957e-07
2.27817e-07
-3.76409e-08
-9.01415e-08
-1.20626e-08
-6.79885e-08
1.3651e-07
1.76064e-09
-2.9507e-08
-6.28816e-08
7.9591e-08
1.27977e-08
3.44885e-08
-1.54129e-07
7.00667e-08
4.95735e-08
-9.73625e-08
9.72627e-08
8.41302e-11
1.56102e-11
8.44937e-08
-2.44134e-10
1.17105e-08
1.10251e-07
1.02627e-07
-6.3044e-09
-7.67081e-08
-1.38265e-07
1.75668e-08
9.42898e-10
1.1988e-07
-7.29647e-08
1.14908e-07
-3.8705e-08
-5.51218e-09
2.65112e-09
1.14012e-07
-2.75623e-09
9.17148e-08
3.42693e-08
-1.35447e-07
-2.57614e-08
-1.10528e-07
-9.48101e-08
-7.45206e-08
3.77613e-08
-1.05608e-08
9.9755e-08
-7.67796e-09
-8.29191e-08
-9.40459e-08
-3.5319e-09
8.39213e-08
-1.07336e-07
9.02953e-08
-4.84449e-10
-8.9304e-08
-5.06929e-10
-2.24348e-08
-1.30243e-07
-1.54918e-07
1.54634e-07
9.98762e-08
-4.25866e-08
1.20153e-08
-6.9305e-08
1.02357e-07
-4.23053e-10
-1.01694e-07
-2.40175e-10
1.06354e-09
9.28888e-08
-9.40372e-08
8.48382e-11
2.5399e-08
1.07994e-07
-3.24403e-08
-7.00039e-08
-7.28811e-08
1.00749e-08
6.71551e-09
9.64796e-08
-9.94331e-08
-3.76206e-09
-1.0928e-07
1.18481e-07
-2.48617e-09
-1.18761e-07
-2.70982e-09
-1.29163e-07
1.30703e-07
-4.93209e-08
-7.4059e-08
1.28789e-07
-5.40854e-09
9.39888e-08
-1.33218e-08
6.44128e-10
-2.47792e-10
3.99871e-08
1.06441e-08
-2.35251e-10
-5.45496e-10
6.63351e-08
7.27837e-08
-5.96438e-09
-2.9241e-08
8.97254e-08
6.84392e-08
-2.44754e-07
-6.50906e-08
1.95799e-07
1.13755e-07
1.1188e-07
-4.65803e-08
-7.12333e-08
5.51971e-09
-4.07194e-10
-1.12508e-07
-2.86686e-10
4.9438e-08
5.79323e-08
-1.05841e-07
-1.52954e-09
-1.03071e-07
1.02718e-07
3.0161e-10
5.12329e-11
9.46766e-08
2.79689e-08
-1.16479e-08
1.03123e-09
1.68594e-07
-3.90253e-09
-4.75028e-08
-7.38978e-08
-2.53454e-09
-8.89777e-08
-1.98557e-08
6.34652e-10
9.36093e-08
-9.32236e-08
6.79488e-08
-1.64541e-07
9.62088e-08
-8.45658e-10
-6.86433e-10
6.24318e-08
5.66392e-08
-1.16051e-07
-3.02009e-09
-1.41469e-07
7.07858e-08
-1.96576e-08
-2.27435e-08
-3.05987e-08
1.08365e-07
-5.50225e-08
-2.51145e-08
6.24151e-08
2.60565e-08
-1.20357e-07
-7.83646e-08
8.19385e-08
1.16784e-07
6.69273e-08
-5.49998e-09
5.83508e-08
1.13465e-07
-4.77958e-08
-1.2402e-07
-3.1959e-09
9.97877e-08
1.25789e-08
-1.09171e-07
9.50543e-08
-8.11009e-08
-1.75605e-08
3.60715e-09
1.22721e-07
-1.63157e-07
1.50987e-07
1.26548e-07
-6.16864e-08
-5.91298e-08
-5.73189e-09
3.65174e-08
-1.46286e-07
-1.03346e-07
-1.075e-07
-2.64104e-10
-1.61981e-07
1.37347e-07
-1.41153e-07
1.65788e-07
7.87427e-08
-1.28879e-07
-2.38382e-08
1.06812e-07
-1.06207e-07
-4.43787e-10
-1.61853e-10
5.21751e-08
-1.0313e-07
-5.86375e-09
-5.81038e-09
7.75195e-08
-1.54644e-07
6.23713e-08
-1.17384e-07
-2.3122e-10
9.37342e-11
1.17521e-07
-1.6646e-07
1.13787e-07
-6.21345e-08
-7.25729e-08
-2.94231e-08
-6.22171e-09
5.20361e-08
6.06236e-08
-5.9841e-09
-4.76152e-08
-5.42861e-08
-5.15086e-09
-3.11699e-09
-8.80443e-08
-8.98587e-08
-9.6174e-10
-5.52465e-09
6.32195e-08
-6.25119e-08
2.2302e-10
-9.30637e-10
9.60023e-08
-9.44091e-08
-1.04498e-09
-5.48247e-10
-9.59682e-10
1.13002e-07
-1.1178e-07
-2.6276e-10
-1.17563e-07
1.21206e-08
9.92848e-08
6.15748e-09
1.10163e-07
-1.0484e-07
-3.63739e-09
-1.68502e-09
-9.59777e-08
-8.60517e-10
9.73422e-08
-5.04056e-10
-8.96954e-08
-5.48607e-08
8.35379e-08
2.92908e-08
-8.30043e-09
-1.04528e-07
6.83018e-08
-7.20457e-08
3.13153e-09
6.12406e-10
3.86978e-08
3.2393e-08
-1.10512e-07
9.66599e-08
-9.42325e-08
-6.62585e-09
4.19843e-09
-4.51793e-08
4.61815e-08
1.31819e-07
4.1895e-09
1.10298e-07
-8.26918e-08
1.05475e-08
-2.41861e-08
-9.56892e-09
-8.66024e-08
-3.00393e-08
1.65353e-07
4.93511e-09
-1.41485e-07
1.12305e-07
-2.87631e-08
-1.69923e-08
1.93782e-08
-6.88682e-08
4.86861e-09
-1.08507e-07
1.08708e-07
5.19546e-08
-6.20315e-08
-2.62833e-08
6.93978e-08
2.48726e-09
5.97876e-08
5.242e-08
-7.29695e-08
-7.14635e-08
9.83966e-08
-1.10453e-08
-6.06839e-08
5.04459e-09
8.11568e-08
9.82775e-09
1.93868e-08
2.09871e-08
-8.97217e-09
4.5773e-08
5.34902e-08
6.79361e-09
-4.233e-08
1.37547e-07
-1.42795e-07
-1.48802e-07
7.46053e-08
1.89177e-07
-1.27051e-07
9.14356e-08
-2.72281e-08
5.23639e-08
-1.16571e-07
-1.07876e-07
-3.69708e-08
-1.25004e-07
-4.81411e-09
-8.67492e-08
6.94682e-08
-7.62599e-08
9.3541e-08
6.97183e-09
-1.01865e-07
-1.21269e-07
-6.2357e-09
-4.175e-09
-1.10094e-07
9.96598e-08
1.05488e-07
1.70033e-08
9.1684e-08
1.84096e-09
-1.14698e-07
1.06011e-07
-7.27434e-08
8.14298e-08
-9.13433e-08
1.14851e-08
-1.76118e-08
-3.00557e-08
-5.1447e-08
1.36289e-07
-4.49444e-08
-9.75087e-08
-3.6599e-08
1.13066e-08
-6.19782e-08
-7.37656e-08
7.20591e-09
-6.0415e-08
6.94849e-08
6.91848e-08
1.98507e-08
3.65287e-08
-1.25564e-07
9.1914e-08
-2.26387e-08
-5.64072e-08
-5.66104e-09
-6.96754e-08
-7.63393e-08
4.5459e-09
5.59447e-08
-6.37056e-08
-4.24609e-08
5.02218e-08
-4.50245e-08
-7.77839e-09
1.24856e-07
-1.57882e-07
3.33763e-08
-3.50766e-10
-6.89471e-09
2.30947e-08
6.85466e-08
-8.47465e-08
4.3421e-10
-8.1552e-08
-3.75502e-10
8.14933e-08
-8.96173e-08
8.94971e-08
9.9738e-11
2.04461e-11
1.11582e-07
-6.21317e-08
-1.13153e-07
-5.5091e-08
-3.41567e-08
9.08062e-08
-1.55844e-09
1.31828e-07
9.92092e-09
-9.9887e-08
4.48929e-09
-1.18758e-07
1.61707e-08
-2.31707e-10
-1.754e-07
-1.02063e-07
1.0205e-07
-2.18418e-10
3.00438e-08
1.08466e-07
-1.26542e-07
-9.26795e-09
-1.47936e-08
2.03615e-07
-7.17397e-11
-1.2647e-07
-4.23351e-09
8.71245e-08
-8.60636e-08
-2.57574e-11
-7.58631e-09
1.6048e-08
2.25141e-08
1.0482e-07
-1.37296e-08
1.01526e-07
-8.14441e-09
-2.91577e-09
1.10083e-07
-1.05797e-07
-1.37023e-09
-9.37263e-08
1.06115e-07
-5.30052e-09
1.0496e-07
4.55645e-09
-2.71942e-08
-8.23222e-08
1.02353e-07
1.3037e-09
-1.01952e-07
-1.70427e-09
-6.13731e-08
-4.67768e-08
6.06471e-08
7.99164e-08
2.05037e-09
1.35329e-07
1.67384e-08
-3.05418e-08
-1.28373e-08
3.2577e-09
-6.73059e-08
1.06115e-07