/*--------------------------------*- C++ -*----------------------------------*\
| =========                 |                                                 |
| \\      /  F ield         | OpenFOAM: The Open Source CFD Toolbox           |
|  \\    /   O peration     | Version:  2212                                  |
|   \\  /    A nd           | Website:  www.openfoam.com                      |
|    \\/     M anipulation  |                                                 |
\*---------------------------------------------------------------------------*/
FoamFile
{
    version     2.0;
    format      ascii;
    arch        "LSB;label=32;scalar=64";
    class       volVectorField;
    location    "0.002";
    object      U;
}
// * * * * * * * * * * * * * * * * * * * * * * * * * * * * * * * * * * * * * //

dimensions      [0 1 -1 0 0 0 0];

internalField   nonuniform List<vector> 
31639
(
(0.103375 0.00037768 -0.000333503)
(0.103071 -0.000275039 0.000298415)
(0.10362 -0.000341815 0.000169858)
(0.103702 0.000166218 0.000116141)
(0.103073 -0.000251953 8.49696e-05)
(0.103256 0.000132086 -0.000119495)
(0.102752 2.63284e-05 -0.00014772)
(0.102852 -0.000147774 -0.000214382)
(0.103102 0.00029476 9.5096e-05)
(0.103763 -0.00010387 -0.00020044)
(0.103939 0.000178895 -0.000116678)
(0.103556 -0.000313447 -0.000441861)
(0.103158 4.56949e-05 -6.23592e-05)
(0.103385 8.88728e-05 5.3995e-05)
(0.102763 -0.000277466 0.000157111)
(0.102723 -9.98484e-05 0.000272846)
(0.102749 5.49699e-05 -0.000234203)
(0.102204 6.68993e-06 -1.73819e-05)
(0.102528 0.000423456 8.98993e-05)
(0.103433 0.000105826 -0.000347316)
(0.102063 -0.000256496 0.000249521)
(0.103389 6.48265e-05 0.000111373)
(0.103115 -3.77263e-06 0.000176317)
(0.102778 0.000246902 -2.56319e-05)
(0.102349 -0.000228528 -0.000138632)
(0.103142 -8.8544e-06 -0.000287431)
(0.103335 -0.000138256 0.000276678)
(0.104563 0.000517472 0.000439202)
(0.102601 0.000107663 0.000467845)
(0.10331 0.000147034 0.000137322)
(0.103857 -0.000147445 -6.25958e-05)
(0.102194 -6.7146e-05 -0.000145939)
(0.1035 0.000341135 -0.000262119)
(0.102592 -2.17746e-05 -0.000149943)
(0.102055 -3.75022e-05 -6.40063e-05)
(0.103208 0.000386236 -0.000217091)
(0.101489 4.79308e-05 -5.31957e-05)
(0.10364 -0.000164146 -8.25379e-05)
(0.103686 -5.05136e-05 -5.40184e-05)
(0.101497 0.000258482 -0.000281191)
(0.102011 9.16438e-05 6.1655e-05)
(0.101843 0.000145541 -1.31333e-05)
(0.103571 9.86229e-05 3.32868e-05)
(0.103911 -0.000663119 -0.000266152)
(0.103303 -0.000287378 0.000212437)
(0.104381 -0.000400045 -0.000243847)
(0.102776 0.000418346 -6.03934e-05)
(0.102743 0.000426484 -9.8237e-05)
(0.102703 0.000139137 0.000319584)
(0.103562 -0.000276327 2.61861e-05)
(0.103997 6.40284e-06 -5.58454e-05)
(0.101654 0.000242667 -0.000107845)
(0.103759 0.000111733 0.000175083)
(0.101575 -4.29124e-06 5.86237e-05)
(0.102849 -0.000135665 -0.000224358)
(0.102433 0.000234084 -7.44424e-05)
(0.102003 0.000369152 -0.000262029)
(0.103221 6.1901e-05 0.000258711)
(0.103231 4.4477e-05 0.000364535)
(0.101872 -0.000146713 -5.6059e-05)
(0.103147 7.76622e-05 -7.96152e-05)
(0.103147 0.00010097 -0.000322396)
(0.102318 -7.2288e-05 -2.91328e-05)
(0.103408 2.78939e-05 -8.05135e-05)
(0.102915 0.000165605 7.16654e-05)
(0.10371 0.000218206 -0.00023821)
(0.102623 0.000169755 -0.000327796)
(0.103227 0.000127944 -0.000235777)
(0.10235 -0.000157081 0.000235454)
(0.103568 0.000257923 -0.000117047)
(0.103909 -0.000186239 0.000370903)
(0.102421 -0.00043476 -9.81249e-05)
(0.104069 -0.00014825 -0.000251148)
(0.103273 0.000118737 -0.000250783)
(0.103219 5.04021e-05 -1.72196e-05)
(0.101753 2.41252e-05 0.000139607)
(0.103942 -0.000279272 0.000135675)
(0.102773 0.000154572 -7.76526e-05)
(0.103219 -7.44487e-05 0.000249794)
(0.103352 0.000248974 0.000121022)
(0.102663 0.000164421 6.79612e-05)
(0.101214 -1.92268e-05 7.47626e-05)
(0.103951 -1.39954e-05 -0.000350556)
(0.103556 -0.000131046 5.17252e-05)
(0.103299 5.68924e-05 -7.24275e-05)
(0.103904 -0.00041973 -0.000163514)
(0.103792 8.82635e-05 0.000176265)
(0.104009 0.000138111 -3.72785e-05)
(0.101859 0.00017868 -0.000376112)
(0.103668 0.000295052 -0.00040862)
(0.103604 0.000165014 -0.000126695)
(0.102365 -0.000229608 -0.00019145)
(0.102075 0.000138939 -0.000306985)
(0.103094 1.29683e-05 -2.94126e-05)
(0.102297 -0.000308304 -8.05598e-05)
(0.102961 0.000698402 3.31456e-05)
(0.103016 0.000318249 -0.000251646)
(0.103379 -0.000111011 0.000379746)
(0.103281 5.00354e-06 -0.000222612)
(0.101931 -0.000264303 -0.000434519)
(0.102845 0.00017273 -6.00752e-05)
(0.102887 0.000283977 0.000321056)
(0.102863 0.000234959 -7.72443e-05)
(0.101624 -6.5315e-05 0.000164098)
(0.102018 9.8174e-05 -0.000177594)
(0.104183 -0.00024856 -0.000252278)
(0.101388 0.000216569 2.20136e-05)
(0.101814 0.000302685 -0.000590053)
(0.102369 9.55307e-05 0.000134009)
(0.101678 -9.15651e-05 7.9222e-05)
(0.103578 -0.000236679 0.000118882)
(0.102225 0.000186838 -0.000291932)
(0.103113 -0.000325889 -0.000188122)
(0.102584 -0.000329221 -0.00023836)
(0.103423 7.59021e-05 -0.000233348)
(0.101686 -0.000212765 -0.000254688)
(0.102735 0.000189984 -5.09067e-05)
(0.102535 -0.000361932 -6.58261e-05)
(0.102769 -7.46805e-05 0.000125961)
(0.103267 -0.000132962 0.000259277)
(0.10282 -0.000304222 9.98891e-05)
(0.103824 -0.000193974 0.00026597)
(0.103824 0.000220813 1.85968e-05)
(0.103051 0.000168694 -0.000571876)
(0.103173 0.000198004 -0.0004896)
(0.103378 -0.00034216 -5.76679e-05)
(0.103212 0.000138454 0.000333419)
(0.102237 0.000263449 6.83143e-05)
(0.102411 7.3387e-05 -8.04892e-06)
(0.10374 2.80069e-05 0.000119295)
(0.103429 0.000211248 -4.66345e-05)
(0.103439 0.000288598 -8.89003e-05)
(0.10352 -9.65178e-05 3.66234e-05)
(0.103108 9.88722e-06 -1.39663e-05)
(0.103276 4.00089e-05 0.000102543)
(0.103435 0.000146722 -0.000137248)
(0.101787 0.000212683 -0.000197713)
(0.101842 -0.000188315 -0.000380918)
(0.104105 0.000333424 0.000300319)
(0.103453 -0.000174117 2.83368e-05)
(0.103398 -0.000132434 0.000216833)
(0.103762 5.08784e-05 0.000304186)
(0.103617 -8.77409e-06 -5.24005e-05)
(0.101712 -0.000240274 8.11338e-05)
(0.101829 1.61015e-05 -0.000301667)
(0.103184 -4.05503e-05 0.000127002)
(0.103281 1.81959e-05 -0.000309885)
(0.101904 -0.000289028 8.47502e-05)
(0.102092 0.00014009 3.64287e-05)
(0.103143 -0.000130946 -0.000298069)
(0.102235 7.40698e-05 -0.000142017)
(0.102831 0.000109383 -9.62525e-05)
(0.102747 -8.93959e-05 -0.000327529)
(0.10333 -6.28902e-05 -0.000140649)
(0.102302 0.000102912 -0.000350784)
(0.103663 3.53937e-05 0.000181564)
(0.103019 -0.00016721 -6.45902e-06)
(0.102437 -0.000100561 0.000256278)
(0.102007 -0.00022403 6.5204e-05)
(0.102901 -2.28619e-06 -0.000126733)
(0.103997 3.09016e-05 -0.000119313)
(0.101675 -8.60133e-05 0.000169339)
(0.102076 -0.00046051 -0.000107532)
(0.101753 -6.58132e-05 -0.000283985)
(0.10201 -0.00016993 -0.000101012)
(0.102706 9.12489e-05 -4.8098e-05)
(0.101757 0.000233085 0.000293366)
(0.103448 -0.000272774 0.000266356)
(0.103975 -0.000371782 7.76722e-05)
(0.101619 -7.11728e-05 0.00022461)
(0.102386 -3.20648e-05 0.000107276)
(0.103035 0.000208758 -0.000409292)
(0.101835 -6.31781e-05 7.30662e-05)
(0.1033 2.17799e-05 -0.000129253)
(0.10393 -0.000183068 -0.000167668)
(0.103178 -4.75307e-05 -0.000228111)
(0.103384 0.000278036 -6.42843e-05)
(0.103195 0.00023251 -6.85873e-05)
(0.103553 -8.78695e-05 -0.000152559)
(0.103262 9.98648e-05 -0.000174585)
(0.103418 9.24753e-05 -0.00011188)
(0.102754 -0.000132089 0.000262453)
(0.103057 0.000483218 3.91789e-05)
(0.101888 0.000413283 -0.000116053)
(0.103321 -0.000302699 0.000384421)
(0.103481 0.000609624 -0.000440571)
(0.102828 -0.000290059 0.000291543)
(0.103196 -5.62283e-05 -0.000103852)
(0.102134 0.000238672 -5.71146e-05)
(0.10178 -9.20179e-05 0.000428649)
(0.103682 -3.70462e-06 -0.000309534)
(0.103405 -0.000111084 0.000325449)
(0.102516 -0.00027166 0.000314134)
(0.103299 8.72623e-05 0.000393469)
(0.103473 0.000257849 -3.5384e-05)
(0.102947 0.00015051 0.000234443)
(0.102479 0.000433466 0.000155786)
(0.103927 6.36705e-05 0.000241734)
(0.101777 -3.49366e-05 -0.000141874)
(0.102551 0.000276124 -0.000165964)
(0.10356 2.61084e-05 -6.73291e-05)
(0.103316 0.000210059 -0.00011395)
(0.103461 -0.000164192 2.49663e-05)
(0.103102 -0.000644658 -4.9172e-05)
(0.102756 -0.000191216 3.78179e-05)
(0.103164 -1.55992e-05 0.000150535)
(0.103338 -0.000225177 0.000261818)
(0.103149 -0.000153754 5.26892e-06)
(0.1033 5.19713e-05 -0.000413819)
(0.101562 -0.000116186 -0.000336525)
(0.103362 0.000144182 -0.000312643)
(0.102725 0.000377716 -0.000114311)
(0.103212 0.000107266 -0.000154276)
(0.103092 0.000293869 -8.83728e-05)
(0.10303 -0.000171233 -0.000143859)
(0.1034 -3.12912e-05 2.12436e-05)
(0.102175 -9.10973e-05 0.000178462)
(0.102601 3.30711e-06 0.000221087)
(0.103259 -0.000161492 -0.000171318)
(0.103912 -0.0001301 0.000355529)
(0.103672 7.52401e-05 -5.31353e-05)
(0.103068 -5.26503e-05 -0.000249073)
(0.10144 -0.000118851 0.000262187)
(0.103332 -0.000516585 0.000283964)
(0.101714 -2.1403e-05 -0.000106826)
(0.10286 -8.05344e-05 0.000144334)
(0.103411 -0.000266299 4.02242e-05)
(0.102808 0.000287151 0.000325357)
(0.102002 -2.88327e-05 0.000101289)
(0.102759 0.000260605 -9.44764e-05)
(0.103477 -0.000120916 -0.000134697)
(0.103949 -0.000219171 -0.000211787)
(0.101903 -5.61803e-06 -0.000122129)
(0.101627 -0.000130736 -7.84456e-05)
(0.102823 0.000132924 -7.15739e-05)
(0.103281 -0.000142619 -0.000188703)
(0.10182 6.21519e-05 -0.000123083)
(0.103399 -0.000512313 0.000181077)
(0.102365 0.000140631 -0.000269621)
(0.10187 2.53772e-05 0.000174297)
(0.103366 -0.000284253 5.58997e-06)
(0.10319 -0.000124107 -0.000105288)
(0.102843 -0.000234075 0.000217886)
(0.102236 0.000405628 0.000351161)
(0.102301 8.77668e-05 -4.79516e-05)
(0.102356 -4.94344e-05 -0.000266095)
(0.103356 0.000465696 -8.90933e-06)
(0.102521 -8.93406e-05 -0.000179086)
(0.101927 -7.96599e-05 6.53236e-05)
(0.103357 -0.000289248 -3.25312e-05)
(0.103198 -0.000135948 0.00026823)
(0.102119 -4.16146e-06 -0.000175594)
(0.102712 -0.000322106 -0.00020293)
(0.103167 3.21874e-05 -0.000158404)
(0.103533 0.000112688 6.2751e-05)
(0.102875 0.000499713 -4.28915e-05)
(0.102163 -0.000273128 0.000128449)
(0.10384 0.000169413 -0.000141439)
(0.10336 0.000123165 -0.00045437)
(0.10264 -0.00020632 -0.000199455)
(0.103752 0.000202377 0.000322825)
(0.104056 0.000282259 -4.49714e-05)
(0.10317 0.000166506 -4.2014e-05)
(0.103581 0.000104133 2.38004e-06)
(0.103176 7.58843e-05 0.000157563)
(0.10278 -0.000178309 -0.00044294)
(0.101815 0.000380629 -0.000228283)
(0.102272 -7.75389e-05 -0.000125622)
(0.103439 -0.000215942 0.000185484)
(0.102879 -0.00019301 0.00026662)
(0.102955 8.68431e-05 -5.17806e-05)
(0.103108 0.000300679 5.3364e-05)
(0.10289 -3.23414e-05 0.00015897)
(0.102954 0.00037186 0.000107642)
(0.103735 0.000357786 -0.000125255)
(0.10357 7.38815e-05 0.000622678)
(0.101876 -0.000157174 9.92778e-05)
(0.102524 -3.32296e-05 -6.4848e-05)
(0.102582 -0.000412494 -0.000104972)
(0.104226 -0.00016988 -0.000342264)
(0.102486 -0.000239617 -0.000174733)
(0.103146 3.11609e-05 -0.000393478)
(0.102826 -0.000132654 -0.000188184)
(0.102246 0.000214571 -0.000386129)
(0.101997 -8.37216e-05 0.000102863)
(0.102151 -7.59116e-05 -0.000113206)
(0.101987 0.000111811 -9.8224e-05)
(0.101841 0.000316251 -0.000198922)
(0.104012 -0.000271594 0.000223893)
(0.101894 7.33374e-05 -8.0812e-05)
(0.102877 -5.31718e-05 -4.88671e-05)
(0.103511 0.000243196 -1.69706e-05)
(0.102421 0.000120746 -2.23437e-05)
(0.102335 0.000502857 -6.98937e-05)
(0.103726 -0.000522078 0.000380705)
(0.102656 -1.55416e-05 -0.000252675)
(0.10214 0.000176457 -2.96264e-05)
(0.103492 8.6726e-05 -5.20145e-06)
(0.102837 -0.000192896 -0.000156123)
(0.101931 -1.05449e-05 5.32595e-05)
(0.103074 1.37295e-05 -0.000263791)
(0.101934 -0.000232468 0.000154739)
(0.103402 0.000406275 -0.000130619)
(0.103248 0.000242743 0.000146451)
(0.102023 -4.57397e-05 -5.51959e-05)
(0.102664 -1.47886e-05 3.5697e-05)
(0.102805 0.000197515 0.000224203)
(0.101168 0.000278666 -0.000170219)
(0.101662 0.000847215 0.000333962)
(0.103283 -0.000289094 5.12364e-05)
(0.10342 -9.58811e-06 -0.000111462)
(0.103789 -0.000208202 -0.000100459)
(0.101789 0.000129471 -0.000272268)
(0.102198 -6.50865e-05 0.000345956)
(0.103759 5.42062e-05 -9.0103e-06)
(0.102371 -2.62737e-07 4.0105e-05)
(0.101971 0.000400056 0.000169099)
(0.103068 0.000202023 0.000193155)
(0.10345 -0.000355686 0.000113913)
(0.102742 -0.000583873 5.50238e-05)
(0.103579 -0.00109058 -0.000202779)
(0.103759 -8.8329e-06 -0.000190847)
(0.101854 1.81659e-05 -0.000154809)
(0.103648 -0.000440466 -3.93417e-05)
(0.10163 0.000110791 -0.000271303)
(0.10188 0.000339704 -0.000253319)
(0.103938 -0.000351586 -5.43234e-05)
(0.103507 -0.000169643 0.000120924)
(0.104036 -0.000107246 -0.000214122)
(0.103598 0.000353022 -0.000218645)
(0.103075 -0.000228189 -4.0491e-05)
(0.102216 0.000760334 -8.55438e-05)
(0.102456 -0.00020877 6.34407e-05)
(0.103319 -0.000316487 0.000218029)
(0.103251 -0.000275043 0.000183109)
(0.103422 0.000487074 0.000118622)
(0.1031 -0.000276941 0.000201353)
(0.103388 0.000301141 -0.000100027)
(0.102721 -0.000436968 0.000590163)
(0.102643 4.37067e-05 -0.000227144)
(0.103814 0.000146761 -0.000226786)
(0.103081 -0.00025775 -0.000307488)
(0.10272 -5.47729e-05 -0.000206414)
(0.103097 -0.000146956 -0.000284062)
(0.103404 0.000422638 -0.000175392)
(0.102425 -0.000262646 -0.000200244)
(0.103134 -0.000183595 -0.000260976)
(0.102958 -0.000318865 0.000472298)
(0.101918 -3.7313e-05 -0.000111958)
(0.102721 0.000254311 0.000182367)
(0.10379 -0.000148002 -0.000135042)
(0.102226 0.000273901 -0.000215282)
(0.103032 -0.000157203 0.000143347)
(0.103499 -0.000146059 -8.85811e-05)
(0.103526 -0.000153772 0.000201456)
(0.102067 0.00101432 -0.000188768)
(0.103374 -8.40862e-05 -0.000362386)
(0.103209 0.000177224 0.000159794)
(0.10178 4.23238e-05 -7.0965e-05)
(0.103055 -0.000469399 -2.5173e-05)
(0.101713 -0.000121563 0.000128418)
(0.102999 3.47169e-05 -8.34653e-05)
(0.103467 8.02052e-06 -1.08447e-05)
(0.102057 -0.000385826 -0.000808148)
(0.103371 0.000349619 1.03442e-05)
(0.103252 0.000262194 0.000339769)
(0.101883 -4.44863e-05 -0.000227847)
(0.10286 -9.36585e-05 -0.00016559)
(0.101861 -0.000199739 -0.000360153)
(0.102374 0.000223271 0.000304951)
(0.103715 0.000223845 -0.000303156)
(0.102852 0.000113499 -4.89378e-05)
(0.101742 0.000328301 0.000214953)
(0.103341 0.000150913 -5.21083e-05)
(0.10202 6.06956e-06 1.21329e-05)
(0.103378 -0.000244524 1.18059e-05)
(0.10306 7.00039e-05 0.000204906)
(0.102969 -0.000185921 -6.38722e-05)
(0.103503 1.30569e-07 -0.000317581)
(0.101929 6.74345e-06 0.000222866)
(0.103519 -0.00041645 -7.0077e-05)
(0.101896 0.000561038 -0.000198092)
(0.10336 0.000305565 -1.984e-05)
(0.102093 0.00051952 -0.000243779)
(0.103641 -0.000120069 2.7906e-05)
(0.103973 -0.000240898 1.94933e-05)
(0.104077 -0.000103823 0.000220442)
(0.103846 -0.000420534 -0.000257004)
(0.103404 -3.8493e-05 6.70432e-05)
(0.102681 -4.61711e-05 3.53985e-05)
(0.103462 -0.000232375 9.30322e-05)
(0.103055 -9.67087e-06 -6.11378e-05)
(0.103421 0.000154201 -0.000360657)
(0.102071 0.000256128 -0.000400708)
(0.103187 -0.000346785 -8.58335e-07)
(0.102671 -0.000271276 0.000189794)
(0.10278 -8.64385e-05 -0.000161448)
(0.103363 -4.95676e-05 -0.00018601)
(0.103273 -0.000162838 -0.000532867)
(0.103111 -4.99338e-05 0.000199232)
(0.102708 -2.78375e-05 1.69394e-05)
(0.101707 -0.000126284 6.01177e-05)
(0.102633 -8.49699e-05 0.000391927)
(0.103275 -6.36645e-05 -0.000229903)
(0.103344 -1.71189e-05 8.35135e-05)
(0.101952 -1.78567e-05 -0.00029712)
(0.103769 0.000223787 -8.97091e-05)
(0.103922 6.4335e-06 -0.000360362)
(0.103073 2.78984e-05 -0.000395994)
(0.103825 -3.49759e-05 -0.000358988)
(0.104214 -0.000105001 -0.000328485)
(0.10306 0.000243063 8.30871e-05)
(0.103051 9.4038e-05 -5.26621e-05)
(0.101981 0.000182702 -0.000328708)
(0.103031 -8.85075e-05 0.000109663)
(0.103106 -0.000128382 0.000141444)
(0.101595 -0.00037836 -0.000217887)
(0.102724 -0.000122376 0.000108379)
(0.103722 -0.000414521 -0.000281455)
(0.102252 -5.01297e-05 0.000159048)
(0.101645 0.000122101 8.68373e-06)
(0.10186 -0.0002333 -0.000159905)
(0.102507 -0.000457911 9.03597e-05)
(0.102015 0.000430819 -5.43465e-05)
(0.102821 -0.000116157 4.0363e-05)
(0.10315 -0.000122795 1.67972e-05)
(0.102455 0.000195319 -2.33258e-06)
(0.103083 0.000299257 -0.000105936)
(0.102107 -0.000122107 -0.000340121)
(0.103384 5.126e-05 0.000248369)
(0.103893 -0.000190086 -0.000116416)
(0.103319 7.40277e-05 -0.000325207)
(0.102755 3.10088e-05 0.000268813)
(0.102603 -3.40411e-05 -0.000199048)
(0.103575 0.000252057 -0.000340006)
(0.103506 0.0003376 -0.000114643)
(0.102764 0.00014197 -0.000302728)
(0.103987 -1.72609e-05 -0.000108826)
(0.103455 -0.000368507 -0.000144454)
(0.101782 -0.000101992 8.48069e-05)
(0.103465 -0.00024491 4.0127e-05)
(0.104142 -0.000400172 -0.000278883)
(0.103737 7.66079e-05 6.56951e-05)
(0.103198 -8.46226e-05 0.000209961)
(0.103406 0.000200202 -0.00034236)
(0.103235 -0.000343398 -0.000146237)
(0.102942 4.94285e-05 -1.58549e-05)
(0.103008 6.93023e-05 -5.94469e-05)
(0.102874 0.000107873 -0.000179487)
(0.103204 -0.000362054 -2.2566e-05)
(0.101818 -6.26206e-05 -0.000168168)
(0.1029 -0.0001322 0.000142461)
(0.101371 1.69177e-05 -1.41615e-05)
(0.102306 0.000371865 0.000195496)
(0.103174 0.000419797 -0.000102124)
(0.101841 -3.97886e-05 -0.000250869)
(0.101932 -8.32245e-06 -0.000246329)
(0.102621 -7.24044e-05 -0.000193886)
(0.102835 -0.000345358 -0.00020117)
(0.103563 -0.000131032 5.14754e-05)
(0.10182 8.14115e-05 -0.000121822)
(0.102763 -0.000105439 -2.3663e-06)
(0.102894 -3.64871e-06 0.000140191)
(0.103267 -3.42463e-05 -0.000373594)
(0.102996 -2.15283e-05 -0.000227517)
(0.103191 0.000633028 0.00080068)
(0.103429 0.00013479 -0.000469518)
(0.101845 -0.000232825 -9.54251e-05)
(0.103276 -0.000371453 0.000199632)
(0.103337 -5.37693e-05 4.53804e-06)
(0.103441 0.000390838 0.000258855)
(0.103624 5.28616e-05 -9.15939e-05)
(0.102737 0.000469539 -0.000113034)
(0.102104 0.000203779 0.000141818)
(0.10301 -2.20739e-05 0.000137099)
(0.10342 6.00938e-05 -0.000191369)
(0.103772 -0.000449173 -0.000157753)
(0.101672 0.000346588 -0.000161978)
(0.101995 -7.43695e-05 5.65964e-05)
(0.10316 0.00023147 0.00028641)
(0.102082 -0.000138806 -0.000170884)
(0.101837 2.88428e-05 5.46196e-05)
(0.10321 0.000342661 -0.00021581)
(0.102054 9.04348e-05 -0.000297615)
(0.102417 0.000292056 -0.000121379)
(0.101782 -0.000290364 0.000159496)
(0.103063 -7.74737e-05 -0.000119458)
(0.102168 0.000335261 -9.7258e-06)
(0.103602 -2.4499e-05 1.798e-05)
(0.103744 -0.000111077 -1.99553e-05)
(0.104155 -0.000163204 0.000340981)
(0.103697 4.96059e-05 0.000294092)
(0.101867 0.000144376 -1.05876e-05)
(0.103833 -7.65732e-05 6.52709e-05)
(0.104093 -8.85388e-05 -0.000225766)
(0.102866 -0.000299443 -0.00010626)
(0.103247 5.41552e-05 2.00838e-05)
(0.103679 0.000240415 -0.000100153)
(0.104198 -3.71117e-05 0.000354906)
(0.103102 0.000421633 7.62119e-05)
(0.102174 5.50572e-06 -0.000316598)
(0.104214 2.25841e-05 0.000258978)
(0.103771 -0.000193061 0.000373738)
(0.103549 0.000156568 0.000167133)
(0.102868 -0.000282927 3.2138e-05)
(0.103244 -0.000132682 -4.04503e-05)
(0.103541 0.00058562 -0.000236669)
(0.10177 0.000156097 0.000303965)
(0.101828 -6.14752e-05 -0.000365395)
(0.102994 7.72999e-05 1.70262e-05)
(0.103477 5.42145e-05 0.000180323)
(0.10368 7.37002e-05 0.000137198)
(0.102498 -6.85962e-05 -0.000112442)
(0.102856 0.000207829 0.000251258)
(0.102734 -0.000339422 -9.57264e-05)
(0.103797 0.000195807 0.000521978)
(0.103069 3.67543e-05 -3.93815e-05)
(0.102443 0.000415076 -0.000123365)
(0.103228 -0.000191354 0.000239869)
(0.101882 8.1343e-05 -0.000130827)
(0.102915 0.000106693 0.000203494)
(0.102785 0.000157354 2.79849e-05)
(0.10334 -9.55917e-06 -0.00012999)
(0.102098 -0.00017723 9.30689e-05)
(0.102456 0.00018544 -0.00032591)
(0.102105 0.000141002 -6.99999e-05)
(0.10261 -4.86976e-05 -0.000133346)
(0.10325 -7.14182e-05 0.000222108)
(0.101739 -0.000435978 -0.000863777)
(0.10349 0.000354308 -0.00033457)
(0.102833 8.58986e-05 6.19153e-05)
(0.103015 -5.4678e-05 9.48512e-05)
(0.102322 -0.000192391 -0.000158268)
(0.10384 -0.000430394 5.91993e-05)
(0.102697 7.05405e-05 -0.000155203)
(0.102001 -0.000611611 -0.000244499)
(0.103276 0.00023647 -0.000320913)
(0.103747 -5.50394e-05 -0.000578305)
(0.101818 -2.30782e-05 1.31561e-05)
(0.103042 -0.000338344 0.000103801)
(0.103469 -0.000331669 -7.73272e-05)
(0.103185 -0.000189486 7.18442e-05)
(0.103321 0.000152439 0.000227647)
(0.104613 0.000165763 0.000158131)
(0.102254 0.000138202 -1.08136e-05)
(0.103396 -0.000543642 -0.000280253)
(0.103264 0.000163571 -5.5101e-05)
(0.102138 0.000185694 0.000174041)
(0.101911 -9.29164e-05 -0.000147664)
(0.102923 0.000275222 0.000220377)
(0.102222 0.000425507 0.000106999)
(0.103456 -1.49579e-05 -3.19365e-05)
(0.102235 -0.0002008 0.000207863)
(0.102648 1.11701e-05 7.02399e-05)
(0.104052 -0.000121767 0.000328616)
(0.103158 -0.000296623 -0.000154481)
(0.101952 0.00046297 0.000194769)
(0.102195 8.71164e-05 -5.70023e-05)
(0.103582 0.000163397 -1.05341e-06)
(0.103582 1.75312e-05 0.000135195)
(0.101987 -0.000104653 5.32576e-05)
(0.10152 0.00024721 -5.44799e-05)
(0.104156 0.000199857 0.000154989)
(0.102075 0.000486679 0.000502565)
(0.103541 0.000172307 -0.000111082)
(0.103008 -5.42712e-05 -0.000206699)
(0.101896 5.38153e-05 -0.000389838)
(0.103338 -0.000237627 0.000283043)
(0.103591 -9.59903e-06 6.25806e-05)
(0.102777 -8.89138e-05 0.000464083)
(0.101711 6.2403e-05 0.000517199)
(0.103963 -5.00074e-05 -0.000156589)
(0.103175 -0.000144397 -0.000198178)
(0.102041 0.000228717 -5.84162e-05)
(0.104011 -9.90012e-05 -1.6254e-05)
(0.103103 0.00010206 -4.56738e-05)
(0.10295 0.000501587 -0.000414641)
(0.103341 -0.000467227 5.17665e-05)
(0.101889 0.000492329 -0.000550056)
(0.102523 -8.98401e-05 -0.000321604)
(0.102523 -0.000290491 0.000127716)
(0.102526 0.000209131 2.26335e-05)
(0.10184 -0.000113892 8.44396e-05)
(0.102531 -6.79972e-05 1.95355e-06)
(0.103089 0.000196434 0.000147305)
(0.103818 -0.000308274 -0.00054595)
(0.103788 -0.000264599 0.00016161)
(0.103333 -1.99712e-05 0.000129837)
(0.10369 -0.000150528 6.93242e-05)
(0.102934 -0.000461545 1.37168e-05)
(0.102274 -0.000214303 0.000225268)
(0.10376 -0.000331232 -0.000390537)
(0.103088 2.41829e-05 -4.14637e-05)
(0.10324 9.98385e-06 3.8559e-05)
(0.102299 -0.000507547 4.5017e-05)
(0.103497 -0.000307125 -0.000305213)
(0.103159 0.000263211 5.02795e-05)
(0.103475 0.000428418 0.000161495)
(0.101883 0.000166306 0.000143214)
(0.10139 -0.000133072 -0.000221378)
(0.103706 0.000130088 9.67445e-05)
(0.102245 -0.000465449 -5.19158e-05)
(0.103214 9.95973e-05 -0.000103438)
(0.10266 -9.96051e-05 -8.6549e-05)
(0.102195 -2.60845e-05 0.000179684)
(0.102838 0.000123224 2.88026e-05)
(0.104034 0.000379818 -2.98138e-05)
(0.102945 1.63271e-05 1.59e-06)
(0.103647 0.000313682 0.000112804)
(0.102056 4.02778e-05 -0.000153236)
(0.10363 0.000355884 0.000457518)
(0.103058 0.000147772 -6.63868e-05)
(0.101676 0.000492056 0.000124044)
(0.1032 1.99635e-05 -6.93337e-05)
(0.103885 -0.000286576 8.83426e-05)
(0.104565 0.000120792 -0.000135795)
(0.101932 -0.000202991 -9.1505e-05)
(0.101841 9.53552e-05 3.16198e-05)
(0.10263 0.000538437 -0.000168427)
(0.103328 -8.783e-05 5.25003e-05)
(0.10298 -2.54608e-05 0.0001405)
(0.103081 1.48185e-05 1.29545e-05)
(0.103117 -3.92879e-05 -0.000102981)
(0.103869 0.000145489 -0.000150049)
(0.103308 -0.000268495 -0.000167091)
(0.103445 0.000267905 2.81677e-05)
(0.102067 0.000162681 0.000171155)
(0.10374 -6.21042e-05 -0.000600955)
(0.101728 -0.000218505 -0.000443117)
(0.103411 0.000366333 -9.72002e-05)
(0.102667 0.000298619 -0.000278939)
(0.102742 -0.000143703 8.98388e-06)
(0.103536 0.000183214 -0.000209052)
(0.102872 -9.57811e-05 0.000148641)
(0.102093 9.17032e-05 -0.000285322)
(0.101758 0.000222699 0.000562416)
(0.102011 0.000278036 4.22137e-05)
(0.102427 7.39211e-06 4.55361e-05)
(0.103315 0.000215628 0.00032497)
(0.102366 -0.000400267 -0.000521749)
(0.103027 -0.000297739 -9.64604e-05)
(0.102419 0.000210167 -0.000411758)
(0.103845 -0.000358016 -0.000145556)
(0.101793 -0.00023476 -7.83912e-05)
(0.103058 -2.37676e-05 -4.25277e-05)
(0.104151 -0.00056474 -8.67912e-05)
(0.103213 -0.000109046 4.45956e-05)
(0.103381 -0.000143215 -3.44244e-05)
(0.103889 0.000110023 0.000116142)
(0.103466 0.000166467 0.000189672)
(0.1034 -6.65904e-05 0.000105138)
(0.103198 4.83461e-05 9.19966e-05)
(0.103202 0.000126961 1.98058e-05)
(0.103665 -5.01718e-05 4.78287e-05)
(0.102364 -0.000497657 1.84481e-05)
(0.103668 -0.000467145 0.000168658)
(0.101761 -8.00953e-06 4.59774e-05)
(0.104273 2.79775e-05 -1.8395e-05)
(0.102792 0.000151636 9.40825e-05)
(0.103002 0.000302196 -0.000380828)
(0.101918 -0.000136587 3.26428e-05)
(0.103001 0.000419405 -0.000288346)
(0.102039 -0.000371176 0.000136807)
(0.102867 6.34031e-05 -0.000198662)
(0.102691 4.37849e-05 -0.000350438)
(0.103716 1.06514e-05 -0.000355905)
(0.10251 0.00026141 4.88322e-06)
(0.103123 0.000505723 -0.000309826)
(0.102032 -0.000430357 -0.000226368)
(0.10324 2.23557e-05 3.82464e-05)
(0.101782 -0.000207286 -2.9099e-05)
(0.101969 -0.000197958 0.000295895)
(0.101922 -0.000140177 0.00014866)
(0.1022 0.000146235 4.87969e-05)
(0.102129 0.000138106 -5.17107e-05)
(0.103127 -0.000294674 -6.8355e-05)
(0.101691 0.000289026 0.000125623)
(0.103497 -0.000496267 -0.000178493)
(0.103185 -0.000128487 -8.30971e-05)
(0.101285 6.00115e-05 0.000233342)
(0.103051 -4.43551e-05 4.95101e-05)
(0.101703 0.000453872 0.000135055)
(0.102764 0.000176012 0.000113611)
(0.103165 -0.000124585 0.000299159)
(0.102781 -0.000231411 -0.000267957)
(0.103327 -0.00014616 4.5065e-05)
(0.103861 4.04181e-05 -8.66107e-05)
(0.103302 9.67123e-05 2.18935e-05)
(0.102942 0.000107085 1.12968e-05)
(0.102986 -0.000412631 4.02379e-05)
(0.103675 0.000293299 -2.91603e-05)
(0.102441 0.00011997 -0.000119497)
(0.102558 -1.31328e-05 9.47265e-05)
(0.101672 6.52765e-05 -0.000204616)
(0.102649 0.000539708 0.000915491)
(0.103657 0.000110291 -0.000176641)
(0.103417 -0.000393621 -0.000186364)
(0.103243 -0.000290728 0.000158579)
(0.103525 0.000143006 2.83382e-05)
(0.1019 0.00022128 0.000183721)
(0.103629 -0.000148953 -0.000110202)
(0.103733 0.000441027 2.11949e-05)
(0.104016 -6.88115e-05 0.000329032)
(0.10355 -0.000111839 0.000124826)
(0.103575 0.000149492 2.17859e-05)
(0.103361 2.80575e-05 -4.70081e-05)
(0.103613 -5.80216e-05 6.32383e-05)
(0.103683 -0.000218941 0.00018265)
(0.103732 -8.3333e-05 0.000139243)
(0.103731 -9.96265e-05 8.83201e-05)
(0.103227 -0.000138134 -1.23004e-06)
(0.102133 -9.50557e-06 -3.7502e-05)
(0.103589 8.76899e-07 2.0378e-05)
(0.102277 0.000138316 6.6112e-05)
(0.102661 3.18076e-05 0.000105705)
(0.103183 -0.000273238 -0.000340477)
(0.103321 -0.000450664 8.74879e-05)
(0.102519 0.000235339 -0.000143506)
(0.103315 6.06194e-05 -1.28284e-05)
(0.102416 9.59616e-05 0.000286564)
(0.103425 -0.000374107 0.000106556)
(0.102674 0.000137993 -0.000119456)
(0.102028 -0.000511819 3.97663e-05)
(0.104035 4.79909e-05 -0.000261757)
(0.102984 0.000260454 -7.39471e-06)
(0.102218 -0.000270702 0.000339538)
(0.101761 -0.000301916 0.000286079)
(0.103965 -0.00048306 6.13244e-05)
(0.101775 -0.000200641 3.82966e-06)
(0.103679 8.52016e-05 -1.1625e-05)
(0.102913 5.22602e-05 0.000149499)
(0.102798 -9.89632e-06 4.1038e-05)
(0.103093 6.6689e-05 2.2343e-05)
(0.103597 -0.000126782 -0.000395311)
(0.103259 -0.000145738 0.000101835)
(0.101746 -4.62927e-05 -0.000227674)
(0.103069 -0.000202109 -0.000409065)
(0.102507 4.29605e-05 0.000115112)
(0.103126 0.000118898 -5.85974e-06)
(0.101731 -0.000281176 -8.79674e-05)
(0.102739 -9.17667e-05 -0.000376761)
(0.103273 -0.000204012 5.19471e-05)
(0.102534 9.39621e-05 -0.000159866)
(0.10309 1.04192e-05 -4.10335e-05)
(0.102574 4.9303e-05 0.000121083)
(0.103255 -9.76767e-05 -0.000148885)
(0.102404 -0.000328054 0.000112039)
(0.102729 -0.00012669 -0.000142821)
(0.102107 -0.000160812 0.000694697)
(0.103984 3.13549e-05 0.000223782)
(0.102766 -2.12298e-05 -0.00021945)
(0.103867 0.000564964 0.000464545)
(0.102328 0.000204328 -0.000191638)
(0.103648 9.32957e-06 1.52137e-05)
(0.103577 0.000114739 6.12926e-06)
(0.102845 0.000205216 0.000381353)
(0.102998 -0.000138977 -0.000280226)
(0.103085 0.000217042 6.84737e-05)
(0.104051 -0.000202532 -6.85536e-05)
(0.103133 -2.2664e-05 -4.25516e-05)
(0.101576 4.73503e-05 0.000191414)
(0.10165 -0.000458469 -0.000183676)
(0.103608 -2.16207e-05 -0.000140397)
(0.102026 0.000272233 -0.000478088)
(0.102605 -7.78109e-05 -3.5724e-05)
(0.103005 0.000231629 -0.000149256)
(0.103138 0.000313929 -0.000130426)
(0.103534 0.000161853 -0.000121562)
(0.101777 -0.000217811 3.11993e-05)
(0.103419 7.36659e-05 -0.000163905)
(0.10376 -4.69196e-05 -5.0249e-05)
(0.101958 0.000105523 0.000533799)
(0.101912 2.21912e-05 0.000601164)
(0.103077 -0.00041661 8.57312e-05)
(0.10193 -9.99605e-05 0.000137001)
(0.103268 -0.00031026 0.000100916)
(0.102136 -0.000474382 1.05869e-05)
(0.103532 -0.000254515 -1.13762e-05)
(0.102129 2.95294e-05 0.000489656)
(0.102265 9.49008e-05 0.000108706)
(0.103696 8.63749e-05 0.000108969)
(0.101699 0.000257839 0.000374025)
(0.102987 0.000221898 0.000236599)
(0.103048 -4.56758e-05 1.44639e-05)
(0.104074 1.23113e-05 -0.000372409)
(0.103573 0.000107923 3.39159e-06)
(0.103412 0.00031796 -1.37714e-05)
(0.102035 -1.53793e-05 0.000103066)
(0.103432 -6.30555e-05 -0.000267343)
(0.103659 6.83483e-05 0.000280661)
(0.102254 -0.000410651 0.000105676)
(0.103616 -0.000148295 -0.000137619)
(0.103349 -0.000116002 -4.14418e-05)
(0.103462 0.000165052 -5.59682e-05)
(0.103296 0.000119975 -0.00022849)
(0.103572 -1.84991e-06 -0.000253198)
(0.103807 0.000140454 8.72474e-06)
(0.10342 0.000231059 0.000490336)
(0.103866 8.85897e-05 0.000193834)
(0.103312 0.00010355 0.000207918)
(0.103223 4.01732e-05 -2.95237e-05)
(0.103537 -0.000156326 -1.69273e-05)
(0.103367 0.000135382 0.000248483)
(0.101807 -0.000233696 9.12816e-06)
(0.10322 -0.000501754 0.000152259)
(0.103434 5.35476e-05 0.000238535)
(0.103506 -1.40218e-05 -2.87767e-05)
(0.103561 -0.00023074 -0.000281617)
(0.103298 -0.000109103 0.000122638)
(0.103877 0.000118278 0.000326356)
(0.103999 0.000242648 -0.000180643)
(0.102706 3.00388e-05 0.000506686)
(0.102773 0.000339103 -0.000235138)
(0.103428 -2.02439e-05 -0.000405361)
(0.102681 -6.5497e-05 -0.000140749)