/*--------------------------------*- C++ -*----------------------------------*\
| =========                 |                                                 |
| \\      /  F ield         | OpenFOAM: The Open Source CFD Toolbox           |
|  \\    /   O peration     | Version:  2212                                  |
|   \\  /    A nd           | Website:  www.openfoam.com                      |
|    \\/     M anipulation  |                                                 |
\*---------------------------------------------------------------------------*/
FoamFile
{
    version     2.0;
    format      ascii;
    arch        "LSB;label=32;scalar=64";
    class       surfaceVectorField;
    location    "0.002";
    object      Uf;
}
// * * * * * * * * * * * * * * * * * * * * * * * * * * * * * * * * * * * * * //

dimensions      [0 1 -1 0 0 0 0];

internalField   nonuniform List<vector> 
68568
(
(0.103198 0.00017454 -0.000294966)
(0.103167 0.000452017 -0.00020266)
(0.102827 0.000197862 -4.99865e-05)
(0.103526 0.000467688 -6.18183e-05)
(0.103394 -0.000195818 6.61898e-05)
(0.103322 -0.000286524 -0.000116)
(0.10308 -0.000133319 4.41426e-05)
(0.102681 -9.36528e-05 0.00012265)
(0.103676 -8.41041e-06 -1.55029e-05)
(0.103446 -0.000373353 0.000147058)
(0.103322 -0.000111052 -0.000180172)
(0.103433 -0.000578592 0.000169625)
(0.103628 -8.86238e-05 3.96592e-05)
(0.103376 0.00012267 -8.61511e-06)
(0.103854 0.000148014 4.48268e-05)
(0.103757 0.000135516 -5.20648e-05)
(0.102712 -0.000141427 0.000198899)
(0.103216 -0.00018326 0.000204606)
(0.102455 -0.000163883 -6.50372e-05)
(0.102961 -0.000221904 -5.64592e-05)
(0.103553 -5.06277e-05 2.82744e-05)
(0.10327 0.000137408 -4.46221e-06)
(0.103481 0.000171637 -6.77257e-05)
(0.102995 6.19916e-05 -0.000210701)
(0.102805 -5.37823e-05 -0.000187139)
(0.102045 3.41165e-05 -1.6227e-06)
(0.102375 1.74735e-05 -0.000149032)
(0.10296 3.89867e-05 -6.75856e-05)
(0.102713 -1.93103e-05 0.000138595)
(0.103023 0.000152312 -0.000217439)
(0.102811 -3.36565e-05 -3.72035e-05)
(0.1031 -7.04895e-05 7.01117e-05)
(0.102784 4.59841e-05 -4.95703e-05)
(0.102827 9.01911e-05 -0.000286329)
(0.103422 -4.85784e-05 8.30601e-05)
(0.103522 5.32629e-05 -0.000196022)
(0.103581 8.36146e-05 -0.000218086)
(0.103725 -0.000107134 -5.85798e-05)
(0.103563 0.000280853 -0.000175823)
(0.103691 0.000202673 -0.000129682)
(0.103689 5.74803e-05 -1.3061e-05)
(0.103118 9.91703e-05 -0.000227371)
(0.103687 -0.000173913 -0.000329581)
(0.103568 -0.000187874 -0.000210549)
(0.103341 6.58334e-05 -1.30109e-05)
(0.103227 -2.27363e-05 8.05719e-05)
(0.102761 9.03591e-05 -9.25801e-05)
(0.10363 -5.04065e-05 -7.1899e-05)
(0.103534 1.62919e-05 7.0066e-05)
(0.103497 -1.72144e-05 8.55658e-05)
(0.102818 2.80156e-05 1.58439e-05)
(0.102785 -4.63659e-05 -2.59239e-06)
(0.103183 -0.000207762 -9.48096e-05)
(0.103183 -0.000237115 0.000123197)
(0.102434 -0.000218916 8.23001e-05)
(0.102915 -0.000177511 0.000243725)
(0.102039 -8.37459e-05 0.000109834)
(0.10235 2.64994e-05 0.000224675)
(0.102747 -5.45018e-06 0.000139449)
(0.102496 3.37204e-05 -0.000132438)
(0.102567 0.000152269 -0.000100302)
(0.10266 -8.77327e-06 -0.000145454)
(0.102891 -0.000153238 -0.000148059)
(0.101912 -3.55024e-05 6.43494e-05)
(0.101901 -8.84227e-05 5.63685e-05)
(0.102448 -0.000115238 5.11242e-05)
(0.102505 0.000265996 -3.13698e-05)
(0.102214 9.51483e-05 -1.34335e-05)
(0.101856 0.000360723 3.00288e-06)
(0.102744 0.000271435 3.42478e-05)
(0.10335 -7.44302e-05 -2.41032e-05)
(0.103628 -0.000165995 -8.37689e-05)
(0.103579 -0.000137726 -0.000261174)
(0.103124 -5.59017e-05 -0.000161397)
(0.102008 -5.90837e-05 0.000155852)
(0.102584 7.41962e-05 0.000243447)
(0.102123 9.82317e-05 0.00020296)
(0.100836 -3.50709e-05 6.2061e-05)
(0.103084 -5.75842e-05 2.65551e-05)
(0.103559 0.000217725 -1.12391e-05)
(0.103165 0.000185959 7.58614e-05)
(0.103326 0.000163444 1.87674e-05)
(0.103334 4.11395e-05 7.03003e-05)
(0.103297 0.000129252 0.000222999)
(0.102731 6.92097e-05 0.00027699)
(0.103518 -3.30714e-05 0.000123131)
(0.102245 3.70071e-05 -5.71794e-05)
(0.102415 0.000212487 -0.000132981)
(0.102945 0.0002955 -0.000141399)
(0.102961 0.000177149 1.23953e-05)
(0.101791 3.7101e-05 -0.000102747)
(0.102614 -4.49574e-05 -0.000164633)
(0.102136 -2.90964e-05 -8.18234e-05)
(0.102714 -6.06147e-05 7.89447e-05)
(0.102734 0.000130139 -0.000143849)
(0.102829 -2.1847e-05 -0.000201342)
(0.103387 1.74588e-06 7.17321e-05)
(0.103368 -5.15689e-05 0.000105996)
(0.103528 -0.000163144 0.00010205)
(0.102968 -0.000104257 0.000237693)
(0.104407 0.000457818 0.00050812)
(0.103944 0.000421593 0.000510355)
(0.104666 0.000171191 0.000283851)
(0.104707 0.000137043 0.000254256)
(0.102989 0.000186888 0.000149938)
(0.102022 0.000143964 6.02927e-05)
(0.102244 -7.09802e-06 0.000218011)
(0.103247 0.000211849 -7.77212e-05)
(0.103277 -5.17613e-05 0.000193606)
(0.103362 0.000320203 -0.000179267)
(0.1037 -0.000213157 -1.99623e-05)
(0.103623 3.94091e-05 -8.64935e-05)
(0.103751 -6.95178e-05 -9.44146e-05)
(0.103617 -0.00014427 4.66663e-05)
(0.102486 -0.000175577 -3.64015e-05)
(0.102499 3.72962e-05 -6.78191e-05)
(0.101913 -0.000113078 2.16435e-05)
(0.101855 4.02707e-05 -4.53209e-06)
(0.103612 6.33896e-05 3.17213e-05)
(0.103543 7.78515e-05 -5.99173e-05)
(0.103268 4.46185e-06 -0.000248101)
(0.103468 -7.45922e-06 -0.000240303)
(0.102281 3.18961e-05 -0.000169687)
(0.101958 -0.000106909 -0.000203886)
(0.102929 -1.08632e-05 -9.11423e-05)
(0.102904 0.000111002 -0.000133638)
(0.102364 7.01276e-05 -8.28096e-06)
(0.101899 3.52873e-05 -0.00017283)
(0.10184 -0.000161202 9.9343e-06)
(0.100938 -5.50183e-05 -1.28261e-05)
(0.103435 0.00032533 -0.00036006)
(0.101927 5.71463e-05 2.12373e-06)
(0.101902 6.43424e-05 -2.2415e-05)
(0.101429 4.59979e-05 -3.23068e-05)
(0.100565 2.28641e-05 -2.26984e-05)
(0.103653 -8.85691e-05 -5.25847e-05)
(0.103529 -0.000280372 0.000169305)
(0.10362 -0.000124862 -4.92384e-06)
(0.103482 -0.000204059 -3.98522e-05)
(0.103455 -0.000128392 7.79146e-05)
(0.103402 -4.7883e-05 -4.09792e-05)
(0.103663 -2.20789e-05 0.000101655)
(0.101494 0.00027278 -0.000148785)
(0.101878 -5.59099e-05 -8.22014e-05)
(0.100707 0.000113052 -4.51134e-05)
(0.102408 -4.88792e-06 -5.58852e-05)
(0.101946 0.00011534 -0.000109016)
(0.100788 4.75662e-05 2.12807e-05)
(0.102227 0.000160789 6.49688e-05)
(0.102092 3.87295e-05 -7.35599e-05)
(0.102331 -4.1054e-05 -0.000115415)
(0.100694 5.179e-05 8.34717e-06)
(0.103539 -8.81576e-05 5.93643e-05)
(0.103396 -0.000101528 0.00010762)
(0.103354 -0.000366947 -3.67695e-05)
(0.103617 -0.000808568 -9.42919e-05)
(0.103365 -0.000522215 -0.000289139)
(0.103599 -0.000367026 -0.000375487)
(0.103362 -0.000256525 9.67557e-05)
(0.103424 -0.000266359 0.000107975)
(0.103298 -0.000131339 0.000130277)
(0.103916 -0.000308996 2.10591e-06)
(0.10389 -0.000210734 -0.000135769)
(0.103782 -0.00021049 -0.000153688)
(0.103868 -1.60391e-05 -0.000302477)
(0.103131 0.000313256 -0.000185665)
(0.102927 0.000184483 -5.90742e-05)
(0.102433 0.00025949 -6.66157e-05)
(0.102777 0.000237634 -0.000245981)
(0.102907 0.000184007 -0.00014244)
(0.102405 0.000130639 -0.000179402)
(0.102178 0.000379358 -0.000232408)
(0.102478 -5.77713e-05 0.000183684)
(0.102458 8.81423e-06 9.28325e-05)
(0.102957 0.000136375 -5.478e-05)
(0.102724 2.75577e-05 0.000195266)
(0.103276 -9.02366e-05 -0.000237574)
(0.103695 -6.14378e-05 -3.26438e-05)
(0.103747 0.000229847 -0.00011847)
(0.103771 0.00019205 -0.000162025)
(0.103957 8.19192e-05 -9.67842e-05)
(0.102225 6.25979e-05 -0.00022313)
(0.101749 0.000123201 -0.000120511)
(0.1018 1.45673e-05 2.41504e-05)
(0.100483 6.7395e-05 7.84062e-05)
(0.103371 0.000162158 9.56919e-05)
(0.103183 0.000164455 2.95567e-05)
(0.103558 1.28505e-06 3.9038e-05)
(0.10343 -2.54917e-06 0.000128859)
(0.10164 -1.32611e-05 -2.07971e-05)
(0.100683 3.4529e-05 1.3025e-05)
(0.102462 1.68574e-05 -0.000201224)
(0.102334 -5.81877e-05 -3.37203e-05)
(0.102919 6.28046e-05 -0.000146593)
(0.102957 -9.52066e-05 -0.000102279)
(0.102267 0.000135025 0.000197284)
(0.102351 0.000231382 0.000110251)
(0.102681 -4.30146e-05 -7.57148e-05)
(0.102336 0.000272945 -0.000183333)
(0.102052 0.000411911 -0.000124125)
(0.102279 0.000260296 9.72247e-05)
(0.101021 0.000188016 2.00022e-05)
(0.103411 1.2675e-05 0.000188843)
(0.103466 -2.51324e-05 8.42313e-05)
(0.103177 -7.45264e-06 8.50039e-05)
(0.102923 6.694e-05 0.000230431)
(0.103535 -0.000118234 0.000154641)
(0.103242 -1.32757e-05 9.52402e-05)
(0.103522 -0.000153552 0.000108976)
(0.102867 3.57451e-05 0.00017667)
(0.101675 -0.000115771 -0.0001717)
(0.10182 8.35681e-06 0.000103303)
(0.100789 -7.60471e-05 -3.79789e-05)
(0.102758 -0.000160339 -0.000146501)
(0.102668 9.22749e-05 -5.13897e-06)
(0.102748 0.000277133 5.98171e-05)
(0.102889 0.000134904 -7.60229e-05)
(0.102999 -8.8513e-05 4.8661e-06)
(0.103311 -3.36877e-05 -0.00017539)
(0.102894 9.6747e-05 -0.000296356)
(0.102679 -1.89784e-05 -6.17436e-05)
(0.102217 8.17362e-05 -3.4934e-05)
(0.102247 -0.000180253 -4.30286e-05)
(0.100934 -7.47442e-05 1.85142e-05)
(0.103676 2.74906e-05 2.73665e-07)
(0.103703 6.88357e-05 0.000194643)
(0.102933 -3.6489e-06 -6.81462e-05)
(0.102666 -1.74051e-06 -4.88205e-05)
(0.102603 0.000139257 7.12102e-06)
(0.102947 0.000128974 6.07735e-05)
(0.102623 0.000172989 0.000187947)
(0.103735 0.000215801 -8.90526e-05)
(0.103868 7.64463e-05 -0.000172804)
(0.103685 0.000136029 -4.4347e-05)
(0.103399 0.000155435 1.06221e-05)
(0.102312 0.000275993 -9.73718e-05)
(0.10286 -3.39636e-05 -0.000284618)
(0.102949 -0.000130796 -7.39118e-05)
(0.103246 2.0283e-06 1.03126e-05)
(0.103486 7.61453e-05 -0.00014792)
(0.103319 5.74562e-06 -3.01264e-06)
(0.102869 9.75062e-05 -0.000162414)
(0.102492 -0.000180029 0.00021363)
(0.102445 9.73084e-05 0.000252759)
(0.100912 -4.10557e-05 7.59945e-05)
(0.103791 0.000253865 6.33227e-07)
(0.103816 0.000273366 -9.6255e-05)
(0.10338 0.00011447 -2.18767e-05)
(0.103545 0.000173132 -0.000261062)
(0.103591 4.98119e-05 0.000246643)
(0.103476 -8.23113e-05 0.000189686)
(0.103669 -0.000183328 0.000125116)
(0.103292 0.000104706 7.92025e-05)
(0.102531 -0.000252376 -0.000134573)
(0.102502 -0.000156388 4.42733e-05)
(0.102748 -0.000363885 -4.6998e-05)
(0.101886 -0.00041208 -0.000163681)
(0.103707 1.71712e-05 -0.000141608)
(0.10369 -0.000237482 -0.000262703)
(0.103836 -0.000164011 -9.86801e-05)
(0.103917 -1.97796e-05 -8.19417e-05)
(0.103622 6.88446e-05 -0.00017302)
(0.103301 -4.39444e-05 2.76704e-06)
(0.103331 7.48508e-06 6.85153e-06)
(0.102903 9.76519e-05 -0.000195394)
(0.103379 6.08339e-05 8.6261e-05)
(0.103317 7.06743e-05 3.68706e-05)
(0.102806 -3.70196e-05 -2.91832e-05)
(0.10189 -7.58762e-05 6.35669e-05)
(0.101866 -6.64881e-05 5.1429e-05)
(0.102149 -1.77306e-05 2.84673e-06)
(0.100757 2.63754e-05 4.59948e-05)
(0.103531 -4.943e-05 -7.60737e-05)
(0.103775 -0.000202707 2.19595e-05)
(0.103853 -0.000159649 0.000125366)
(0.102621 -0.000129475 -0.00013202)
(0.103185 4.84316e-05 -6.12085e-05)
(0.103067 0.000179975 2.20621e-05)
(0.103265 -3.67157e-05 6.09097e-05)
(0.103416 1.08265e-05 9.86826e-05)
(0.103523 0.000132137 0.000161426)
(0.102803 -5.01774e-05 0.000207015)
(0.10237 5.40539e-05 -0.000114154)
(0.103563 4.3612e-05 0.000213221)
(0.103116 0.00013455 0.000115933)
(0.103598 0.00027571 0.000134662)
(0.101918 0.000198643 3.77696e-05)
(0.102886 4.10216e-05 -6.54735e-05)
(0.102827 2.73611e-05 4.37033e-05)
(0.101296 4.60097e-05 1.18562e-05)
(0.101792 2.12708e-05 6.63442e-06)
(0.10164 -2.32508e-05 0.000151848)
(0.100535 -1.46985e-05 2.50381e-05)
(0.103839 6.79622e-05 -0.000212432)
(0.103587 1.93481e-05 -0.000286985)
(0.103781 -8.44206e-05 -0.000271171)
(0.103843 -0.00017552 -2.04782e-05)
(0.10389 -0.000203663 -0.000147676)
(0.103465 -3.47333e-05 -1.86966e-05)
(0.103657 3.20685e-05 -1.23488e-05)
(0.103001 -7.36323e-05 0.000125831)
(0.103058 0.000138903 -6.99528e-05)
(0.103261 -7.29297e-05 -1.29665e-05)
(0.103356 2.33541e-05 -6.13726e-05)
(0.103095 -9.0818e-05 0.000111352)
(0.103746 -0.000124972 -2.46028e-05)
(0.10357 -0.000104746 -0.000293695)
(0.1036 -0.000105024 0.000136245)
(0.103667 -0.000249231 -0.000118736)
(0.103858 -8.45412e-06 6.59607e-05)
(0.103496 3.15265e-05 4.91138e-05)
(0.103692 6.22363e-05 -9.11823e-05)
(0.103683 0.000134827 -0.000130257)
(0.103704 -2.52263e-05 -2.76793e-07)
(0.103696 0.000146937 -0.000179945)
(0.101886 0.000365401 -0.000477289)
(0.102394 7.70475e-05 -0.00022744)
(0.102204 0.000253093 -0.000244821)
(0.100299 6.24859e-05 -0.000248907)
(0.103332 0.000184349 -0.000144267)
(0.103707 0.000174765 -6.59937e-05)
(0.10374 0.000196662 -0.000315093)
(0.103464 -1.46215e-05 8.71588e-05)
(0.103767 8.86718e-05 -8.18984e-05)
(0.103027 0.000197532 -0.000141035)
(0.102175 -2.61502e-05 -9.15311e-05)
(0.102074 -0.000180179 -1.84823e-05)
(0.102563 -9.89202e-05 3.74007e-05)
(0.102433 -0.000156263 -3.51558e-05)
(0.102031 -4.60076e-06 -0.000281605)
(0.102124 8.28358e-05 -0.000121122)
(0.100659 -1.30357e-06 -8.59149e-05)
(0.103038 0.000179093 -4.43594e-05)
(0.103459 5.76915e-05 -0.000200338)
(0.102697 -7.32829e-05 1.61807e-05)
(0.101939 -4.08894e-05 -6.9276e-05)
(0.102576 -0.000129739 3.43502e-05)
(0.101908 -0.00018393 0.000156287)
(0.10257 -0.000143046 5.66278e-05)
(0.103105 0.000519094 -0.000142817)
(0.103137 0.000514537 -0.000155856)
(0.102843 0.000383485 9.94882e-05)
(0.102816 0.000569333 6.75017e-05)
(0.102674 0.000159735 -4.62634e-05)
(0.102884 0.000195398 -0.000127143)
(0.103369 0.000291208 1.60426e-05)
(0.103697 -0.000236702 0.000109535)
(0.103648 -0.000120791 0.000246357)
(0.102902 -2.56418e-05 0.000211154)
(0.103218 0.00011875 1.78918e-05)
(0.103236 5.23279e-05 -3.63618e-05)
(0.103447 5.29099e-05 -0.000156267)
(0.102827 6.47518e-06 -0.000210932)
(0.102191 -0.000160113 -0.000154575)
(0.102369 0.000104445 -0.000262792)
(0.10193 -0.000221262 -0.000195967)
(0.100751 -0.000130833 -0.000175015)
(0.102862 0.000226904 7.99258e-05)
(0.103016 0.00013181 -9.23829e-05)
(0.102498 4.57154e-06 -0.000155997)
(0.103066 0.000135152 -7.43798e-05)
(0.10282 3.65823e-05 0.000187751)
(0.102853 0.000109963 7.63514e-05)
(0.102815 0.00017636 0.000188759)
(0.102909 -6.80156e-05 -7.60167e-05)
(0.102519 0.000132787 -2.3609e-05)
(0.101619 6.5252e-05 -7.1883e-05)
(0.102063 -0.000240335 -8.31294e-05)
(0.101779 -1.98538e-05 -7.30482e-05)
(0.10057 1.04008e-05 2.42518e-06)
(0.102284 5.24417e-05 -8.25471e-05)
(0.10065 3.94829e-05 -9.22776e-05)
(0.1037 -9.80908e-05 -0.000156267)
(0.103952 3.93804e-05 7.36273e-05)
(0.103998 1.16995e-05 -0.000136864)
(0.100617 0.000126437 0.000101655)
(0.10184 0.000240577 -0.00034149)
(0.102189 0.000355342 -0.00014167)
(0.101986 0.000230026 -0.000323435)
(0.100514 0.000176756 -0.000357441)
(0.101968 0.00016716 0.000130273)
(0.102777 0.000206628 8.02481e-06)
(0.102021 -4.76497e-05 0.000152147)
(0.10171 -3.06493e-06 0.000103832)
(0.102295 8.88267e-05 8.48627e-05)
(0.100684 -6.93238e-05 -1.04121e-05)
(0.103504 -0.000230794 0.000113151)
(0.103269 -0.000262727 0.000275691)
(0.103427 -5.7096e-05 0.000135403)
(0.103549 -0.000176147 0.0001129)
(0.102673 0.00011494 -0.000432529)
(0.102343 -3.12385e-05 -0.000271773)
(0.102245 6.52088e-05 -0.000143111)
(0.100896 6.72795e-05 -0.000146373)
(0.103322 -6.79035e-05 -0.00025411)
(0.103289 1.49989e-06 -0.000196327)
(0.103354 -0.000318227 -0.000106399)
(0.1028 -0.000170457 -0.000230026)
(0.102161 -4.62623e-05 -0.000216916)
(0.10225 -0.00031141 -0.000112877)
(0.102656 -0.000159538 -0.000104524)
(0.10369 -9.45556e-05 -9.93061e-05)
(0.103576 5.72069e-05 -5.84049e-05)
(0.103353 -5.37143e-05 7.63281e-05)
(0.102906 0.000168226 -0.000182947)
(0.102136 4.1685e-05 -0.000208502)
(0.10182 -0.00013458 -0.000187054)
(0.101965 -0.000126339 -0.000102139)
(0.100723 -0.000106571 -0.00010236)
(0.103152 0.000145874 6.29621e-05)
(0.102313 4.71106e-05 1.94932e-05)
(0.102139 -7.26605e-05 0.000107137)
(0.103035 -0.000420381 8.93318e-05)
(0.10222 -0.000264462 -9.62085e-06)
(0.102995 -0.000300996 9.57064e-05)
(0.103105 -6.08478e-05 9.25764e-05)
(0.102498 -0.000137834 2.40504e-06)
(0.103049 -0.000122296 1.14782e-05)
(0.1036 0.000132218 0.000206201)
(0.103494 -7.51864e-06 0.000134089)
(0.10289 -0.000109877 0.000196145)
(0.102531 -0.000167852 -3.71578e-05)
(0.102768 -7.32323e-05 -5.18497e-05)
(0.102962 1.66212e-05 -5.61887e-05)
(0.10347 -0.000110778 0.000181889)
(0.103577 -7.04222e-05 9.31244e-06)
(0.103731 -1.54764e-05 6.58217e-06)
(0.103731 -5.12133e-05 0.00017356)
(0.103572 7.05241e-06 0.000135444)
(0.103523 7.96626e-05 -0.000198298)
(0.103718 -4.31814e-05 2.25236e-06)
(0.102622 0.00023008 -0.000192838)
(0.102978 -3.8193e-05 -0.000199499)
(0.103112 0.000218411 -0.000306614)
(0.102642 2.69186e-05 -7.08838e-05)
(0.10357 0.000353284 -0.000405467)
(0.103034 -0.000142407 4.94961e-05)
(0.10341 -9.82867e-05 4.36443e-05)
(0.103424 -4.50618e-05 -4.26589e-07)
(0.103454 -0.000166061 3.14867e-05)
(0.103424 0.000131336 6.55486e-05)
(0.103539 0.000192397 0.000160426)
(0.102805 7.05308e-05 0.000164239)
(0.101809 -1.23308e-05 -4.74049e-05)
(0.101811 0.000207552 -0.000212471)
(0.102084 -8.38329e-05 -0.000159049)
(0.102733 2.04914e-05 -0.000105496)
(0.10277 -7.93601e-05 -6.25047e-05)
(0.10355 -0.000261509 0.000105219)
(0.103444 2.32337e-05 2.9404e-05)
(0.10364 -0.000111996 -0.000115099)
(0.103757 -2.40708e-05 1.13861e-05)
(0.103324 0.00013057 -0.000179652)
(0.103159 -0.000114038 -0.000108726)
(0.103273 0.000232153 -0.000221927)
(0.103218 0.000195426 -4.08244e-05)
(0.103454 0.000249768 -8.89534e-05)
(0.103581 0.000131065 -0.000313195)
(0.103489 0.000203648 -7.12985e-05)
(0.103503 -6.6498e-05 -5.78322e-05)
(0.103289 -7.09503e-07 -8.56541e-06)
(0.103444 -2.59942e-05 0.000209283)
(0.103298 -6.29515e-05 4.43768e-05)
(0.103507 -0.000137692 5.67314e-05)
(0.103172 2.2699e-05 2.45196e-05)
(0.102517 -7.41975e-05 -8.27165e-05)
(0.103599 2.14898e-05 0.000140138)
(0.102419 0.000126345 -0.000324154)
(0.103295 -2.70991e-06 -2.90875e-05)
(0.103535 6.52348e-05 -0.000121081)
(0.103217 0.000122925 -0.000184408)
(0.103847 0.000225122 0.00017491)
(0.102916 0.000135718 -0.000151942)
(0.101743 0.00025824 -0.000339307)
(0.100675 0.000127867 -0.000143612)
(0.10193 -9.28237e-05 -0.000277404)
(0.100668 -9.8224e-05 -0.00012183)
(0.103887 0.000204557 0.00032953)
(0.103734 0.00023392 2.52782e-05)
(0.103371 4.66786e-05 -6.53553e-05)
(0.102929 -0.000116702 3.7523e-05)
(0.103757 -7.61795e-05 -0.000154524)
(0.103652 -7.45187e-05 -3.2325e-05)
(0.103338 2.81521e-05 -3.96371e-05)
(0.102885 -0.0001 0.00014938)
(0.103692 2.15683e-05 0.000137764)
(0.103814 2.12261e-05 0.000127699)
(0.103832 1.50557e-05 0.00011652)
(0.103411 5.60559e-06 5.94002e-05)
(0.103487 0.00015876 -4.25915e-05)
(0.103456 2.26125e-05 -0.000177747)
(0.103583 6.38069e-05 -0.000130583)
(0.101632 -7.10325e-05 -3.21818e-05)
(0.102126 0.00012952 0.000163791)
(0.10048 2.35363e-05 -0.000115988)
(0.102359 0.000246288 -0.00017675)
(0.102152 4.03816e-05 -0.000149934)
(0.101935 2.68981e-05 -0.000106491)
(0.100755 -6.0487e-06 -0.000165365)
(0.103501 -8.98395e-05 1.42199e-05)
(0.102963 -0.000116803 -0.000157397)
(0.103448 -8.03051e-05 4.25288e-05)
(0.102626 -5.85709e-05 -0.000175943)
(0.10314 6.53153e-05 -0.00027137)
(0.101917 -5.67196e-05 -8.20501e-05)
(0.101996 -0.000131207 -0.00013056)
(0.100604 -9.21594e-05 -3.25749e-05)
(0.102478 -1.68704e-05 -8.93144e-05)
(0.102015 0.000262657 -2.55706e-05)
(0.101858 -1.46521e-05 0.00013275)
(0.100968 3.41703e-05 4.33961e-05)
(0.103117 -0.000210825 -4.29783e-05)
(0.103046 -6.81836e-05 -0.000116548)
(0.103067 -9.25356e-05 -0.000146795)
(0.103213 2.68993e-05 -0.000159384)
(0.102066 -0.000144268 -8.57408e-05)
(0.101982 0.000482513 -0.000185301)
(0.102669 0.000160817 -1.20336e-05)
(0.100701 1.85394e-05 -7.64512e-05)
(0.103088 -1.45195e-05 0.000239332)
(0.102942 -0.000166479 -6.27583e-05)
(0.102834 -0.000110561 -6.60827e-05)
(0.102517 4.80973e-05 0.000210408)
(0.102393 2.61385e-05 -6.90029e-05)
(0.102908 3.13952e-05 -0.000246105)
(0.102779 8.68219e-05 -0.000222572)
(0.103009 -4.74143e-07 -4.81463e-08)
(0.103455 -2.2992e-05 -2.89053e-06)
(0.103181 0.00010341 -0.000110528)
(0.102627 0.000125121 -6.83116e-05)
(0.102346 0.000346826 -0.000300585)
(0.102413 0.000304703 -0.000219362)
(0.100775 0.000134563 -0.000294258)
(0.103709 2.35383e-05 0.000123421)
(0.103798 -4.51557e-05 0.000165053)
(0.103274 4.50443e-05 0.000208931)
(0.103787 3.50684e-05 8.67786e-05)
(0.103077 -0.000153638 -6.69512e-05)
(0.102523 -6.20646e-06 -3.93213e-05)
(0.102493 -7.82494e-05 4.5045e-05)
(0.103026 -2.71911e-05 0.000124795)
(0.102543 -0.0001702 0.000134364)
(0.102747 -4.26655e-05 4.58753e-05)
(0.101033 -1.46692e-05 0.000126858)
(0.102313 -0.000177671 0.000214892)
(0.10205 -0.000229099 0.000158302)
(0.102222 -7.80165e-05 0.000131222)
(0.100763 1.61203e-05 -3.36674e-05)
(0.102865 5.02298e-05 -0.000106468)
(0.102053 8.99576e-06 -6.48034e-05)
(0.10242 -9.65953e-05 -0.000234452)
(0.103896 2.82619e-05 7.0573e-06)
(0.103787 -5.34822e-06 -3.70542e-05)
(0.101861 -3.6547e-05 0.000181022)
(0.101716 6.2095e-05 5.22854e-05)
(0.102069 -0.0002288 -6.01779e-05)
(0.100656 -1.26075e-05 5.98075e-05)
(0.102384 -0.000298271 -6.24115e-05)
(0.102364 -5.5354e-05 0.000169337)
(0.100858 -0.000286203 -4.28528e-05)
(0.101774 -5.67814e-05 9.83335e-07)
(0.102212 0.000101324 -0.000100897)
(0.10199 -8.50548e-05 -8.1576e-05)
(0.100735 -5.72158e-05 -0.000152372)
(0.102007 -0.000101472 5.64506e-05)
(0.10244 -5.88648e-05 -6.05105e-06)
(0.102199 -0.000183023 -0.000247542)
(0.100823 -7.08452e-05 -0.00012123)
(0.102611 2.22148e-05 -0.000104076)
(0.102822 0.000107266 -6.93267e-05)
(0.102902 1.15456e-05 -4.5005e-05)
(0.102417 0.000130768 -0.00010737)
(0.10215 0.000292569 0.000245392)
(0.101931 8.43805e-05 0.000281739)
(0.100704 0.00014436 0.000142316)
(0.103485 -0.000190627 0.000140525)
(0.103226 -0.000127201 0.000197135)
(0.10335 -8.4215e-05 8.50107e-05)
(0.103206 -0.00031971 0.000113678)
(0.103623 -0.000108543 0.000257607)
(0.103652 -7.68106e-05 -0.000147324)
(0.103774 -0.000168488 0.000111403)
(0.103916 -7.91631e-05 8.26784e-05)
(0.101366 0.000105941 3.83278e-05)
(0.101533 -5.77674e-05 0.000359746)
(0.101944 -0.000153611 0.000246864)
(0.100556 -0.000285396 0.000322458)
(0.102552 -0.000217749 0.000154581)
(0.102725 -0.000339851 2.9703e-05)
(0.10266 -4.80883e-05 5.2507e-05)
(0.10176 -0.000117997 0.000199717)
(0.102915 0.00021769 -0.000127197)
(0.103332 0.000202679 -0.000389965)
(0.103465 0.0002047 -0.000342087)
(0.102763 0.000264568 -0.000437118)
(0.102168 -4.83918e-05 4.6929e-06)
(0.101804 0.000106488 -0.000112985)
(0.10173 -0.000245619 0.000100773)
(0.100785 -2.11846e-05 -2.6481e-06)
(0.103587 -4.13896e-05 -4.40551e-05)
(0.102911 4.61096e-05 -0.000133338)
(0.103425 -0.000116973 -0.000211829)
(0.103648 -8.40684e-05 -4.5209e-05)
(0.103472 9.09969e-05 -9.93024e-05)
(0.103369 0.000167026 -0.000210979)
(0.103521 0.000193249 -8.65087e-05)
(0.103021 0.000145885 -0.000118698)
(0.102929 0.000202277 8.66878e-05)
(0.10326 0.000114484 -0.00022016)
(0.102954 0.000237961 -0.000109768)
(0.103124 0.000194705 4.19693e-05)
(0.103211 5.31082e-05 -2.15948e-05)
(0.103473 -3.44381e-05 -0.000131061)
(0.103646 1.44775e-05 -8.10579e-05)
(0.103015 -2.09348e-05 -0.000161683)
(0.103398 0.000106573 -5.35883e-05)
(0.103185 -1.21217e-05 6.05161e-05)
(0.103469 -1.11508e-06 8.46863e-06)
(0.102775 0.00011366 -0.000139038)
(0.103505 4.90641e-05 -0.000117294)
(0.103566 0.000108493 -8.53751e-05)
(0.10296 9.15793e-05 -0.000122997)
(0.102284 -5.70003e-05 0.000160483)
(0.102822 -0.000237947 7.51729e-05)
(0.102771 -0.00014959 0.00017184)
(0.102897 7.87606e-05 4.7741e-05)
(0.103347 0.000104 -0.000135123)
(0.103376 0.000192816 -0.000152707)
(0.102775 0.000321089 0.000105149)
(0.102557 4.53664e-05 0.000153701)
(0.101731 0.00016242 -7.40518e-05)
(0.100826 0.000141673 -5.93145e-05)
(0.103497 -0.000229346 2.63624e-05)
(0.103594 0.000212479 -0.000326167)
(0.103683 0.00055332 -0.000252995)
(0.103159 -0.000220247 0.000145534)
(0.102957 -0.00029742 0.000205751)
(0.10242 -0.000414077 0.000302761)
(0.102976 0.000122053 -6.22764e-06)
(0.103362 -0.000162668 2.17647e-05)
(0.103303 -2.46662e-05 -0.000199439)
(0.10333 2.16794e-05 -0.000173819)
(0.1023 0.000204836 -0.000134383)
(0.102515 0.00012083 4.8718e-05)
(0.102217 0.000112253 -0.000155128)
(0.100766 0.000196098 -3.76409e-06)
(0.101844 0.000138005 0.000267229)
(0.101848 1.22869e-05 0.000290918)
(0.102167 5.72148e-05 0.00044154)
(0.100757 -1.80477e-05 0.000178796)
(0.103029 -0.000106219 -0.000256329)
(0.103104 3.70944e-05 -3.59357e-05)
(0.103458 -0.000188525 -6.31858e-06)
(0.103315 0.000120863 -0.000179559)
(0.103086 -0.000119454 0.000204048)
(0.103553 4.74993e-05 0.000205639)
(0.102964 5.11198e-05 0.000268437)
(0.102361 -3.47485e-05 0.000320349)
(0.10276 -5.62778e-05 6.84351e-05)
(0.102626 -0.000222683 0.00010222)
(0.102496 -2.22881e-05 0.000366037)
(0.103271 2.18781e-06 4.55896e-05)
(0.103651 -0.000125236 0.000155813)
(0.102884 5.4595e-05 0.000224051)
(0.103816 -1.92491e-05 -0.00018889)
(0.103744 0.000104469 -0.000112864)
(0.103368 -3.59373e-05 2.72203e-05)
(0.102963 0.000205094 -4.53409e-05)
(0.102901 5.17939e-05 5.89123e-05)
(0.102563 9.00349e-05 8.07915e-05)
(0.102988 0.000119493 0.000150332)
(0.102072 0.000189896 -6.23494e-05)
(0.102729 0.000310855 6.22637e-05)
(0.102267 9.20296e-05 0.00021048)
(0.10282 0.000272072 0.000138352)
(0.103816 9.53808e-05 0.000163027)
(0.103452 0.000225179 2.21583e-05)
(0.103576 -0.000227287 -6.88262e-05)
(0.102123 8.79244e-05 5.55007e-05)
(0.100613 3.40811e-06 -3.76672e-05)
(0.102305 8.8379e-05 -1.76046e-05)
(0.102772 7.1624e-05 -3.09987e-05)
(0.103677 0.000131997 -1.99628e-05)
(0.10365 -9.25292e-05 5.96506e-05)
(0.103394 -2.70976e-05 -2.42606e-05)
(0.103721 -8.8327e-05 -1.47561e-06)
(0.103281 2.1415e-05 2.09893e-05)
(0.103183 2.6339e-05 -0.000180287)
(0.103245 -5.13878e-05 -3.83929e-05)
(0.103228 1.88228e-06 -0.000185167)
(0.103476 -0.000157514 -1.11715e-05)
(0.103414 -0.000203872 -9.36213e-06)
(0.103164 -9.92395e-05 5.98691e-05)
(0.102903 -0.000532625 0.000289405)
(0.103037 -0.000439104 2.65631e-05)
(0.10294 -0.000438113 -4.17003e-05)
(0.103137 -3.81635e-05 -6.34615e-05)
(0.10312 5.40309e-06 -0.000113916)
(0.102799 -1.54904e-05 0.000162623)
(0.103732 7.44322e-05 0.000123225)
(0.102962 -0.000140264 0.000168952)
(0.103238 0.000137894 -2.54854e-05)
(0.103262 0.000123503 -5.89207e-05)
(0.103459 -0.000280444 9.34488e-06)
(0.102774 -0.00017477 1.9138e-05)
(0.103297 0.000111408 -0.000334883)
(0.102973 0.000170025 -0.000418555)
(0.103311 -3.141e-05 -0.000410881)
(0.100622 -4.53139e-05 -0.000141921)
(0.103332 2.48503e-05 -5.04691e-05)
(0.102938 7.62938e-05 -0.00017169)
(0.10225 9.87128e-05 -0.000243195)
(0.102918 0.00017245 2.04e-05)
(0.102416 0.000297957 -6.02709e-05)
(0.103068 0.00039919 -5.2334e-05)
(0.103066 1.65459e-05 1.07224e-05)
(0.103119 4.05834e-05 -5.51195e-05)
(0.103077 7.97532e-05 1.49684e-05)
(0.102993 -4.32282e-05 -5.10476e-05)
(0.103257 0.000115825 -2.86856e-05)
(0.102918 5.61111e-05 -0.00026399)
(0.103168 3.04794e-05 -4.18693e-05)
(0.102795 -0.000198099 -0.000152038)
(0.102794 -0.000229747 -0.000160012)
(0.103242 -0.000183695 1.217e-05)
(0.103016 -0.000140707 0.000144027)
(0.103339 8.14341e-05 -0.000226162)
(0.103381 0.000165201 -2.69534e-05)
(0.102212 -0.00020026 0.000134335)
(0.102194 -8.71099e-05 6.72349e-05)
(0.100836 3.02425e-05 1.72255e-05)
(0.102867 -0.000131708 9.183e-06)
(0.103308 -0.000289134 -1.16961e-05)
(0.103301 -0.00011258 -0.000169051)
(0.103125 7.23055e-05 -9.94015e-05)
(0.103373 -0.000223964 -9.69718e-05)
(0.103733 -1.18103e-05 6.91791e-05)
(0.103539 7.08665e-05 0.000133195)
(0.103334 -2.3478e-05 -1.97948e-06)
(0.102625 -0.000170418 -0.000174404)
(0.103513 -0.000193711 -0.000158946)
(0.101557 6.52434e-05 -4.18791e-05)
(0.101761 -0.000119724 0.00020353)
(0.101875 -9.86923e-05 0.000260559)
(0.100345 -0.000115087 0.000240095)
(0.10337 -0.000235578 -6.92721e-06)
(0.103139 -0.000397005 9.98219e-05)
(0.103078 -0.000288597 0.000321652)
(0.101805 -0.000219762 -0.000178947)
(0.100716 -6.30678e-06 -7.13832e-05)
(0.102983 2.41229e-05 5.04473e-05)
(0.1029 -9.40279e-05 0.00014222)
(0.10064 -7.59375e-05 -4.01823e-05)
(0.103123 -0.000217962 7.71637e-06)
(0.103418 -0.000219349 6.96598e-05)
(0.102118 3.41826e-05 7.28002e-05)
(0.102413 0.000254648 9.00238e-05)
(0.102716 8.04628e-06 2.60088e-05)
(0.102357 -8.86627e-05 -6.23215e-05)
(0.102308 3.14813e-05 -0.000114701)
(0.102385 6.21492e-06 -0.000214748)
(0.100805 4.80678e-05 0.000100401)
(0.102719 9.67746e-05 1.089e-05)
(0.102563 8.93639e-05 -0.000181848)
(0.102534 8.66097e-05 -0.000122181)
(0.103473 0.000100006 -2.18901e-05)
(0.103631 5.09648e-08 -0.000123439)
(0.102764 -6.96946e-05 -0.000139397)
(0.103277 -0.000217384 -0.000183266)
(0.103545 -0.000669026 -0.00020355)
(0.103619 -0.000118928 0.000130698)
(0.102215 -1.66451e-05 -0.000134753)
(0.102125 -9.88837e-05 -0.000148219)
(0.100694 -3.65608e-05 -6.18328e-05)
(0.102104 -0.000213213 -0.000128527)
(0.101647 -7.16825e-05 3.10913e-05)
(0.100667 -6.32016e-05 -9.01493e-05)
(0.103124 -0.000213016 6.458e-05)
(0.102474 8.56375e-05 0.000138368)
(0.102959 -6.33753e-05 4.89728e-05)
(0.10264 7.51984e-05 2.44017e-05)
(0.103068 -0.000143543 -2.7757e-05)
(0.10351 -0.000180894 -6.47537e-05)
(0.102952 8.07393e-05 -0.000131791)
(0.102009 9.09137e-05 4.23488e-05)
(0.102161 0.000183842 -5.41381e-05)
(0.100347 0.000188558 -0.000201456)
(0.103426 -0.000304945 0.000182189)
(0.103398 -0.000312452 5.91707e-05)
(0.103226 -0.000403126 0.000102908)
(0.102612 6.04411e-05 -6.998e-05)
(0.102228 4.13193e-05 -0.000175301)
(0.100937 9.14792e-05 -0.000141193)
(0.101648 0.000110424 5.36351e-05)
(0.10177 -7.13807e-05 0.00031226)
(0.100738 2.00073e-05 6.44376e-05)
(0.103372 1.91971e-06 -3.74571e-05)
(0.103355 -9.95789e-06 -2.10152e-05)
(0.103703 -0.000148437 0.000136627)
(0.102923 -0.000242212 2.9394e-06)
(0.102827 -0.000119694 -0.000201409)
(0.103328 -0.00018533 4.11836e-05)
(0.102767 -2.2323e-05 0.000195994)
(0.103041 -4.79108e-06 -2.0734e-05)
(0.102614 -0.000167514 0.000148164)
(0.102994 -0.000220122 0.000121134)
(0.102995 -0.000165229 0.000151553)
(0.102423 -0.000163256 0.000198809)
(0.101889 0.000236296 9.69273e-05)
(0.102513 0.000221955 -4.46546e-05)
(0.102246 2.25207e-05 -0.000121777)
(0.102598 -5.17549e-05 -0.000116921)
(0.102216 8.89487e-05 3.3714e-05)
(0.100846 -4.16574e-06 -8.9319e-06)
(0.102461 -3.23006e-05 -0.000109776)