/*--------------------------------*- C++ -*----------------------------------*\
| =========                 |                                                 |
| \\      /  F ield         | OpenFOAM: The Open Source CFD Toolbox           |
|  \\    /   O peration     | Version:  2212                                  |
|   \\  /    A nd           | Website:  www.openfoam.com                      |
|    \\/     M anipulation  |                                                 |
\*---------------------------------------------------------------------------*/
FoamFile
{
    version     2.0;
    format      ascii;
    arch        "LSB;label=32;scalar=64";
    class       volScalarField;
    location    "0.01";
    object      epsilon;
}
// * * * * * * * * * * * * * * * * * * * * * * * * * * * * * * * * * * * * * //

dimensions      [0 2 -3 0 0 0 0];

internalField   nonuniform List<scalar> 
31639
(
7.39736
7.49349
7.5985
7.64157
7.27831
7.4243
7.24585
7.46894
7.36591
7.64314
7.64296
7.61285
7.54506
7.61045
7.44313
7.1472
7.39751
7.19982
7.02506
7.50524
6.91163
7.49024
7.6198
7.08445
7.09074
7.34621
7.52261
6.74605
7.23903
7.60403
7.63113
7.17909
7.63383
7.0716
6.9724
7.63136
6.74447
7.6534
7.64458
6.71709
6.9942
6.89292
7.63374
7.52631
7.58911
7.63957
7.42821
7.16804
7.38195
7.63067
7.61788
6.65629
7.6455
6.85989
7.1294
7.38745
6.84104
7.51982
7.50965
6.83007
7.2914
7.44463
7.10283
7.46726
7.38117
7.61672
7.28033
7.52582
7.04362
7.6245
7.65619
7.25165
7.5865
7.50572
7.65854
6.95878
7.64326
7.21736
7.47673
7.53011
7.06875
6.73877
7.67765
7.56791
7.54037
7.64693
7.63987
7.66101
6.84745
7.69538
7.55659
7.22625
6.84211
7.46916
6.93951
7.42191
7.25178
7.52199
7.53535
6.90106
7.64279
7.65759
7.45892
6.78961
6.83392
7.63843
6.82872
6.72242
7.02271
6.89468
7.50792
6.9334
7.47873
7.1317
7.52155
6.81239
7.26253
7.23957
7.64055
7.4853
7.43377
7.60298
7.55847
7.33457
7.33339
7.60556
7.48557
7.02517
7.01706
7.61249
7.61653
7.53737
7.56221
7.19337
7.44484
7.54061
6.82734
6.83107
7.59646
7.51949
7.48666
7.5956
7.64855
6.73576
6.76898
7.62213
7.54401
6.89005
6.91406
7.64581
7.01254
7.54341
7.03318
7.42998
6.87872
7.61631
7.23863
7.05209
6.86013
7.07548
7.64178
6.92826
7.02421
6.84232
6.93662
7.38927
6.94673
7.62152
7.60071
6.73999
7.20941
7.4122
6.94884
7.54968
7.6468
7.55123
7.55795
7.62971
7.55525
7.51941
7.48314
7.13934
7.38194
6.75275
7.37858
7.65351
7.28908
7.6178
6.91365
6.80784
7.60296
7.47273
7.35319
7.4849
7.48415
7.11715
7.15793
7.59839
6.77412
7.17178
7.56879
7.67125
7.42166
7.45598
7.32433
7.50147
7.42569
7.47091
7.60724
6.72489
7.48332
7.20302
7.54849
7.50535
7.38075
7.60863
6.97112
7.17437
7.67221
7.57445
7.59087
7.28481
6.79581
7.61628
6.84402
7.36526
7.64914
7.09573
6.90966
7.41845
7.43156
7.64114
6.89867
6.85196
7.31671
7.35809
6.78193
7.52196
7.09795
6.76709
7.47159
7.32431
7.39153
7.10068
7.15225
7.38566
7.445
7.35777
6.82415
7.49168
7.3479
6.97556
7.1113
7.62443
7.5812
7.18494
6.9664
7.58752
7.54117
7.22686
7.64116
7.6306
7.46701
7.64194
7.44905
7.30313
6.80358
7.07107
7.50793
7.40386
7.42466
7.09333
7.30316
7.52587
7.64219
7.52572
6.85133
7.1826
7.01881
7.60042
7.23453
7.64801
7.60782
7.14272
6.90093
7.09925
6.8838
6.82197
7.58663
6.96021
7.62416
7.40916
7.11437
7.02781
7.62456
7.17371
7.15468
7.48089
7.33393
7.15505
7.48205
6.88198
7.49853
7.46207
6.92965
7.19528
7.43743
6.60814
6.80285
7.61229
7.67163
7.61163
6.86886
7.00552
7.59674
7.03217
6.97335
7.62649
7.63927
7.4272
7.61153
7.64557
6.9298
7.68727
6.78351
6.86975
7.61321
7.54834
7.59129
7.60852
7.38375
6.96553
7.36415
7.45318
7.64983
7.66463
7.67146
7.46259
7.30732
7.54851
7.60978
7.32905
7.33237
7.20116
7.4676
7.16302
7.51541
7.34036
6.93847
7.47007
7.7179
7.14929
7.6045
7.52125
7.46652
6.87902
7.4702
7.45784
6.86927
7.64395
6.91179
7.30556
7.65995
6.77767
7.51617
7.47221
6.88933
7.28815
6.97257
7.14906
7.60701
7.40344
6.76775
7.39448
6.96403
7.39077
7.60585
7.61735
7.72392
6.96077
7.51068
6.87276
7.43709
6.78034
7.58648
7.6041
7.65479
7.63441
7.05805
7.53292
7.51716
7.57504
7.47531
6.99357
7.25714
7.32924
7.47666
7.41599
7.31694
7.42248
7.18184
6.92508
7.33155
7.53097
7.57792
6.76114
7.64865
7.5946
7.47322
7.49724
7.56039
7.25347
7.56975
6.94953
7.37859
7.58865
6.81975
7.33223
7.57883
6.98969
6.75233
6.89064
7.23003
6.91777
7.53732
7.50927
7.17541
7.63238
6.9433
7.59537
7.63507
7.48747
7.36481
7.21474
7.6499
7.51181
7.35869
7.60209
7.53103
6.84935
7.49472
7.6207
7.64757
7.43141
7.65184
7.37202
7.35067
7.5363
7.60458
7.62773
6.89883
7.51045
6.68053
7.23288
7.43432
6.90107
6.88186
7.18988
7.35012
7.49301
6.84583
7.4079
7.12101
7.46249
7.43282
6.51972
7.45453
6.8106
7.41507
7.62206
7.67398
7.55445
7.20746
6.82966
7.38476
7.47798
7.6127
6.84944
6.8932
7.4503
6.90625
6.9789
7.33983
6.83887
7.16669
6.93816
7.38451
6.87611
7.63375
7.60782
7.63615
7.56378
7.19114
7.65974
7.65111
7.32794
7.46945
7.5415
7.64413
7.65315
7.14958
7.55614
7.63903
7.46457
6.95711
7.61481
7.51228
6.67206
6.84006
7.52878
7.70463
7.61466
7.37084
7.61108
7.62149
7.61252
7.55049
7.21453
7.27908
6.94507
7.45669
7.39396
7.62887
7.10625
7.05249
6.97502
7.31569
7.44828
6.65004
7.40222
7.10868
7.31762
7.18584
7.51008
7.2595
6.9302
7.54947
7.54767
6.98609
7.40406
7.67748
7.53481
7.44893
6.82387
7.02995
7.49142
7.51407
6.94896
6.84166
7.52793
7.10907
7.4042
7.11672
7.22717
7.64239
7.47551
6.84248
7.19795
7.52095
7.61641
6.87282
6.64678
7.60459
6.83516
7.56742
7.59277
6.89338
7.51262
7.56531
7.32926
6.91368
7.67854
7.33772
6.91959
7.66613
7.56102
7.38486
7.54366
6.68606
7.00478
7.46956
7.15156
7.19109
7.38404
7.60419
7.61675
7.49509
7.55648
7.59525
7.31931
7.08849
7.55873
7.58639
7.75027
7.0803
7.52802
7.30718
7.71911
6.9719
6.73672
7.62354
6.93068
7.63239
7.39901
6.80726
7.16025
7.62127
7.32026
7.42597
6.7973
7.45778
7.26298
6.80418
7.61668
7.60079
6.72295
6.95987
7.0287
7.22629
7.5165
7.51796
7.48548
7.49168
7.59505
7.51512
7.48083
6.97944
7.60148
6.89149
7.51125
7.26413
7.23863
7.72729
7.47742
7.04971
6.75793
6.9721
7.24256
7.60706
6.9417
7.61513
7.29518
7.60594
6.89453
7.40878
7.57797
7.61936
7.61972
7.5526
7.56506
7.32349
7.67501
7.6479
7.66092
7.14271
7.49266
6.86639
7.66613
7.52467
7.45647
6.96375
7.41113
6.70777
7.56924
7.31825
7.62975
7.47367
7.38822
6.8795
7.61719
6.78405
6.75335
7.05682
7.11296
6.84347
7.50013
6.83971
7.45227
7.33158
6.68231
7.62382
6.9373
6.99889
7.40797
7.06369
7.44594
7.5752
7.62076
7.58947
7.08095
7.46073
7.15024
7.20418
6.69754
6.11689
7.62544
7.47883
7.39958
7.63006
6.84777
7.64941
7.62954
7.58652
7.57448
7.58356
7.5592
7.64641
7.62567
7.5117
7.63085
7.47976
6.94048
7.62385
7.17239
7.58044
7.37427
7.48946
7.03631
7.64961
7.47248
7.49022
7.29752
6.99984
7.61308
7.29262
7.0957
6.88387
7.58671
6.69903
7.55047
7.47201
7.38112
7.59445
7.62507
7.58638
6.86806
7.47424
7.34475
7.59476
6.93551
7.53688
7.39979
7.36046
7.50209
7.27416
7.34995
7.19587
7.18514
6.74634
7.59463
7.36694
7.58926
7.11207
7.4878
7.5416
7.45545
7.08938
7.50689
7.60085
7.48339
6.71357
6.79211
7.43002
6.73014
6.82776
7.57419
7.57858
7.56729
6.69031
7.44202
7.59342
6.85896
6.71898
7.42574
6.95851
7.4525
7.05882
7.62163
7.11483
7.09289
7.60369
6.73211
7.42756
7.43752
7.59801
7.63976
7.61313
6.98835
7.57529
7.60641
7.19117
7.63402
7.58792
7.40668
7.62347
7.50214
7.68288
7.64803
7.65451
7.54995
7.2318
7.51368
7.48405
6.93102
7.3634
7.5699
7.60396
7.63294
7.45379
7.68675
7.60783
7.34576
7.46691
7.63827
7.4667
7.43257
6.90538
7.13389
7.69044
6.72908
7.30184
7.45176
7.18154
7.39872
7.57619
7.36152
7.60048
7.28723
7.4204
7.25311
7.60287
7.51068
7.19157
6.94212
7.61564
6.97687
7.40565
7.1873
7.40929
7.27615
7.68304
6.95326
7.67318
6.99453
7.53791
7.23315
7.46853
7.46554
7.59297
6.92442
7.59333
7.63047
7.54934
7.56625
7.38938
6.7544
7.64459
7.63537
7.49249
7.5935
7.63417
7.4925
7.3651
7.55005
6.83995
7.21934
7.62642
6.85973
7.11456
7.72489
7.6552
7.04518
7.11573
7.6264
7.05606
7.4222
6.91728
7.55705
7.55579
6.69599
7.30064
7.61554
7.4503
7.55917
7.41042
7.60889
6.97647
6.96211
7.68616
7.65585
7.43446
6.90594
7.37592
7.6863
7.06894
7.65247
7.47546
7.53213
7.3489
7.52979
7.55486
7.50618
7.42517
7.04866
6.76531
7.3031
7.54315
6.88273
7.60131
6.77428
7.41723
7.14822
6.91476
7.4571
7.06082
7.45482
7.3039
7.49392
6.90152
6.93331
7.19556
6.87593
7.39541
7.61798
7.45142
7.66347
7.28932
7.49302
7.69021
7.19114
7.32261
7.4725
7.4731
7.36528
7.04688
7.5259
7.58547
7.62114
7.69969
6.96411
6.75118
7.45393
7.6195
6.997
7.4065
7.40843
7.49122
7.69557
7.14033
7.42031
7.4298
6.8566
7.63394
7.54451
6.88484
7.03741
7.47492
7.15301
7.63574
7.65733
7.36467
6.97031
7.65767
6.79423
7.50123
7.5669
7.17671
7.65201
6.83103
7.47568
7.40188
7.45553
6.87449
6.78628
7.54973
7.65812
7.13568
7.57489
7.57964
7.46285
6.93718
7.06712
7.60556
7.23808
7.49667
7.63707
7.61787
7.66462
7.58856
7.31874
7.32535
7.58057
6.97824
7.53287
7.56726
7.53794
7.57917
7.69509
7.26133
7.57972
7.4733
6.76922
7.64881
7.14565
7.65171
7.14312
7.6132
6.96247
7.53326
7.6975
7.45027
7.5405
6.91822
7.61392
7.64535
7.51404
6.80567
7.79512
7.23572
7.52412
7.5588
7.61543
7.58687
7.45889
7.25087
7.65828
6.96592
7.04947
6.97532
7.04642
7.57118
6.84163
7.63694
7.63524
7.59288
7.43655
7.20483
7.52602
7.66693
7.52157
7.38628
7.65621
7.58447
7.29384
7.60345
7.48022
7.4684
7.44717
7.16363
7.60252
7.69788
7.60188
7.60698
7.55423
7.1132
7.72856
7.36338
7.39497
7.46862
7.57024
7.69951
7.5282
7.57955
7.06629
7.47847
7.36664
7.00653
6.94345
7.47775
7.25697
7.63646
7.15498
6.71905
7.33711
7.62339
7.14135
7.14914
7.51047
7.64703
7.6121
7.39791
7.13761
7.50056
7.47134
7.19383
7.36878
7.49757
6.88679
7.23101
7.1619
7.41198
7.65784
7.49296
7.61945
7.45184
7.52113
7.43552
6.79682
6.88778
6.88029
7.6004
7.53466
7.68072
7.79431
7.47946
6.83818
7.57202
7.22791
7.38713
7.38921
7.57745
6.78596
7.65546
6.90358
7.50095
7.32619
7.31379
7.68697
7.52299
7.60062
6.8861
7.50785
7.38168
7.47957
6.99171
7.11311
7.54627
7.5533
7.33743
7.53495
7.67167
6.88388
7.23519
7.19167
7.0861
7.50219
7.63706
7.66466
7.58822
7.63288
6.99087
6.9967
6.91932
7.73324
6.98933
7.54875
7.27684
6.95185
7.18868
7.62959
7.67045
7.07135
7.20583
7.43299
7.51144
7.64227
7.32384
6.87404
7.52174
7.62352
7.58068
7.63636
7.62325
7.7574
7.62413
7.46375
7.04449
6.90153
7.51014
6.99297
7.64147
7.00232
7.56995
7.18448
7.57924
7.04476
7.43153
7.62561
7.60332
7.1953
6.97269
7.64515
7.2101
7.60245
7.29861
7.76688
7.64904
7.54515
6.94213
6.93796
7.44848
7.3391
7.18026
7.70358
6.98997
7.57575
7.46045
7.18867
7.55713
7.6608
7.62757
7.63684
7.71611
7.57205
7.3076
6.85317
7.04795
7.59189
7.0089
7.38312
7.46455
7.0242
7.47705
7.47508
7.46401
7.56527
7.6466
7.01727
7.47693
7.53209
6.94548
7.11244
7.43748
7.22634
7.44908
6.96512
6.90972
7.49118
7.15942
7.6371
7.66133
7.56463
7.41892
7.43224
7.4789
7.37809
7.61774
6.99324
7.49779
7.19146
7.62045
7.46463
7.26603
7.3668
7.63234
6.98663
7.51891
7.62863
7.46892
6.53444
7.18987
7.02078
7.35855
6.83568
7.69464
7.66962
7.60111
7.57808
7.03574
6.86439
7.63163
7.72128
7.60171
7.51815
7.37545
7.59972
7.72038
7.56628
6.88753
7.32905
7.52872
7.57106
7.23302
7.49475
6.78311
7.6056
7.61132
7.32639
7.54316
7.41484
7.51598
7.63877
7.6183
7.03209
7.48559
7.60767
7.46774
7.29997
7.41763
6.86537
6.85614
7.63751
7.62459
7.6099
7.60868
7.49395
7.53348
7.30577
7.53019
7.5465
7.63681
7.17148
7.24502
7.37617
7.5247
7.64678
6.80617
7.30349
6.74215
7.63578
6.79186
6.94173
7.47155
6.62966
7.30653
7.54205
7.62497
7.59685
7.06381
7.3642
7.68263
7.17649
7.07726
7.32038
7.03212
7.61339
7.57406
7.30282
6.97998
7.5682
7.72361
7.58166
6.9235
7.03762
7.47542
7.62105
7.62868
6.93332
6.93478
7.47195
7.34819
7.66111
7.46781
6.79577
7.39001
7.61279
6.91102
6.77039
7.63259
7.02055
7.00276
7.66052
7.56662
7.56363
7.72111
7.44449
7.25892
7.66547
7.11827
7.54354
7.08365
7.42632
7.50733
7.4431
6.90015
7.57518
7.5761
7.16892
7.4841
7.19246
7.04779
7.15139
7.31847
7.46123
7.65367
7.12747
7.59907
6.85524
7.57951
7.63857
6.9344
7.58541
7.5365
6.58902
6.88807
7.54221
7.48296
7.61245
7.11938
6.9508
7.58156
7.63191
7.61729
7.35563
7.59968
6.81953
7.66526
7.50915
6.91784
6.89971
6.61174
6.82635
7.62819
7.18886
7.57711
7.52714
6.94536
6.98299
6.73074
6.7226
7.72238
7.68391
7.03715
7.63891
7.4633
7.00898
7.42715
7.30524
7.05083
7.19158
7.58569
7.1133
6.863
7.57792
7.73026
7.06926
7.60598
7.3546
7.06266
6.9365
7.31268
6.93564
6.93637
7.55048
7.53856
7.23764
7.56183
7.57265
7.46199
7.66886
6.32763
7.31016
6.86645
7.51485
7.60542
7.46618
7.11801
7.48143
6.91379
7.57406
7.47079
7.08506
7.00104
6.7179
6.72014
7.1201
6.85043
7.25731
6.87592
7.22474
7.51616
7.42206
7.24442
7.56916
7.41775
7.5059
7.56371
6.82525
7.23576
7.6182
7.62504
7.44369
7.68541
7.00405
7.56153
7.47476
6.87244
7.4547
7.64949
7.39929
7.59424
7.61102
7.37972
6.66829
6.67172
7.44964
7.64994
7.35699
7.57319
7.15956
7.2095
6.93545
6.82053
6.77682
6.84759
7.44246
7.55984
7.66223
7.35083
7.20144
7.64709
6.86239
7.52877
7.59144
7.62394
7.36407
7.41391
7.63683
7.71995
7.59502
6.85744
7.30172
7.62799
7.41705
7.539
7.72108
7.54461
7.67074
7.54403
7.04347
7.4965
7.63381
7.48845
7.54084
6.8685
7.5982
7.62878
7.67584
7.61657
6.81767
6.72953
7.45342
7.45883
7.3404
7.52754
7.58408
7.57085
7.56416
7.1188
7.40926
7.49558
7.60945
6.9802
6.97932
7.34752
7.5579
6.95262
7.65573
6.92246
7.1474
7.52122
7.59071
7.19611
7.60859
7.53896
7.55938
7.38529
7.4939
7.53484
7.17378
6.69999
7.6283
6.75004
6.89794
6.89435
6.78806
6.81606
7.15407
7.54259
6.85164
7.13588
6.58745
7.01803
7.44128
7.65152
6.75262
6.95286
7.59393
6.78923
7.17042
7.52107
7.36544
7.51322
6.99598
6.8952
7.13408
7.60441
7.12495
6.95096
7.30757
7.15068
7.55227
7.46333
7.00468
7.62699
6.84478
6.95545
7.28868
7.59523
7.14016
7.25716
7.313
7.52651
6.73821
7.05764
7.45433
7.63415
7.53437
6.88179
6.72583
7.21629
7.63383
7.47029
7.48595
7.183
7.35607
7.4819
6.85599
7.6491
7.08645
6.86865
6.76457
7.61646
7.45163
7.62073
7.30044
7.6244
6.82333
7.28282
6.74375
6.77229
7.55423
6.99591
7.24925
7.52728
7.47332
6.91154
7.63448
7.60023
7.6191
7.38425
6.67704
7.54378
6.65786
7.64065
6.9282
7.62425
6.66535
7.56679
7.4611
7.1685
7.20074
6.65174
7.06369
7.48693
7.55864
7.39908
7.64648
7.63094
6.87595
7.63628
7.07663
7.56725
7.57078
7.63459
7.48861
7.49075
7.60834
7.19458
6.99276
6.96486
7.55524
7.67527
6.91084
7.09463
7.55097
7.40135
7.5047
7.7524
7.59289
7.36277
7.52384
7.53257
7.60215
7.35906
7.38098
7.64001
7.51493
6.93175
7.43343
7.08102
7.67079
7.54695
7.60475
6.95061
6.92679
7.50284
7.61219
7.57372
7.61332
7.67594
7.3022
7.37827
6.95125
7.32568
7.54956
7.57578
7.64813
7.65192
7.24361
7.62423
7.04195
7.57498
7.08828
7.46402
7.12176
7.52914
7.36102
7.61795
6.90731
7.65594
7.63156
7.24298
6.92024
7.7629
7.38811
7.58092
7.50709
7.5358
7.45536
6.83513
7.62453
7.26906
7.55512
6.94717
7.00827
7.09171
6.80974
7.04982
7.63809
7.50016
6.76485
7.4703
6.87426
7.29902
7.55218
6.67016
6.83836
7.0753
7.26039
7.48766
7.10294
7.5478
7.22045
6.92
7.0752
7.60356
7.60639
7.66165
7.57679
7.55863
6.90178
6.80665
7.59599
7.18031
7.32302
7.60502
7.72465
7.52251
7.5069
6.76093
7.58843
7.67716
7.15095
7.57068
7.57946
7.5293
7.39632
7.46176
7.16885
6.80368
7.52506
6.94061
6.85025
7.28454
7.5222
7.55193
7.56549
7.54989
7.5409
6.73992
7.12864
7.6858
7.66538
6.88705
7.31683
6.95248
7.34315
7.62022
7.17808
7.38529
7.62424
7.33747
6.80906
7.58504
6.84003
7.57017
7.54345
7.54178
7.62759
7.56465
7.6117
6.86619
7.60529
7.63031
7.01959
7.60219
7.47631
7.2399
7.64017
7.26824
7.59141
7.66796
7.61626
7.5464
7.64288
7.51632
7.41299
7.07388
7.33262
6.90232
6.73407
7.2809
7.58626
7.49182
7.6571
7.43739
7.61075
6.74763
7.63868
7.66685
7.59953
7.55909
7.00449
6.80037
7.49212
6.81957
7.56501
7.53704
6.73282
7.17573
7.6233
7.54434
6.68626
7.012
6.72972
7.65875
6.86111
7.59518
7.28264
6.92843
7.55368
7.57754
7.67894
7.58443
6.86001
7.37385
7.66794
6.9866
7.63295
7.493
7.58093
6.81971
7.51401
7.20117
7.44487
7.2231
7.43222
7.138
7.1947
7.25431
7.16256
7.54846
7.46014
7.63204
7.09519
7.47879
7.55079
7.62564
7.56983
6.98806
7.55412
6.89634
7.38652
7.65179
7.66227
7.34186
7.25087
7.51857
7.12413
7.41988
7.28038
6.91453
6.8473
7.56902
7.6643
7.29401
7.17619
7.6722
6.8621
7.56951
6.92969
7.36531
7.64957
7.53594
6.83149
7.65339
6.87501
7.58851
7.51028
6.83394
7.61435
6.98813
7.11906
7.25074
6.73004
7.03457
7.35387
6.68072
7.55039
7.67081
6.75379
7.05057
7.61198
7.4358
7.55105
7.69801
7.5772
7.46769
6.97573
6.85185
6.6686
6.77885
7.62698
7.56049
7.35932
7.50652
6.86077
6.86791
7.43907
7.54457
6.62804
7.48204
7.48771
7.29502
7.55039
7.36258
7.64161
7.0681
7.20916
7.68892
6.63302
7.44667
7.61976
7.64944
7.36275
7.62194
7.55306
6.84621
7.67982
7.68523
7.4639
7.54249
7.36304
7.47145
7.57226
7.46947
7.54348
7.50799
7.38354
6.81839
7.18812
7.67292
7.52057
7.66435
7.56016
7.3804
7.65618
6.97787
7.63502
6.86296
7.64209
7.40892
7.13704
7.66359
7.13159
7.23482
7.66901
7.17585
7.66793
7.59369
7.5168
6.96246
7.52968
7.46833
7.11667
7.62769
7.41187
7.45999
7.6833
6.88674
7.57746
7.53601
7.58462
7.14823
7.52963
6.90063
7.03589
7.77522
6.89967
7.54303
7.64122
6.93124
7.25495
7.66266
7.03448
7.01543
6.9906
7.18611
7.13573
7.69186
7.16704
7.61582
7.47302
7.65885
6.83421
7.09077
7.59512
7.49206
6.90933
7.00826
7.20872
6.62241
6.81801
7.47544
7.44115
7.62181
7.39615
7.63933
7.58625
7.55388
7.59442
7.48202
7.0374
7.34126
7.5646
7.44336
7.34939
7.61358
7.47643
6.78988
6.80699
7.22416
6.8457
7.41277
7.62782
7.31416
7.48923
7.62611
7.59377
7.67532
7.24573
6.96564
7.37428
7.21345
7.64768
7.30583
7.52303
7.60938
7.17596
7.17617
7.57703
7.66262
7.60368
7.77801
7.54039
7.30913
7.37012
7.06812
7.23487
7.64919
7.07048
7.60796
7.38044
7.61042
6.93601
7.61273
7.51116
7.64029
7.47038
7.34928
7.49469
7.59294
6.81669
7.03791
7.45572
7.1544
7.26412
7.54764
7.51711
7.64873
7.39542
6.85806
7.05784
6.88962
7.30471
7.52324
6.98766
7.71706
7.49523
7.20558
7.45166
6.94634
6.97466
7.6393
6.94507
6.72578
6.93643
6.96704
6.9012
6.99247
7.65267
7.59876
7.13454
7.58894
7.63059
7.48316
7.48407
6.76859
7.6466
5.93403
7.61931
6.89053
6.79417
7.5522
6.79804
7.23968
7.39586
7.63944
7.13131
7.47062
7.14202
7.47472
7.3597
7.37267
7.24893
7.53232
7.46453
6.92206
7.56517
7.41352
7.28209
7.04372
6.98366
7.2505
6.85084
6.82936
7.50778
7.19912
6.94701
7.15062
7.57132
7.60052
7.56895
6.12627
6.8958
7.6641
6.90682
7.51887
6.79307
7.63624
7.52908
7.68618
6.88596
7.307
7.65013
7.63563
7.38701
7.66562
7.46216
7.37183
7.44901
6.82942
7.35805
7.12128
7.50225
7.49815
7.08529
7.42729
7.59329
7.01857
6.9374
6.8875
7.52233
7.53682
6.82015
7.51102
7.49088
7.43509
6.95183
7.55036
7.20651
7.62537
6.66759
7.24842
7.47764
6.78127
7.62158
7.00834
7.00662
7.37134
7.65535
6.69253
7.53734
7.58225
7.22416
6.77497
7.64355
7.61658
6.76172
7.49392
6.70274
7.04339
7.64052
7.23692
7.47227
7.60299
7.6556
7.35634
7.09158
7.4447
7.28008
7.25305
7.11642
7.53847
6.84828
7.38013
7.25666
7.24877
7.54886
7.41955
7.57652
7.4711
7.49565
7.60933
7.41819
7.21873
7.06514
7.51948
7.3577
7.338
7.51461
7.60472
7.4137
7.60797
7.33669
7.56533
7.05027
6.92386
7.46653
7.55407
6.97095
7.40137
7.42529
6.64443
6.7624
7.61249
6.74901
7.43037
7.58295
7.38288
6.91355
7.42047
7.6583
6.88053
6.96487
7.0021
7.59529
7.50526
7.50199
7.69694
6.83361
7.58133
7.47316
7.6365
7.65909
5.98506
7.47576
7.48701
7.5677
7.36007
7.39045
6.83899
7.58611
7.6127
6.99766
6.80341
7.17698
7.57087
7.5047
6.85985
7.24653
7.56667
7.62015
7.43837
7.25054
6.75227
6.87124
6.87622
7.52483
7.42822
7.27693
7.60493
7.60998
6.73553
7.60745
7.60394
7.58172
7.1068
7.60951
7.28162
6.89066
7.0276
7.3609
7.37858
7.21792
7.36163
7.24962
7.56528
6.93149
6.8445
7.41595
7.59893
7.52948
7.219
7.20802
7.57513
7.66538
7.42799
7.08369
7.55528
7.58478
7.44013
7.63512
7.60211
7.48415
6.79227
7.14214
6.83748
7.4438
7.5984
7.15093
6.87448
7.65122
6.94591
7.18779
7.03753
7.24614
6.84733
7.5231
7.49346
7.4546
7.28339
7.02264
7.65105
6.94317
7.42282
7.27359
7.46369
6.89037
7.56312
7.54471
6.79456
7.06399
7.2849
7.22912
7.39761
6.53523
7.57998
7.14218
7.46754
7.07061
7.14016
7.13685
6.61468
7.57326
7.16323
5.43444
6.853
7.33014
7.60413
7.53197
7.01081
6.77612
7.50346
6.83516
7.58348
7.62933
7.32609
7.0095
7.56106
6.79173
6.8709
6.77068
7.54447
7.46989
7.14031
7.58067
7.39672
7.53192
6.98332
6.60965
7.6237
7.47806
7.64707
7.60748
6.88539
7.49301
7.335
7.29922
7.48968
7.09575
7.18454
7.79945
7.53929
7.15377
6.91508
7.40014
7.45956
7.4489
7.19178
6.80345
6.93979
7.36102
7.43385
7.32262
7.61816
7.07301
7.52501
7.18813
7.40645
6.59368
7.61898
7.3949
7.30155
7.66703
7.46868
7.02702
7.16936
6.61251
7.58451
7.23341
7.47304
7.42632
7.51424
7.47841
7.65474
7.29229
5.49369
6.93503
7.62955
5.81539
7.24437
7.61012
7.4998
7.60567
7.24025
7.0048
7.03234
7.67636
6.56247
7.63677
6.94035
6.6741
7.59075
6.97649
7.61314
5.52868
6.78158
7.40339
7.62534
7.63775
7.33228
7.573
7.49851
7.49742
7.52875
7.46947
7.42256
7.43692
6.5947
7.55534
7.43876
7.38081
7.63071
7.58782
7.58379
6.94055
7.63419
7.56828
7.06106
6.99512
6.79105
7.57828
7.52717
7.60006
7.64198
7.56636
7.51846
6.72317
7.45913
7.22931
7.22375
7.42649
6.86641
6.73498
7.3763
7.7332
7.5166
7.43994
6.91347
7.35295
7.1531
6.89883
7.60853
7.44849
5.9689
6.45868
6.81081
6.91454
7.5904
7.5085
7.51553
7.09435
6.84862
7.55131
7.63484
6.70657
7.6331
6.97127
7.6431
7.40013
7.58252
7.56701
7.50628
7.56849
7.47049
7.15487
6.88209
7.12077
7.55872
7.25784
6.97158
7.37142
7.54056
6.83742
7.24181
6.99005
7.59907
7.40578
7.46902
6.18623
7.64664
7.61758
7.20326
7.52862
7.35407
7.44084
7.63742
7.31348
7.51496
7.65005
7.49819
6.91517
6.88776
7.69025
7.24904
6.8882
6.97323
7.55491
7.65794
7.56626
7.62199
7.67272
7.59429
7.53939
7.4398
7.27551
7.52773
6.79644
7.26788
7.56019
7.16645
7.02648
6.98833
7.52448
7.6747
6.8522
7.42724
7.55313
6.86678
7.63295
6.63018
6.87738
6.93745
7.69735
6.97019
6.82441
7.00799
7.16712
7.5252
6.6817
6.81633
7.24954
7.3052
6.6708
7.47065
6.94594
7.02117
7.5276
7.042
6.81868
7.57202
7.34527
7.10536
6.88859
7.47054
7.09459
6.70535
7.62241
7.50086
7.5605
7.26816
6.94963
6.83346
7.4592
7.23313
7.6175
7.28575
7.58272
6.99273
7.45633
7.48367
7.58801
6.42872
6.77059
7.00976
7.61132
6.96168
7.46681
6.10683
7.05709
7.54211
7.15305
7.50414
6.98259
7.45041
7.45253
7.47054
6.95194
7.47942
7.73955
7.03963
7.47798
7.24589
7.53564
7.0081
6.88602
7.52406
6.86097
6.52663
6.67494
7.04024
7.04676
6.63005
7.58747
7.23583
6.76357
7.37186
7.62031
7.47406
6.7249
7.63659
7.55867
6.88001
7.22609
7.4343
7.01871
7.45485
7.4743
7.45747
6.80145
6.74776
7.4636
6.92765
6.65496
6.64941
6.87951
7.41404
6.95845
7.57806
7.43234
7.50035
7.04841
7.60266
7.25993
7.29797
7.0321
5.49204
7.67253
6.78566
7.29128
7.51151
7.60214
6.56018
7.53925
7.67075
6.88915
7.27003
7.22118
6.98268
6.63687
7.34307
7.09175
7.37327
7.6353
7.39572
7.62672
7.31361
7.30325
6.97821
6.52724
6.77372
7.53102
6.74651
7.43039
7.10323
6.67797
7.06431
7.58463
6.70482
5.73886
7.09353
7.55288
7.5839
7.5293
5.62622
7.05048
7.62914
7.55772
7.63371
7.44638
6.71358
7.60715
6.75324
7.54418
7.06032
7.18353
7.35909
7.58192
6.87831
7.2401
6.6434
7.30247
7.58451
7.56918
7.46206
6.85205
6.80879
7.3632
6.88623
7.31346
6.71314
7.01749
7.52264
7.60026
6.87241
7.59347
6.98347
7.69694
6.79085
7.60895
7.43116
7.5282
7.26972
6.96571
7.01358
7.75976
7.19152
7.45753
7.43913
6.92447
7.39304
7.60761
6.96647
7.13898
7.05545
6.95944
7.24708
7.54804
6.42381
7.6356
6.58183
7.38274
7.50362
6.75739
7.39705
7.4656
7.01505
7.26247
7.25233
7.22669
6.69524
7.52907
6.71415
7.39587
5.86027
7.51678
6.68086
6.92079
7.29926
6.82656
7.05607
7.63188
7.48944
7.32895
7.59755
6.77515
7.52033
6.91819
7.45165
7.21201
7.36828
7.46638
7.5093
6.7102
6.74086
7.61025
7.46119
7.50562
6.60974
7.64963
7.72761
7.58266
7.52152
7.22559
6.89585
7.41411
6.89326
7.1211
7.55971
7.35152
7.07926
7.44316
7.42694
7.46013
6.8723
6.95039
6.89482
6.57764
7.66646
7.45932
7.07539
7.59437
7.4839
6.99628
7.62544
6.65936
6.96567
6.70148
6.86386
7.63553
7.52753
6.31595
7.62602
6.66372
7.47485
7.46557
7.46708
7.60089
7.40826
7.51687
7.11234
7.37808
7.35464
7.57988
6.69539
6.86285
7.31217
6.64347
7.04465
6.61342
7.02885
7.5478
7.1563
6.27313
6.35259
6.73651
6.9996
7.12161
7.20464
7.36559
7.5183
6.47896
7.25289
7.0462
7.16673
6.70468
7.24815
6.67174
6.18983
6.95474
6.91844
6.94626
6.97744
7.1075
7.20379
6.8631
7.60078
6.7619
7.45758
7.14499
7.34932
7.17787
6.8397
7.32296
7.44516
6.65033
7.20915
7.33938
7.64737
7.47338
7.27318
7.56858
7.5355
7.46325
7.52158
6.88539
7.5861
7.70193
7.4763
7.54766
7.54442
7.50076
6.15618
6.90105
7.50919
7.2506
7.09474
7.61488
6.67019
6.69737
6.34052
7.52552
7.03495
7.36572
7.61236
6.38348
7.58249
6.70915
7.6321
7.55361
7.68559
7.68601
6.35477
7.5063
7.64708
7.31386
6.34507
7.18781
6.82032
6.53223
7.43433
6.651
7.36116
7.56327
7.04776
7.30775
6.81139
6.80015
7.61031
7.48848
7.14742
7.26604
7.22577
7.44304
7.57042
7.64248
6.97444
5.66023
7.07405
6.69004
7.02699
6.97417
7.63696
7.57811
6.89807
7.49114
6.59329
6.30853
7.33024
6.59542
7.53764
7.42539
6.71218
6.65578
7.28871
7.63462
7.41424
7.57699
7.30076
6.17801
6.26468
6.9367
6.84559
7.575
6.60206
7.41933
7.32956
6.75476
6.86733
6.69352
7.57046
6.41602
7.23725
7.01391
7.1781
7.45091
7.66096
6.90798
6.80547
7.24409
7.07971
6.88144
6.68383
6.77051
6.82485
6.70517
6.52551
7.18995
7.13778
6.30388
7.44086
6.40378
7.18471
6.63993
6.6418
6.67988
7.2354
7.3316
7.17021
7.42121
6.66391
6.55328
7.16329
7.60905
6.72613
7.58101
7.49015
7.36723
6.85929
7.09983
7.49541
6.83097
7.14262
7.16245
7.43359
7.14229
6.96104
6.57271
7.6054
6.15093
6.06107
5.97221
7.3805
7.53792
6.98606
6.81145
7.47642
6.31237
7.55133
7.16842
6.88473
7.03758
7.29197
7.68488
6.42768
7.41557
7.55848
6.26478
6.35155
6.98997
7.05859
6.43041
7.20468
6.88696
7.24097
7.07566
7.52437
6.96379
6.92139
7.26886
7.362
7.24053
7.34062
7.0092
7.21079
6.49819
7.22249
7.01347
7.29104
5.99989
6.9537
5.92978
6.37727
7.50213
7.28812
6.57934
6.74478
7.317
6.53455
6.8011
7.54164
6.82069
6.62901
7.05082
6.78554
6.82761
6.76115
7.34905
6.5671
6.02905
7.22598
6.61863
6.67489
7.61384
6.20094
7.37799
7.52096
7.52064
6.35808
6.9244
6.42723
7.28748
7.6542
7.18451
7.15308
5.71368
6.91387
7.10364
6.77785
7.36294
7.17656
6.91036
6.67677
6.33666
6.72599
6.46135
6.48838
6.67245
7.03835
7.26794
6.16608
7.07285
6.70875
6.7996
7.43384
7.09276
6.42651
7.28841
7.39721
7.56954
5.60571
7.56076
7.13717
7.37252
6.61438
5.77167
7.35702
7.03651
6.24267
7.30979
6.65877
7.17721
7.08835
6.66485
6.56211
7.33048
6.85641
6.83615
7.40686
6.93158
6.8293
6.96976
6.37413
6.69257
6.75714
7.31508
7.28695
7.55083
6.88682
7.59187
6.08012
6.64628
7.3293
6.87874
5.50631
7.20348
7.02248
6.2187
5.93342
6.76123
7.33242
7.40589
7.23478
6.19918
7.52329
6.97945
7.55018
6.44619
6.88395
6.62842
6.92755
6.81852
6.92962
6.44961
7.62088
7.28132
6.74952
7.04286
6.2087
6.84354
7.15518
7.49551
6.5419
6.8243
6.91841
6.53281
7.41363
7.14454
6.20468
7.53224
7.63493
6.83959
7.45093
7.0798
5.95224
7.52735
6.50492
7.5473
7.55869
7.20407
7.53708
7.23927
7.04215
7.44754
6.96901
6.60817
6.72588
7.54183
7.48273
6.87733
7.29017
5.99232
6.82832
7.54416
7.11036
6.38941
6.39282
7.60838
7.06491
6.18468
7.29704
6.05398
5.96692
7.27399
6.88068
7.30039
6.88518
6.61565
7.44141
6.90889
6.57262
6.88815
5.57909
6.94329
7.02438
6.66204
6.39843
7.30766
6.78688
7.29762
6.4986
5.709
6.55382
6.72041
6.6112
7.46856
7.36229
7.2056
6.09289
6.77841
6.59533
6.26515
6.68285
6.79777
6.82809
6.71742
6.57009
5.98687
6.38334
7.38195
7.65787
6.78737
7.39596
6.3788
6.61842
6.47512
6.75103
6.81396
7.18089
6.978
7.44165
7.49423
7.20097
7.29806
6.56731
7.39756
6.41423
6.71797
7.53558
5.42834
6.80527
7.57278
6.45872
6.86056
7.09695
7.18154
6.89332
6.68308
7.22478
7.39581
6.85958
7.38551
7.13827
6.74716
6.34353
7.48482
6.77515
6.885
6.72111
6.6681
6.81689
6.80308
7.01536
6.87487
7.02491
5.98528
7.1705
7.33479
5.89882
6.70486
7.53606
6.67522
6.88133
7.20545
7.09356
7.53833
5.75702
7.55805
7.48489
6.51518
6.46548
6.02386
6.93044
6.40561
5.87966
7.55621
6.67555
6.87025
6.04008
6.69141
6.44682
6.85359
7.26043
6.79184
6.78651
6.97671
6.94961
6.70698
6.50027
6.67062
6.80163
6.38696
6.74915
6.25241
6.85743
6.39957
6.81177
6.40305
7.27394
6.71256
7.11948
6.49765
6.75051
6.38409
6.39575
7.37731
7.49132
6.4455
7.46667
6.24222
7.37095
6.92961
7.64899
6.64387
7.17917
6.91498
6.97048
6.73922
6.34184
6.56529
6.73863
6.83866
6.97295
6.60565
6.46028
6.42275
6.62884
6.82973
7.07847
5.93185
7.57766
6.81494
6.69399
6.3679
6.45682
6.56707
5.53359
7.07913
7.57934
7.08668
7.64464
7.58279
6.8213
7.39328
6.79704
5.64113
7.42234
7.44647
7.38191
6.70817
6.32883
5.95319
6.74706
7.33399
6.91712
6.4339
6.89697
7.03466
6.57599
6.7957
6.60404
7.30326
7.46159
6.54706
6.20063
6.7611
6.18907
7.49524
7.40211
7.57077
6.6699
6.30146
7.37554
6.8496
6.55994
6.89152
6.17691
6.41604
7.10068
6.61171
6.53107
7.4963
7.3496
6.09339
6.77825
6.97875
6.89034
6.59944
7.43211
6.72004
7.29048
6.64277
7.26341
6.32884
6.085
6.10604
7.10823
6.95997
7.00489
6.64158
6.67155
6.81088
6.99737
6.71603
7.43745
6.32392
7.51939
6.88529
6.84502
6.10233
6.60296
7.56305
6.91584
6.25593
6.55412
6.93883
7.34924
7.13232
6.96976
7.29005
7.23531
6.7743
6.10077
5.43519
6.79714
6.51898
6.75376
6.47628
7.46919
6.27283
6.57323
6.59193
7.53847
7.31789
6.67979
6.48547
7.20143
7.09291
6.98
6.99505
6.67731
5.8512
6.93595
6.73411
6.85026
6.17182
6.90836
6.07708
6.58631
7.07222
7.16281
6.44998
6.88527
7.14654
6.78338
7.17289
6.6301
6.42438
6.46381
7.68393
7.57948
6.7366
6.83081
7.55335
5.90663
7.2418
6.43137
6.172
7.34259
7.19344
7.76568
7.23193
6.51575
7.31288
7.03433
6.42803
7.49522
6.66423
6.33499
6.7256
6.83491
6.33482
6.47361
6.29692
6.9308
6.1175
6.55463
7.19886
7.13649
7.25726
6.84919
6.34982
7.16335
7.04522
6.87509
6.64822
6.86184
7.22287
6.98235
6.82551
6.54652
7.32187
6.9318
6.94198
6.65039
5.65418
6.51682
6.91109
6.33984
7.61389
6.3091
6.37744
6.92429
6.44292
6.2532
6.59904
5.92253
6.83914
6.71746
7.30182
6.73152
6.26029
7.61218
7.08094
6.40642
5.98881
6.58777
6.84254
5.85493
7.28739
5.98791
5.82616
5.66645
6.24043
6.24961
6.83675
5.55617
7.05906
6.27381
7.50238
7.54531
7.20909
6.81309
6.41979
6.7541
6.19301
6.9884
5.71529
6.54671
7.39664
7.54452
7.06424
6.73737
6.81003
6.76492
5.47925
6.98416
6.81653
6.11151
7.49436
7.27763
6.66704
6.99689
5.84642
7.14113
6.26101
6.32275
6.8613
6.93713
6.9251
6.99046
5.92006
6.58847
7.00014
6.70705
7.32807