/*--------------------------------*- C++ -*----------------------------------*\
| =========                 |                                                 |
| \\      /  F ield         | OpenFOAM: The Open Source CFD Toolbox           |
|  \\    /   O peration     | Version:  2212                                  |
|   \\  /    A nd           | Website:  www.openfoam.com                      |
|    \\/     M anipulation  |                                                 |
\*---------------------------------------------------------------------------*/
FoamFile
{
    version     2.0;
    format      ascii;
    arch        "LSB;label=32;scalar=64";
    class       volScalarField;
    location    "0.01";
    object      k;
}
// * * * * * * * * * * * * * * * * * * * * * * * * * * * * * * * * * * * * * //

dimensions      [0 2 -2 0 0 0 0];

internalField   nonuniform List<scalar> 
31639
(
0.0855252
0.0860274
0.0877382
0.0897537
0.0832865
0.0845583
0.0825419
0.0865951
0.0851451
0.0893764
0.089281
0.0887207
0.0870825
0.0893185
0.0850045
0.0808543
0.0854598
0.0819707
0.0794527
0.0862202
0.0758476
0.0870942
0.0895026
0.0801336
0.080168
0.0848715
0.0866642
0.0751943
0.0825936
0.0891216
0.0891708
0.0815819
0.0893077
0.0798221
0.0770937
0.0893081
0.0732279
0.090121
0.0895355
0.072364
0.0777624
0.0760003
0.0892353
0.0877089
0.0889776
0.0893797
0.0846238
0.0817351
0.085212
0.0895894
0.0888357
0.0720305
0.0898173
0.0749248
0.0809125
0.0852539
0.0751071
0.086535
0.0862125
0.0747977
0.0838082
0.0863627
0.0795604
0.0854963
0.0850417
0.0892737
0.0837868
0.0866529
0.0784234
0.0894004
0.0900414
0.0817053
0.0882292
0.0862481
0.0899886
0.0767201
0.0895272
0.0824737
0.0855628
0.0876777
0.0795986
0.0724703
0.0900425
0.0874439
0.0873695
0.0894146
0.0896501
0.0897799
0.0754457
0.0906657
0.0872434
0.0825249
0.075255
0.085604
0.0778245
0.0844677
0.0832127
0.086552
0.0868583
0.0759372
0.0901797
0.0894509
0.0853584
0.074137
0.0751768
0.0893915
0.0744193
0.0730484
0.0788935
0.0753625
0.0871089
0.0764568
0.0854653
0.0808603
0.0866341
0.0744736
0.0827482
0.0825478
0.0895886
0.0857917
0.086161
0.0885966
0.0877172
0.0846969
0.084196
0.0892743
0.0859478
0.0789798
0.0787732
0.0887071
0.0889396
0.0874926
0.0880404
0.0816612
0.0861674
0.0868611
0.0749497
0.0746575
0.0884487
0.0864598
0.0859062
0.0888125
0.0894817
0.0732536
0.0734613
0.0895259
0.0881819
0.0757511
0.0760979
0.0895148
0.0782959
0.0863031
0.0794531
0.0861408
0.075669
0.0894916
0.0827782
0.0787687
0.075749
0.0799709
0.0894518
0.0762988
0.078281
0.0750361
0.0764944
0.0841172
0.0767008
0.0892084
0.0885249
0.0736858
0.0807644
0.0843617
0.0770145
0.0870668
0.0899627
0.0884162
0.0871959
0.0893819
0.0872874
0.086564
0.085697
0.08108
0.083889
0.0731048
0.0852507
0.08988
0.0829347
0.0892882
0.0763113
0.074308
0.0894535
0.0868036
0.0847605
0.0857651
0.0858775
0.0806672
0.0813486
0.088414
0.0740718
0.0816288
0.0884621
0.0900629
0.0858707
0.0861522
0.0842042
0.0862116
0.0846876
0.085569
0.0886133
0.0727956
0.0857199
0.0820992
0.0871094
0.0873525
0.085421
0.0889364
0.0773255
0.0813083
0.0892276
0.0885098
0.088169
0.0831502
0.0741309
0.0871795
0.0747792
0.084414
0.0893054
0.0800921
0.0760857
0.0859336
0.0859015
0.0899089
0.0761258
0.0751849
0.0844525
0.0850303
0.0746392
0.0876458
0.0794273
0.0737243
0.0855554
0.0842787
0.0846395
0.0801667
0.0802719
0.0852421
0.0849215
0.0836664
0.0748903
0.0859938
0.0832172
0.0771854
0.0804143
0.0893149
0.0888117
0.0817051
0.0770504
0.0883035
0.0873065
0.082474
0.0897766
0.0891596
0.0867782
0.0894264
0.0850865
0.0837947
0.0743907
0.0798451
0.0874315
0.084292
0.0860007
0.0803089
0.0837718
0.0880243
0.0895838
0.0864387
0.0751012
0.0817919
0.0782266
0.0886525
0.0825175
0.0894004
0.0894601
0.0810398
0.0760285
0.079345
0.0759639
0.0745777
0.0884128
0.0770094
0.0892355
0.0844526
0.0803947
0.0782345
0.0896555
0.0812465
0.0803185
0.0870578
0.0841654
0.0800306
0.0856802
0.075772
0.0860913
0.0852814
0.0765597
0.0819562
0.0850025
0.0711544
0.0742068
0.0886596
0.090095
0.0888245
0.0753469
0.0777417
0.0883816
0.0781999
0.0783697
0.0894075
0.0894361
0.0845212
0.0890188
0.0898034
0.0764577
0.0908681
0.0736547
0.0752814
0.0888419
0.0876958
0.0885569
0.0891087
0.0853476
0.0772486
0.0840854
0.0851384
0.0894011
0.0898031
0.0902215
0.0852899
0.0828765
0.0872633
0.0885938
0.0845064
0.082939
0.0825111
0.0853006
0.0813536
0.0877086
0.0834565
0.0766571
0.0868003
0.0911181
0.081246
0.0891921
0.0876532
0.0855542
0.0760213
0.0854214
0.0854309
0.0753076
0.0894508
0.0762982
0.0838786
0.0897887
0.0736829
0.0863118
0.0854978
0.0757138
0.0837005
0.0773742
0.0814493
0.0893563
0.0857484
0.0737799
0.085408
0.0768776
0.0854181
0.0888691
0.0891928
0.0900201
0.0768733
0.0869206
0.0753008
0.0847472
0.0738374
0.0888597
0.0886133
0.0897568
0.0891727
0.0794967
0.0876721
0.086386
0.087418
0.0855209
0.0776535
0.0831173
0.0843361
0.0862039
0.0856862
0.0842379
0.0860662
0.0818103
0.0762701
0.0840576
0.088019
0.0879761
0.0735043
0.0894467
0.0884243
0.0854718
0.0867048
0.0875799
0.0830352
0.0884791
0.0766689
0.085152
0.0886208
0.0742351
0.0844625
0.0876209
0.0775898
0.0738616
0.0757113
0.0823859
0.0760844
0.0866142
0.0863401
0.0814585
0.0894711
0.0765458
0.0884412
0.089465
0.0858443
0.0850158
0.0822004
0.0894107
0.0861854
0.084574
0.0892074
0.08655
0.0751152
0.0860162
0.0896606
0.0894827
0.0859454
0.0898585
0.0837877
0.0848514
0.0871572
0.0888659
0.089233
0.0760469
0.08597
0.0721141
0.082533
0.0848669
0.0761622
0.0752523
0.0815494
0.084748
0.0870517
0.0752937
0.0854934
0.080669
0.0854069
0.0860129
0.0713269
0.0850851
0.0743729
0.0843402
0.08896
0.0907784
0.087709
0.0822421
0.0746611
0.0854835
0.0858042
0.0888487
0.0750249
0.0758201
0.0852284
0.0760121
0.077096
0.0847353
0.0750509
0.0812983
0.0766835
0.0853115
0.0756299
0.0894889
0.0887096
0.0892585
0.0883996
0.0804866
0.0896896
0.0896425
0.0844656
0.0866473
0.0868566
0.0892241
0.0895895
0.0809479
0.0882309
0.0899126
0.0855239
0.0779129
0.0895501
0.0863694
0.0720976
0.0746832
0.086497
0.0898735
0.0892083
0.0838011
0.0889873
0.0895876
0.0887174
0.087024
0.0823585
0.0838928
0.0770117
0.0851532
0.085336
0.0895528
0.0794502
0.078894
0.0773849
0.0826779
0.085164
0.0719858
0.0856517
0.0803365
0.0843075
0.081793
0.087056
0.0831013
0.0765701
0.0872874
0.0881239
0.0775346
0.0856757
0.0906184
0.0868592
0.0850434
0.0764258
0.0782695
0.0859592
0.0865844
0.0766725
0.0753121
0.0868067
0.0804836
0.0856791
0.0798327
0.0824074
0.0894303
0.0856963
0.075136
0.0810141
0.0864243
0.0890978
0.0752255
0.0718787
0.0887357
0.0748637
0.0874893
0.0892131
0.0755333
0.0865049
0.0885683
0.0841453
0.0759082
0.089997
0.0840503
0.0760699
0.0897027
0.087362
0.0840507
0.0882994
0.0724057
0.0786744
0.0851296
0.0811547
0.0806413
0.0847069
0.0888189
0.0894314
0.0872511
0.088531
0.0886092
0.0842324
0.0800808
0.0876926
0.0889131
0.0919285
0.0793724
0.0867286
0.084038
0.0913451
0.0771087
0.0732159
0.0892963
0.0775808
0.0895821
0.0841989
0.0747355
0.0815482
0.0890311
0.0837716
0.0859058
0.0743989
0.0866557
0.0832411
0.0742452
0.0891727
0.0883994
0.0747421
0.0771098
0.0778639
0.0826506
0.0864296
0.0864811
0.0857216
0.0861329
0.088441
0.0865323
0.0858161
0.0773455
0.0891448
0.0756108
0.0863061
0.0829162
0.0825563
0.0912277
0.0858413
0.0785859
0.073683
0.0770778
0.0825641
0.0889961
0.0768065
0.0892556
0.0833128
0.0885372
0.0757845
0.0842981
0.0880574
0.0895837
0.088978
0.0878231
0.0873232
0.0838004
0.0901639
0.0897598
0.0896582
0.0801904
0.0872771
0.0756904
0.0899539
0.087888
0.0853621
0.0769707
0.0842709
0.0727793
0.0882655
0.083967
0.0895333
0.0857421
0.0838268
0.0759854
0.0891975
0.0741942
0.0727635
0.0785856
0.0794289
0.0755841
0.0860515
0.0751171
0.0862635
0.084518
0.0719004
0.0893929
0.076378
0.0786554
0.0843411
0.0798929
0.0862145
0.0885823
0.0894369
0.0890213
0.0800189
0.0854656
0.0811238
0.0820595
0.0724485
0.06487
0.0891618
0.0855945
0.0856172
0.0891243
0.0753795
0.0894829
0.0898359
0.0882117
0.0882688
0.0883083
0.0874077
0.0896159
0.0894644
0.0862735
0.089114
0.0868964
0.0768529
0.0891526
0.0813683
0.0884857
0.0838613
0.0858556
0.0791318
0.090006
0.0849259
0.0860286
0.0836091
0.0775054
0.0890665
0.0838261
0.0803872
0.0756386
0.0881083
0.0727749
0.0879818
0.0866922
0.0840822
0.0886864
0.0895992
0.0887211
0.0755318
0.0854801
0.083921
0.0868994
0.0766784
0.0873928
0.0856918
0.0834856
0.0861082
0.0820842
0.0848075
0.0819684
0.081854
0.0732049
0.0885001
0.0849142
0.0890092
0.079719
0.0859362
0.0870578
0.0853271
0.0801104
0.0863218
0.0885745
0.0855364
0.0729222
0.073905
0.0848447
0.0730476
0.0757902
0.0874441
0.0874824
0.0881287
0.0725696
0.085031
0.0889893
0.0754567
0.0729594
0.0853745
0.0771643
0.0863166
0.0786216
0.0895215
0.0803689
0.080117
0.088947
0.0734548
0.0848052
0.0848557
0.0885479
0.0893772
0.0890193
0.0775429
0.088093
0.0890903
0.0817774
0.0894336
0.0881474
0.0858976
0.0896396
0.0862067
0.0906857
0.0896157
0.0900287
0.0874286
0.0823666
0.0863132
0.0858028
0.0765406
0.0839363
0.0875209
0.088773
0.0896547
0.0848216
0.090612
0.0883775
0.0833101
0.0867517
0.0892975
0.0867335
0.0861832
0.0761249
0.0809145
0.0906652
0.0729731
0.0835843
0.0851408
0.0817064
0.0846168
0.0886077
0.0850077
0.0887016
0.0839138
0.0857701
0.0831689
0.088704
0.0864659
0.0818291
0.0765177
0.0890427
0.0771988
0.0841545
0.0819934
0.0841941
0.0834948
0.0903381
0.0766826
0.0903889
0.0772221
0.0868257
0.0824103
0.0856582
0.0855437
0.0888247
0.076233
0.088496
0.0890169
0.0884209
0.0871076
0.0855731
0.0732822
0.0899265
0.0892377
0.0875037
0.0883893
0.0892921
0.0858742
0.0845005
0.0869394
0.075655
0.0825254
0.0894667
0.0751657
0.0794332
0.0912085
0.0894911
0.0793466
0.0806738
0.0875217
0.0795916
0.0847682
0.0767639
0.0878905
0.0886211
0.0726482
0.0840357
0.0890388
0.0862709
0.0884411
0.0843363
0.0887332
0.07732
0.0769902
0.0903958
0.0894611
0.0851326
0.0761589
0.085287
0.0899664
0.0788735
0.0896144
0.0866362
0.0876481
0.084776
0.0879381
0.0869598
0.0864841
0.0848073
0.0796519
0.0737952
0.0839061
0.0868142
0.076142
0.0888453
0.073746
0.0843281
0.0814534
0.0762466
0.085164
0.0798491
0.0868108
0.0839265
0.0870973
0.0758969
0.0766216
0.0818457
0.0756518
0.0840098
0.0890166
0.0849733
0.0898212
0.0834379
0.0860343
0.0900322
0.0817823
0.0840217
0.0855631
0.08547
0.085081
0.0784782
0.0865679
0.0882458
0.0892057
0.090897
0.0765465
0.0740389
0.085262
0.0892195
0.077664
0.0845025
0.0854996
0.0858799
0.0908389
0.0814502
0.0846932
0.0861006
0.075271
0.0893825
0.0884879
0.0762524
0.0793412
0.0854946
0.081002
0.0897679
0.0897508
0.0849152
0.077325
0.0896274
0.0747356
0.0851868
0.0882033
0.0810225
0.0900964
0.0748181
0.0857407
0.0855148
0.0856526
0.0754421
0.0741665
0.0881159
0.0897749
0.0811474
0.088649
0.0876944
0.085402
0.0765526
0.0786696
0.087612
0.0827914
0.0859288
0.0897223
0.0890363
0.0904008
0.0888121
0.0840181
0.0844408
0.0883034
0.0768431
0.0876198
0.0878045
0.0869244
0.0874647
0.0901848
0.0828645
0.088694
0.0854767
0.073585
0.0899475
0.0809002
0.0898848
0.0812766
0.088854
0.0769658
0.08742
0.0910642
0.085332
0.0867909
0.076183
0.0887806
0.0901152
0.0867825
0.0747833
0.0928467
0.0829066
0.0869867
0.0884248
0.0888521
0.0883202
0.0852194
0.0828415
0.0904384
0.0769201
0.0783163
0.0773816
0.0787469
0.0875232
0.0746955
0.0898024
0.0892806
0.0891206
0.0848731
0.0822447
0.0866461
0.0900679
0.0864765
0.0848594
0.0898321
0.0887483
0.0836051
0.0887366
0.0857691
0.0854707
0.0865629
0.0813255
0.0893197
0.090634
0.0891137
0.0892481
0.0885726
0.080327
0.0913865
0.0845909
0.0854521
0.0852215
0.0875237
0.0909128
0.0865993
0.0883224
0.0800551
0.0857507
0.0851677
0.0780365
0.0765615
0.0856525
0.0828558
0.0897568
0.0811691
0.0732854
0.0846628
0.0888666
0.0799701
0.0811718
0.0863782
0.089839
0.0894906
0.0841537
0.0800515
0.0861443
0.0867346
0.0818032
0.0851428
0.0860665
0.0756075
0.0823968
0.0812916
0.0858498
0.0895203
0.0861466
0.0893426
0.0863413
0.0867717
0.0858279
0.0752488
0.0767366
0.0753677
0.0887926
0.0867494
0.0900146
0.092441
0.0868955
0.0749917
0.088064
0.0823742
0.0854872
0.0855253
0.0880163
0.0743272
0.0900473
0.0762237
0.0862193
0.0843347
0.0837288
0.0903595
0.0858233
0.0880259
0.076003
0.0859415
0.0847284
0.0870964
0.0787141
0.0790683
0.0876047
0.0881899
0.0845278
0.0872522
0.0901417
0.0757553
0.0827404
0.0818846
0.0792495
0.0873647
0.0896365
0.090108
0.0886513
0.0896837
0.0776434
0.0773049
0.0764719
0.0912266
0.0769222
0.0875376
0.0836986
0.0769202
0.0817227
0.0891483
0.0895365
0.0797445
0.0818314
0.0847148
0.0865428
0.0896934
0.0846107
0.0760773
0.0864036
0.0896282
0.0890364
0.0897072
0.089269
0.0920379
0.0895629
0.0865959
0.0782349
0.0760458
0.0864436
0.0787001
0.0897668
0.0771176
0.0873113
0.0819742
0.0886608
0.0782022
0.0859287
0.0890465
0.0877158
0.0818607
0.0770553
0.0893431
0.0820347
0.0893472
0.0839117
0.0925883
0.0898848
0.086862
0.0762745
0.0766206
0.0852102
0.0842752
0.0814245
0.0906793
0.0774782
0.0888171
0.086488
0.0818165
0.0877225
0.0895227
0.0891736
0.0895018
0.0909805
0.0874127
0.084304
0.075211
0.0797489
0.0887033
0.0778547
0.0851821
0.0852723
0.0777768
0.0858361
0.0869235
0.0853994
0.0879549
0.0893108
0.0778062
0.0854423
0.0866639
0.0764274
0.0805738
0.0847583
0.0821134
0.0863572
0.0772883
0.0765768
0.0857975
0.0811996
0.0894072
0.0901355
0.0883878
0.0847862
0.0848329
0.0860432
0.0836857
0.0894461
0.0775124
0.0860585
0.0819168
0.0892818
0.0864707
0.0829568
0.084462
0.0891727
0.0774537
0.0864459
0.0894182
0.0846429
0.0694752
0.0822354
0.0772809
0.0848823
0.0746556
0.0907734
0.0901522
0.0891785
0.0876794
0.0783612
0.0752466
0.0890586
0.0906537
0.0892255
0.0863105
0.0845155
0.0885657
0.0907417
0.0885254
0.0755956
0.0838062
0.0866754
0.0877575
0.0823746
0.0871783
0.0741856
0.089174
0.0888763
0.0843775
0.0869117
0.0858394
0.086426
0.0895839
0.0882147
0.0780806
0.085998
0.0880744
0.0853925
0.0841795
0.0858507
0.075236
0.0762991
0.0892876
0.0896355
0.088806
0.089237
0.087317
0.0877973
0.0842897
0.0866902
0.0874599
0.0894141
0.0814391
0.0828756
0.0836422
0.0866028
0.0894526
0.0742954
0.0840785
0.0736052
0.0891983
0.074225
0.0766422
0.0856952
0.0717291
0.0836563
0.0873152
0.0891015
0.0886729
0.0796126
0.0832429
0.0905979
0.0803225
0.078327
0.0834849
0.0793688
0.0891723
0.0875511
0.0841469
0.077287
0.0881637
0.0912449
0.0888014
0.0763808
0.0784689
0.0855417
0.0893769
0.0899694
0.07675
0.0761833
0.0867679
0.0844899
0.090126
0.0855451
0.0740822
0.0855973
0.0889357
0.0762675
0.0739356
0.089412
0.0780835
0.0777308
0.0900475
0.0888633
0.0877179
0.0913507
0.0851453
0.0827528
0.0896487
0.0805577
0.0882244
0.0803132
0.0859731
0.0874298
0.0849751
0.0761314
0.0882456
0.0884022
0.0815324
0.0857875
0.0823475
0.0787245
0.0810593
0.0842653
0.0865624
0.0899101
0.0809161
0.0885481
0.0753199
0.0880274
0.0897482
0.0759947
0.0885389
0.0867776
0.0707062
0.0759354
0.0869383
0.0857319
0.0886578
0.0808252
0.0769533
0.0886903
0.089805
0.0892743
0.0847758
0.0889911
0.0748326
0.0898603
0.0862055
0.0761698
0.0761329
0.071053
0.0753269
0.0891607
0.0818204
0.0876683
0.0865116
0.0778238
0.0783933
0.0731552
0.0730478
0.0914606
0.090535
0.0781729
0.0894654
0.0866289
0.0777137
0.0847858
0.0838409
0.0785529
0.081633
0.0887979
0.0790143
0.0749223
0.0886588
0.0912759
0.0798614
0.0891036
0.0841508
0.0787374
0.0768361
0.0838768
0.0764158
0.0764272
0.0870236
0.0876284
0.0825567
0.0884815
0.0887336
0.0854197
0.0900556
0.0672919
0.083709
0.0752422
0.0864026
0.0893368
0.0854524
0.0806241
0.0858493
0.0762943
0.0879217
0.0855119
0.0801341
0.0772402
0.0730238
0.0727635
0.0807639
0.0752984
0.0830286
0.0757571
0.0823512
0.0878037
0.085865
0.0827191
0.0872765
0.0859681
0.0861186
0.088096
0.0748367
0.0829057
0.0895143
0.089349
0.0850467
0.0907479
0.0779754
0.0884844
0.0854549
0.0753381
0.0863757
0.0898168
0.0854698
0.0884793
0.0894461
0.085341
0.0722747
0.0723599
0.0850726
0.0900198
0.0849821
0.0883232
0.0812507
0.0821043
0.0775836
0.074485
0.0738775
0.0750501
0.0865849
0.0873349
0.0899962
0.0834453
0.081962
0.0898081
0.0749806
0.0865185
0.0890731
0.0897732
0.083584
0.0839139
0.0891693
0.0912595
0.0890517
0.0767477
0.0835605
0.0884867
0.0855818
0.0867809
0.0915582
0.0881258
0.0900746
0.0867928
0.0794742
0.0861146
0.0892332
0.0871705
0.0867503
0.0753604
0.0888151
0.0890272
0.0900836
0.088781
0.0747394
0.0729332
0.0852369
0.086564
0.0839719
0.0868294
0.0883659
0.0882019
0.0882509
0.0806531
0.0857948
0.0861067
0.0885675
0.0767877
0.0765592
0.083223
0.0880469
0.0768746
0.0898076
0.0762964
0.0813098
0.0865351
0.089078
0.0818439
0.0888167
0.0882765
0.0884762
0.0850952
0.0869926
0.0869571
0.0814672
0.072848
0.0895457
0.0730561
0.0755023
0.0762922
0.0741527
0.0745654
0.0812972
0.0868772
0.0757144
0.0809615
0.0707112
0.0779718
0.0850019
0.0895953
0.0734961
0.0766768
0.0885202
0.0739523
0.0816105
0.0878628
0.0849136
0.0863585
0.0774387
0.0757323
0.0808852
0.089193
0.0797272
0.0768675
0.0840585
0.081153
0.0871408
0.0854704
0.0774083
0.0894421
0.0747431
0.076402
0.0832395
0.0889458
0.0808853
0.0828738
0.0836995
0.08649
0.0732933
0.0786081
0.0849766
0.0897161
0.0874479
0.0754929
0.0729626
0.0828558
0.0896025
0.0855389
0.0858073
0.0814912
0.0835944
0.0857665
0.0753584
0.0896378
0.0799528
0.0756627
0.0733766
0.0889185
0.0854265
0.0896871
0.0840235
0.0889663
0.074746
0.0835053
0.0732918
0.0733082
0.0879677
0.0774414
0.0827629
0.0866241
0.0872402
0.0763276
0.0896832
0.0887041
0.0896746
0.0853672
0.0708512
0.0868327
0.0724959
0.0900981
0.0766099
0.0895945
0.0720824
0.087397
0.0870263
0.0813749
0.0820924
0.0717368
0.0796539
0.0859909
0.0884276
0.0855448
0.089546
0.0897872
0.0753809
0.0896399
0.0799785
0.0874698
0.0872392
0.0891825
0.0870292
0.0861329
0.0893881
0.0819729
0.0785803
0.0784652
0.0872014
0.0903963
0.0774173
0.0791791
0.0882715
0.0858011
0.0862234
0.0920775
0.0880355
0.0849739
0.087757
0.0880725
0.0894601
0.0844727
0.0836968
0.0892465
0.0874544
0.0776358
0.0850089
0.0798629
0.0903425
0.0869175
0.0887392
0.0767042
0.0767315
0.0862953
0.0886793
0.0887757
0.0894605
0.0901462
0.0840786
0.0851746
0.0769106
0.083957
0.0869235
0.088644
0.0900131
0.0898792
0.0827126
0.0894422
0.0780512
0.0886281
0.0800475
0.0853362
0.0809119
0.0865248
0.0836319
0.0890463
0.0762997
0.0896254
0.0894601
0.0826905
0.0764674
0.0919011
0.085433
0.0889187
0.0862295
0.0868087
0.0864721
0.0750027
0.0895068
0.083043
0.0871405
0.078016
0.0786962
0.0794289
0.0747319
0.0796286
0.089648
0.0861892
0.0738086
0.0867892
0.0754007
0.0841394
0.0870061
0.0723974
0.0749676
0.0798424
0.0833576
0.0869181
0.0806596
0.088127
0.0824053
0.0775864
0.0798863
0.0891114
0.0893223
0.0896123
0.088253
0.087238
0.0760266
0.0748501
0.0890138
0.0815659
0.0840731
0.0892097
0.0913659
0.0864322
0.0867933
0.0736026
0.0884322
0.0899554
0.0811642
0.0889093
0.0887089
0.0871421
0.0841221
0.0866334
0.0813106
0.0743883
0.0864931
0.0764881
0.0751566
0.0836047
0.086382
0.088191
0.08855
0.086975
0.0879865
0.0731588
0.0808955
0.0906101
0.0902748
0.0755921
0.0839999
0.0771196
0.0836267
0.0892969
0.0818155
0.0852378
0.0897457
0.0846632
0.0742987
0.0889861
0.0748968
0.0884638
0.0876691
0.0874384
0.0892749
0.0873856
0.0889751
0.0757096
0.0893072
0.0894939
0.0778232
0.0879925
0.0856562
0.0826297
0.0891782
0.0832822
0.0883878
0.0900191
0.0893078
0.0867818
0.0895515
0.0862161
0.0855871
0.0788693
0.0831406
0.0758845
0.0734648
0.0837388
0.0878776
0.0858695
0.0898355
0.0849648
0.0892948
0.0736671
0.0898844
0.090255
0.0881878
0.0883956
0.0778045
0.0742457
0.0859574
0.0744933
0.0881178
0.0866625
0.0730098
0.0816879
0.0892941
0.0882212
0.0727754
0.0788604
0.0730432
0.0900498
0.0753389
0.0885213
0.0821684
0.0763434
0.0883387
0.0890327
0.0902999
0.0881578
0.0756274
0.0850524
0.0904482
0.0775083
0.0891201
0.0873479
0.088779
0.0745007
0.0876076
0.0819388
0.0864116
0.0821702
0.0849866
0.0808507
0.0817748
0.0827595
0.0814166
0.0877356
0.0854363
0.0895268
0.0792421
0.0855785
0.0871428
0.0887536
0.0889985
0.0766156
0.0879267
0.0759331
0.0842593
0.0900336
0.0902305
0.0840813
0.0832439
0.0878154
0.0807354
0.0849121
0.0832628
0.0761596
0.0751319
0.0874151
0.0897073
0.083944
0.0815639
0.0897966
0.0757223
0.0876062
0.0763138
0.0850394
0.0898489
0.0866246
0.0747398
0.089622
0.0757124
0.0878838
0.0878064
0.0747291
0.089437
0.0776731
0.0805324
0.0826767
0.0734494
0.079123
0.0835623
0.07209
0.0883122
0.0906944
0.073156
0.0797102
0.0886273
0.0864126
0.0871523
0.0908356
0.0887837
0.0854283
0.0785162
0.0750619
0.0722971
0.0755065
0.0897011
0.0882213
0.085012
0.086749
0.0752456
0.0756807
0.0849952
0.0882836
0.0717075
0.0865604
0.086067
0.0833156
0.0878907
0.0836802
0.0892936
0.0790592
0.0824386
0.090987
0.0712251
0.0856763
0.0893852
0.0895233
0.085006
0.0889263
0.0874004
0.0748412
0.0905127
0.0907176
0.0855399
0.0870137
0.0836643
0.0857074
0.0880825
0.086728
0.0868371
0.0861332
0.0842638
0.0745917
0.0819636
0.0902605
0.0879171
0.0902256
0.0873356
0.0845816
0.0901535
0.0771324
0.0892076
0.0754447
0.0898936
0.0858483
0.080999
0.0901539
0.0807267
0.0825086
0.0901708
0.0815826
0.0904891
0.0891849
0.0876292
0.076671
0.0866105
0.0855856
0.079817
0.0891517
0.0845557
0.0853181
0.0907575
0.0756606
0.0886551
0.0867265
0.0889277
0.081569
0.0865636
0.0760517
0.0783169
0.0923074
0.0759659
0.0867328
0.089276
0.0764048
0.0829305
0.0897012
0.0794089
0.0777396
0.0785607
0.0818014
0.0809852
0.0903975
0.0818799
0.089841
0.0870502
0.0897008
0.0748253
0.0800094
0.089176
0.0858403
0.0760162
0.0778436
0.0826203
0.073584
0.0748191
0.0857225
0.0849289
0.0892189
0.0842147
0.0892245
0.0889574
0.0880406
0.0884913
0.0868536
0.0796237
0.0829853
0.0879988
0.0850667
0.0834487
0.089404
0.0855548
0.0744056
0.0744795
0.0821833
0.0756891
0.0858192
0.0891061
0.0825714
0.0871681
0.0889088
0.088645
0.0904422
0.0831785
0.0769254
0.0834853
0.0820904
0.0894382
0.082673
0.0874595
0.0894575
0.0816218
0.0815415
0.0874573
0.0895727
0.0882288
0.0924121
0.0880772
0.0833316
0.0844349
0.0786627
0.0824086
0.0895019
0.0786872
0.0891061
0.0838295
0.0888875
0.0765321
0.0883634
0.0864828
0.0894197
0.0857906
0.084647
0.0861189
0.0886621
0.0745793
0.0780639
0.0855879
0.0808331
0.0833723
0.0868494
0.0864324
0.0898827
0.0856131
0.0751892
0.0798057
0.0758171
0.0839233
0.0865148
0.0773747
0.0911679
0.0858907
0.0819879
0.0863626
0.0780196
0.0773058
0.0899648
0.0767712
0.0734171
0.0779248
0.07872
0.0770482
0.0785671
0.0896063
0.0886734
0.0806798
0.0877618
0.0889565
0.0860057
0.0871519
0.0739257
0.0895513
0.0634933
0.0888813
0.075954
0.0745066
0.0885052
0.074285
0.0826493
0.08543
0.0893813
0.0810621
0.0860373
0.080798
0.0855255
0.0838606
0.0850308
0.083221
0.0875863
0.0853585
0.0764557
0.0880713
0.0845436
0.083249
0.0797974
0.0774346
0.0815061
0.0746876
0.0746207
0.0863469
0.082169
0.0772499
0.0812397
0.0886312
0.0890091
0.0882801
0.0654858
0.0756386
0.0900303
0.0760045
0.0878904
0.0742363
0.0893884
0.0881893
0.0901727
0.0758334
0.0835196
0.090018
0.0897547
0.0851519
0.0901014
0.0854399
0.0851228
0.0852849
0.0750541
0.0850896
0.0805648
0.0864374
0.086239
0.0799492
0.0846482
0.088894
0.0791791
0.0778711
0.0758176
0.0872818
0.0875404
0.0743339
0.0862753
0.0858935
0.086088
0.0768155
0.0869811
0.0821459
0.0894356
0.0735196
0.0828481
0.0856615
0.0736253
0.088971
0.0772932
0.0779521
0.0851976
0.089806
0.0726527
0.0880265
0.0878789
0.0825804
0.0739622
0.0896346
0.0891957
0.0732462
0.0858824
0.0724692
0.0778768
0.0893054
0.0824158
0.0863851
0.0892767
0.0897225
0.0835845
0.0802265
0.0853932
0.0832416
0.0832702
0.0806467
0.0878495
0.0751493
0.0840945
0.0828743
0.0826336
0.0879436
0.0845757
0.0874819
0.0866838
0.0858254
0.0893963
0.0857429
0.0822301
0.0797566
0.0872467
0.083559
0.083127
0.0871067
0.0891925
0.0856003
0.0893151
0.0833182
0.0879553
0.0796138
0.0764224
0.085658
0.0874888
0.0771753
0.0856618
0.085197
0.0718608
0.0739994
0.0888911
0.0737253
0.0849987
0.0888264
0.0852777
0.076257
0.0860384
0.0901755
0.0756883
0.0767614
0.0772629
0.0887411
0.0861101
0.086228
0.0908527
0.0749043
0.0877732
0.0857509
0.0895679
0.0903628
0.0644944
0.0856704
0.0872568
0.0885381
0.0849592
0.0840791
0.0760625
0.0879046
0.0893302
0.0787562
0.0742435
0.081582
0.0883207
0.086844
0.0754977
0.0826441
0.0879159
0.0890935
0.0849538
0.0827536
0.0734589
0.0757825
0.0756826
0.0866838
0.0845484
0.0837945
0.0892838
0.0890942
0.0747793
0.0886748
0.0888166
0.0875956
0.0804998
0.0887913
0.0831541
0.0760832
0.0794226
0.0850958
0.0853575
0.0815205
0.0849153
0.0828574
0.0883104
0.0766494
0.075229
0.0846463
0.0891906
0.0878661
0.082071
0.0821655
0.0887266
0.0899157
0.0840226
0.0803381
0.0881446
0.0889679
0.0862047
0.0894496
0.0888161
0.0865275
0.0743568
0.0809667
0.0750626
0.0862451
0.089137
0.0811441
0.0755235
0.0900668
0.0766227
0.0814894
0.0784022
0.0831813
0.0749209
0.0871912
0.0859383
0.0851563
0.0837367
0.0779829
0.0898427
0.0770123
0.0859605
0.0835616
0.0853287
0.0759906
0.0884078
0.0874391
0.0747433
0.0790105
0.0832755
0.0822309
0.0857652
0.070879
0.0876283
0.0812358
0.0858093
0.0797349
0.0806929
0.0806211
0.0720065
0.0887387
0.0817321
0.05338
0.0753423
0.0840046
0.0890314
0.0875755
0.0777177
0.0752616
0.0874177
0.0748918
0.0882847
0.0893517
0.0844736
0.0776301
0.0881819
0.0743291
0.0751626
0.0739174
0.0875445
0.0854296
0.0810936
0.0889582
0.0854545
0.0866502
0.0775474
0.0712712
0.089415
0.0858485
0.0899839
0.0887997
0.0759749
0.0857019
0.0842853
0.0831062
0.0858409
0.0803243
0.0816611
0.0928134
0.0869817
0.0810567
0.0762018
0.0855256
0.0854749
0.0864137
0.0817557
0.0745913
0.076778
0.0848561
0.086173
0.0830095
0.0889186
0.0798923
0.0870666
0.0816648
0.0847714
0.071296
0.0896022
0.0855717
0.0840297
0.0902834
0.0854478
0.0783349
0.0807237
0.0716259
0.0880598
0.081864
0.0859942
0.0849289
0.0877996
0.0858234
0.0895061
0.0838085
0.0547502
0.0763981
0.0891463
0.059822
0.0825136
0.0893323
0.0874302
0.0891661
0.0816529
0.0775737
0.0782996
0.0903642
0.0713963
0.0897592
0.07606
0.0722206
0.0882509
0.0771588
0.0888816
0.0547528
0.0735421
0.0857936
0.0891344
0.0895241
0.0844845
0.0884603
0.0867969
0.0867729
0.0876785
0.0870071
0.0846602
0.0850026
0.0710494
0.0885142
0.0850631
0.0838351
0.089744
0.0887772
0.088626
0.0777172
0.0893164
0.0873094
0.0800229
0.0777694
0.0742006
0.0879721
0.0879532
0.0885622
0.0893416
0.088008
0.0863628
0.0735798
0.0864613
0.0823374
0.0821803
0.0862051
0.0753413
0.0736161
0.0835475
0.0915388
0.0867596
0.0861043
0.076468
0.083405
0.0817875
0.0762292
0.0892303
0.0853346
0.0631921
0.06922
0.0744027
0.0766858
0.0889129
0.0874821
0.0876262
0.0793063
0.0749473
0.0882242
0.0893402
0.0726837
0.0897701
0.0780357
0.0897506
0.0847554
0.0883059
0.0886965
0.0859544
0.0873931
0.0858446
0.0813988
0.0767975
0.0799532
0.0876939
0.0830091
0.0770677
0.0852617
0.0869573
0.0748094
0.0826585
0.0775298
0.089013
0.0844377
0.0858377
0.0671014
0.0893879
0.0892804
0.0824755
0.0875416
0.0835359
0.0851896
0.0894099
0.0838593
0.0865478
0.0899901
0.0861019
0.0762937
0.0756449
0.0908173
0.0824154
0.0758574
0.0784055
0.0883662
0.0898149
0.0882578
0.089398
0.0903947
0.0889554
0.0870236
0.0852241
0.0822303
0.0879382
0.0759622
0.0834496
0.0875768
0.0811401
0.0793739
0.077313
0.0867922
0.089856
0.0758241
0.0851319
0.0877018
0.0766549
0.0892073
0.0716152
0.0753265
0.0770063
0.0911543
0.0768539
0.0748741
0.0776504
0.0806175
0.086642
0.073941
0.0758355
0.0828104
0.083203
0.0720818
0.085341
0.0766716
0.0781589
0.0874156
0.0784917
0.0748686
0.0883731
0.0846148
0.0806161
0.0755964
0.0851417
0.080611
0.0729291
0.0894669
0.0863506
0.0882635
0.0834047
0.0767413
0.0751972
0.0854815
0.0824083
0.0895096
0.0832923
0.0887588
0.078731
0.0853652
0.0872312
0.0889088
0.0708722
0.0754846
0.0788137
0.088678
0.0772038
0.085477
0.0646789
0.0787699
0.0869222
0.0812749
0.0868615
0.0772053
0.0853225
0.0854455
0.0867931
0.076432
0.0863317
0.0914565
0.0798236
0.0865684
0.0828118
0.0874827
0.077468
0.0757298
0.0868134
0.0754635
0.070443
0.0719618
0.0796926
0.0795525
0.0713151
0.0888073
0.082826
0.0733655
0.0853544
0.0889423
0.0869179
0.0736123
0.0900367
0.088007
0.0751645
0.0828551
0.0846841
0.0791175
0.0853372
0.0854683
0.0867795
0.0745773
0.0732604
0.0855501
0.0764529
0.0735867
0.0719481
0.0755988
0.0859277
0.0770408
0.0879972
0.0846432
0.0875043
0.0784868
0.0892875
0.0823753
0.0839524
0.0781866
0.0542663
0.0899863
0.0749731
0.083941
0.0876658
0.0891409
0.0705683
0.088069
0.0898344
0.075798
0.0836731
0.0823481
0.0776358
0.0724996
0.0847018
0.0802285
0.0852091
0.0895303
0.0855226
0.0893908
0.082702
0.0829767
0.0785469
0.0721731
0.075235
0.0876403
0.0733008
0.0862667
0.0802474
0.0724653
0.0797621
0.0886051
0.0729204
0.0598427
0.0799039
0.0872159
0.089012
0.0867155
0.0553964
0.078511
0.0894073
0.0872751
0.0898065
0.085472
0.0732078
0.0892499
0.0732531
0.0880975
0.0796613
0.081722
0.083738
0.088829
0.0755757
0.0821017
0.0721191
0.0831331
0.0884069
0.0884918
0.086799
0.0761456
0.0749511
0.0845248
0.0756166
0.0837133
0.0730622
0.0792518
0.0866553
0.0891319
0.0766626
0.0888056
0.0783855
0.0909178
0.0758943
0.0893134
0.0862375
0.0867494
0.0828646
0.078441
0.0791482
0.091779
0.0824779
0.0853446
0.0864143
0.0777474
0.0855008
0.089315
0.0784526
0.0812705
0.0796501
0.0774288
0.0833894
0.0878868
0.0690656
0.0895163
0.0715451
0.0848369
0.0875513
0.0734295
0.0845771
0.086726
0.0794448
0.082965
0.0823154
0.0823041
0.0727165
0.0866681
0.0732719
0.0845807
0.0612957
0.0872746
0.0743662
0.0779385
0.0841002
0.0751573
0.0795829
0.0897407
0.0863035
0.0843612
0.0889387
0.0743349
0.0874431
0.0762151
0.0856583
0.0821453
0.085155
0.0867411
0.0862726
0.0730876
0.0732568
0.0891055
0.0867257
0.0872738
0.0715353
0.0896226
0.0915472
0.0877892
0.0876212
0.0820173
0.0757754
0.0855602
0.0774273
0.080163
0.0878387
0.0848004
0.0802313
0.0858842
0.0849576
0.0856569
0.0766465
0.0768052
0.0755858
0.071085
0.0899739
0.0861777
0.0798677
0.0883542
0.086728
0.0776709
0.0896815
0.0725561
0.077151
0.0741734
0.0766738
0.0895949
0.0875383
0.0675479
0.0890962
0.0722134
0.0858377
0.0855673
0.0864197
0.0892759
0.0855804
0.0871694
0.0806205
0.0841839
0.0836966
0.0883493
0.0727996
0.0768133
0.0842234
0.072526
0.0793516
0.0712252
0.0796846
0.088372
0.0812083
0.0663398
0.0675481
0.0736712
0.0783813
0.0810562
0.081513
0.0848534
0.0864501
0.0694321
0.0825951
0.0796268
0.081259
0.0734181
0.0831968
0.0722681
0.0658814
0.0783992
0.0774992
0.0783152
0.0772352
0.0806042
0.0820596
0.0765917
0.089403
0.0736728
0.0864638
0.0811724
0.0846452
0.0818851
0.0749615
0.0842258
0.0857703
0.0727347
0.0815405
0.0845596