/*--------------------------------*- C++ -*----------------------------------*\
| =========                 |                                                 |
| \\      /  F ield         | OpenFOAM: The Open Source CFD Toolbox           |
|  \\    /   O peration     | Version:  2212                                  |
|   \\  /    A nd           | Website:  www.openfoam.com                      |
|    \\/     M anipulation  |                                                 |
\*---------------------------------------------------------------------------*/
FoamFile
{
    version     2.0;
    format      ascii;
    arch        "LSB;label=32;scalar=64";
    class       volScalarField;
    location    "0.01";
    object      nut;
}
// * * * * * * * * * * * * * * * * * * * * * * * * * * * * * * * * * * * * * //

dimensions      [0 2 -1 0 0 0 0];

internalField   nonuniform List<scalar> 
31639
(
8.89927e-05
8.88857e-05
9.11784e-05
9.48779e-05
8.57749e-05
8.66762e-05
8.46257e-05
9.03588e-05
8.85799e-05
9.40624e-05
9.3864e-05
9.30563e-05
9.04568e-05
9.43442e-05
8.73717e-05
8.23214e-05
8.88548e-05
8.39921e-05
8.08741e-05
8.91447e-05
7.49111e-05
9.11434e-05
9.46172e-05
8.15767e-05
8.15743e-05
8.82476e-05
8.98573e-05
7.54333e-05
8.48115e-05
9.4008e-05
9.37775e-05
8.34373e-05
9.40326e-05
8.10908e-05
7.67181e-05
9.40637e-05
7.15563e-05
9.55081e-05
9.438e-05
7.01627e-05
7.78116e-05
7.54172e-05
9.38811e-05
9.19915e-05
9.38886e-05
9.41133e-05
8.67648e-05
8.38802e-05
8.85263e-05
9.46658e-05
9.3236e-05
7.01525e-05
9.49635e-05
7.36507e-05
8.26458e-05
8.85475e-05
7.42134e-05
8.96229e-05
8.90765e-05
7.37214e-05
8.6697e-05
9.01678e-05
8.02056e-05
8.80999e-05
8.81822e-05
9.4172e-05
8.67846e-05
8.97955e-05
7.85846e-05
9.4343e-05
9.53048e-05
8.28525e-05
9.23475e-05
8.91967e-05
9.51638e-05
7.6125e-05
9.43786e-05
8.48194e-05
8.81253e-05
9.18797e-05
8.06698e-05
7.01427e-05
9.50407e-05
9.09338e-05
9.11107e-05
9.40962e-05
9.46799e-05
9.46924e-05
7.4814e-05
9.61387e-05
9.06529e-05
8.48204e-05
7.44943e-05
8.82996e-05
7.85499e-05
8.65183e-05
8.59364e-05
8.96321e-05
9.01076e-05
7.52031e-05
9.57653e-05
9.40416e-05
8.79142e-05
7.28564e-05
7.44286e-05
9.41522e-05
7.29918e-05
7.14395e-05
7.97663e-05
7.41378e-05
9.09594e-05
7.58801e-05
8.79012e-05
8.25127e-05
8.98076e-05
7.32736e-05
8.48539e-05
8.47112e-05
9.45416e-05
8.84962e-05
8.98783e-05
9.29164e-05
9.16176e-05
8.80244e-05
8.70003e-05
9.43114e-05
8.88151e-05
7.9913e-05
7.95873e-05
9.30322e-05
9.34707e-05
9.14041e-05
9.22482e-05
8.34338e-05
8.9758e-05
9.00506e-05
7.40509e-05
7.34345e-05
9.2686e-05
8.94712e-05
8.87164e-05
9.34607e-05
9.42175e-05
7.16992e-05
7.17524e-05
9.46376e-05
9.27681e-05
7.49546e-05
7.53796e-05
9.4321e-05
7.86765e-05
8.88642e-05
8.07817e-05
8.98819e-05
7.49152e-05
9.46373e-05
8.51958e-05
7.9183e-05
7.52773e-05
8.13487e-05
9.4238e-05
7.5623e-05
7.85159e-05
7.40592e-05
7.59195e-05
8.61809e-05
7.62188e-05
9.39751e-05
9.27939e-05
7.25023e-05
8.14297e-05
8.64144e-05
7.68202e-05
9.03689e-05
9.5255e-05
9.31728e-05
9.0538e-05
9.42397e-05
9.07604e-05
8.96879e-05
8.83263e-05
8.28727e-05
8.57989e-05
7.12285e-05
8.86475e-05
9.49967e-05
8.49264e-05
9.41892e-05
7.58076e-05
7.29969e-05
9.47229e-05
9.07484e-05
8.79334e-05
8.84459e-05
8.86868e-05
8.22868e-05
8.32061e-05
9.25897e-05
7.28946e-05
8.36184e-05
9.30531e-05
9.51631e-05
8.94193e-05
8.95922e-05
8.71249e-05
8.91719e-05
8.69252e-05
8.82068e-05
9.28995e-05
7.09199e-05
8.83714e-05
8.42183e-05
9.04716e-05
9.15003e-05
8.89758e-05
9.35611e-05
7.71943e-05
8.29331e-05
9.33943e-05
9.30838e-05
9.21686e-05
8.54183e-05
7.27779e-05
8.98107e-05
7.35348e-05
8.70729e-05
9.38394e-05
8.13626e-05
7.54036e-05
8.95891e-05
8.93643e-05
9.52115e-05
7.56032e-05
7.42487e-05
8.77306e-05
8.84352e-05
7.39304e-05
9.19123e-05
7.99925e-05
7.22872e-05
8.81708e-05
8.72794e-05
8.72277e-05
8.14574e-05
8.10825e-05
8.85444e-05
8.71792e-05
8.56247e-05
7.39683e-05
8.88377e-05
8.48215e-05
7.68659e-05
8.18389e-05
9.41636e-05
9.36365e-05
8.36216e-05
7.6698e-05
9.24908e-05
9.09698e-05
8.47085e-05
9.49314e-05
9.37604e-05
9.07647e-05
9.41826e-05
8.74707e-05
8.65299e-05
7.32053e-05
8.11436e-05
9.16342e-05
8.63689e-05
8.9654e-05
8.18313e-05
8.64823e-05
9.26596e-05
9.45113e-05
8.93533e-05
7.40903e-05
8.38265e-05
7.8467e-05
9.3065e-05
8.47078e-05
9.40531e-05
9.46763e-05
8.27515e-05
7.53855e-05
7.98122e-05
7.54448e-05
7.33755e-05
9.27307e-05
7.66846e-05
9.39995e-05
8.66362e-05
8.17639e-05
7.83826e-05
9.48814e-05
8.28148e-05
8.11491e-05
9.1181e-05
8.69308e-05
8.05642e-05
8.83045e-05
7.50839e-05
8.89581e-05
8.77187e-05
7.61257e-05
8.40154e-05
8.74347e-05
6.89552e-05
7.28517e-05
9.2935e-05
9.52262e-05
9.3289e-05
7.43855e-05
7.76444e-05
9.2542e-05
7.82646e-05
7.9268e-05
9.43335e-05
9.42358e-05
8.65663e-05
9.36987e-05
9.49331e-05
7.59214e-05
9.66702e-05
7.19762e-05
7.42467e-05
9.3306e-05
9.16956e-05
9.29761e-05
9.39253e-05
8.87868e-05
7.71026e-05
8.64094e-05
8.75289e-05
9.40322e-05
9.46964e-05
9.54959e-05
8.773e-05
8.45955e-05
9.07914e-05
9.28275e-05
8.76949e-05
8.44337e-05
8.50872e-05
8.76931e-05
8.31573e-05
9.21243e-05
8.53975e-05
7.62226e-05
9.07739e-05
9.68172e-05
8.30967e-05
9.41509e-05
9.19366e-05
8.8228e-05
7.56112e-05
8.79112e-05
8.80763e-05
7.43034e-05
9.42092e-05
7.58019e-05
8.66745e-05
9.47239e-05
7.20934e-05
8.92044e-05
8.80447e-05
7.48886e-05
8.65131e-05
7.72755e-05
8.35158e-05
9.44667e-05
8.93841e-05
7.23894e-05
8.87836e-05
7.63803e-05
8.8849e-05
9.34535e-05
9.39935e-05
9.44243e-05
7.64074e-05
9.05333e-05
7.42524e-05
8.69141e-05
7.23675e-05
9.36725e-05
9.29379e-05
9.47204e-05
9.37413e-05
8.05853e-05
9.18336e-05
8.93461e-05
9.07944e-05
8.80558e-05
7.76007e-05
8.56762e-05
8.73394e-05
8.94517e-05
8.91035e-05
8.72827e-05
8.9817e-05
8.38731e-05
7.56008e-05
8.67363e-05
9.25858e-05
9.19225e-05
7.19198e-05
9.41426e-05
9.26575e-05
8.79793e-05
9.02458e-05
9.13076e-05
8.55502e-05
9.3077e-05
7.61248e-05
8.8442e-05
9.31429e-05
7.27264e-05
8.75657e-05
9.11707e-05
7.75165e-05
7.27153e-05
7.48694e-05
8.44906e-05
7.53125e-05
8.95784e-05
8.9345e-05
8.32278e-05
9.43947e-05
7.59485e-05
9.26835e-05
9.43487e-05
8.85789e-05
8.83244e-05
8.42888e-05
9.40515e-05
8.89949e-05
8.74814e-05
9.42131e-05
8.95206e-05
7.41394e-05
8.88481e-05
9.49403e-05
9.42317e-05
8.94574e-05
9.49719e-05
8.57071e-05
8.81523e-05
9.07175e-05
9.34625e-05
9.39503e-05
7.5445e-05
8.85667e-05
7.00603e-05
8.47593e-05
8.71924e-05
7.56494e-05
7.40587e-05
8.32458e-05
8.7944e-05
9.10208e-05
7.45304e-05
8.88e-05
8.2246e-05
8.7972e-05
8.9581e-05
7.02297e-05
8.74036e-05
7.30947e-05
8.63369e-05
9.34458e-05
9.66466e-05
9.1649e-05
8.44595e-05
7.34569e-05
8.90576e-05
8.86085e-05
9.33267e-05
7.39603e-05
7.50567e-05
8.7748e-05
7.52949e-05
7.66513e-05
8.80409e-05
7.41259e-05
8.30016e-05
7.62784e-05
8.87025e-05
7.48664e-05
9.44155e-05
9.30943e-05
9.39003e-05
9.2983e-05
8.1076e-05
9.45175e-05
9.45248e-05
8.76235e-05
9.04615e-05
9.00307e-05
9.373e-05
9.43879e-05
8.24845e-05
9.27223e-05
9.52457e-05
8.81887e-05
7.85294e-05
9.47799e-05
8.93698e-05
7.01171e-05
7.33886e-05
8.94376e-05
9.43526e-05
9.40595e-05
8.57482e-05
9.3638e-05
9.4776e-05
9.30532e-05
9.02705e-05
8.46157e-05
8.70194e-05
7.68564e-05
8.75182e-05
8.86401e-05
9.46108e-05
7.99452e-05
7.94306e-05
7.72698e-05
8.40941e-05
8.76391e-05
7.01314e-05
8.91973e-05
8.17107e-05
8.74188e-05
8.3791e-05
9.08229e-05
8.56153e-05
7.61404e-05
9.083e-05
9.26013e-05
7.74462e-05
8.92254e-05
9.62623e-05
9.0116e-05
8.73835e-05
7.70357e-05
7.84287e-05
8.87693e-05
8.97939e-05
7.6138e-05
7.46124e-05
9.00892e-05
8.20058e-05
8.92306e-05
8.05979e-05
8.45682e-05
9.41851e-05
8.84151e-05
7.4255e-05
8.20643e-05
8.93802e-05
9.3805e-05
7.41032e-05
6.9957e-05
9.31889e-05
7.37965e-05
9.10343e-05
9.43409e-05
7.44882e-05
8.96464e-05
9.33195e-05
8.69444e-05
7.50086e-05
9.49336e-05
8.66483e-05
7.5264e-05
9.44663e-05
9.08463e-05
8.6096e-05
9.30198e-05
7.05696e-05
7.95271e-05
8.73189e-05
8.28836e-05
8.13884e-05
8.74552e-05
9.33685e-05
9.45047e-05
9.14128e-05
9.33499e-05
9.30373e-05
8.7243e-05
8.14226e-05
9.15628e-05
9.37862e-05
9.81354e-05
8.0081e-05
8.99262e-05
8.6985e-05
9.72849e-05
7.67534e-05
7.16151e-05
9.41354e-05
7.81582e-05
9.46291e-05
8.62345e-05
7.38455e-05
8.35878e-05
9.3605e-05
8.62799e-05
8.94406e-05
7.3289e-05
9.06207e-05
8.58624e-05
7.29128e-05
9.39594e-05
9.25299e-05
7.47847e-05
7.68883e-05
7.76318e-05
8.50784e-05
8.94442e-05
8.95334e-05
8.83493e-05
8.91254e-05
9.26869e-05
8.96732e-05
8.85994e-05
7.71422e-05
9.40886e-05
7.46615e-05
8.92511e-05
8.51799e-05
8.47396e-05
9.69323e-05
8.86918e-05
7.88425e-05
7.23043e-05
7.66898e-05
8.47097e-05
9.3706e-05
7.64843e-05
9.41535e-05
8.56309e-05
9.27558e-05
7.4972e-05
8.63239e-05
9.20919e-05
9.47942e-05
9.35122e-05
9.19102e-05
9.07171e-05
8.63012e-05
9.53299e-05
9.48121e-05
9.44368e-05
8.10261e-05
9.14971e-05
7.50924e-05
9.49962e-05
9.23878e-05
8.79508e-05
7.65685e-05
8.62409e-05
7.1069e-05
9.26344e-05
8.67067e-05
9.45588e-05
8.85314e-05
8.55991e-05
7.55346e-05
9.40054e-05
7.30286e-05
7.05586e-05
7.87625e-05
7.98269e-05
7.51323e-05
8.88567e-05
7.42477e-05
8.98686e-05
8.76887e-05
6.96271e-05
9.43358e-05
7.56814e-05
7.95556e-05
8.64214e-05
8.13256e-05
8.98429e-05
9.3227e-05
9.44666e-05
9.39763e-05
8.13834e-05
8.81138e-05
8.28359e-05
8.41233e-05
7.05319e-05
6.19155e-05
9.38286e-05
8.81659e-05
8.91574e-05
9.3693e-05
7.46792e-05
9.42096e-05
9.52015e-05
9.23109e-05
9.25771e-05
9.2549e-05
9.09634e-05
9.45268e-05
9.44638e-05
8.91783e-05
9.36615e-05
9.0857e-05
7.65901e-05
9.38287e-05
8.30785e-05
9.29596e-05
8.58315e-05
8.85786e-05
8.0094e-05
9.53117e-05
8.68677e-05
8.89271e-05
8.62134e-05
7.72357e-05
9.37803e-05
8.67196e-05
8.19635e-05
7.47992e-05
9.20921e-05
7.11532e-05
9.22687e-05
9.05241e-05
8.62042e-05
9.32096e-05
9.4756e-05
9.33817e-05
7.47598e-05
8.79845e-05
8.62993e-05
8.94874e-05
7.62976e-05
9.12015e-05
8.93103e-05
8.52238e-05
8.89507e-05
8.33641e-05
8.80697e-05
8.40335e-05
8.39241e-05
7.14915e-05
9.28161e-05
8.80878e-05
9.39534e-05
8.04212e-05
8.87647e-05
9.04471e-05
8.78906e-05
8.14726e-05
8.93354e-05
9.28962e-05
8.79926e-05
7.12867e-05
7.23746e-05
8.71972e-05
7.13559e-05
7.57164e-05
9.08589e-05
9.08857e-05
9.23713e-05
7.08443e-05
8.74392e-05
9.386e-05
7.47101e-05
7.1302e-05
8.83404e-05
7.70122e-05
8.99765e-05
7.88122e-05
9.46345e-05
8.17061e-05
8.14457e-05
9.36443e-05
7.21326e-05
8.71448e-05
8.71316e-05
9.28751e-05
9.41056e-05
9.36801e-05
7.74376e-05
9.21991e-05
9.39125e-05
8.36969e-05
9.42953e-05
9.21593e-05
8.96564e-05
9.48613e-05
8.91538e-05
9.63377e-05
9.45064e-05
9.52987e-05
9.11182e-05
8.44303e-05
8.92368e-05
8.85337e-05
7.60726e-05
8.61119e-05
9.10701e-05
9.32748e-05
9.47757e-05
8.68717e-05
9.61327e-05
9.23985e-05
8.50357e-05
9.07105e-05
9.39564e-05
9.06749e-05
8.99391e-05
7.55281e-05
8.25979e-05
9.61995e-05
7.12218e-05
8.61112e-05
8.75507e-05
8.36637e-05
8.70962e-05
9.32685e-05
8.83471e-05
9.31674e-05
8.69654e-05
8.92251e-05
8.58302e-05
9.31432e-05
8.95887e-05
8.37982e-05
7.59057e-05
9.36985e-05
7.68781e-05
8.60665e-05
8.4185e-05
8.61053e-05
8.62303e-05
9.55986e-05
7.61111e-05
9.58291e-05
7.67303e-05
9.00094e-05
8.45042e-05
8.84188e-05
8.8218e-05
9.35188e-05
7.55344e-05
9.28233e-05
9.34622e-05
9.32059e-05
9.02556e-05
8.91885e-05
7.15571e-05
9.52058e-05
9.38662e-05
9.19748e-05
9.25977e-05
9.39956e-05
8.85811e-05
8.72534e-05
9.01003e-05
7.53122e-05
8.49024e-05
9.44594e-05
7.41267e-05
7.98176e-05
9.69217e-05
9.41556e-05
8.04279e-05
8.23168e-05
9.0397e-05
8.08006e-05
8.71316e-05
7.66693e-05
9.19969e-05
9.35486e-05
7.09378e-05
8.70581e-05
9.36916e-05
8.99079e-05
9.31272e-05
8.63831e-05
9.31308e-05
7.71241e-05
7.66253e-05
9.56818e-05
9.40844e-05
8.77375e-05
7.55895e-05
8.87548e-05
9.47732e-05
7.92046e-05
9.44488e-05
9.03657e-05
9.1793e-05
8.80168e-05
9.24302e-05
9.00852e-05
8.96801e-05
8.71771e-05
8.1008e-05
7.24454e-05
8.67605e-05
8.99232e-05
7.58106e-05
9.34595e-05
7.22529e-05
8.62869e-05
8.35339e-05
7.5667e-05
8.75356e-05
8.12695e-05
9.09815e-05
8.67933e-05
9.11051e-05
7.51183e-05
7.62087e-05
8.37856e-05
7.49116e-05
8.58896e-05
9.36148e-05
8.72105e-05
9.47491e-05
8.59572e-05
8.89055e-05
9.48637e-05
8.37073e-05
8.6768e-05
8.81759e-05
8.7977e-05
8.84541e-05
7.86581e-05
8.96186e-05
9.23948e-05
9.3974e-05
9.65757e-05
7.57229e-05
7.30773e-05
8.77745e-05
9.40233e-05
7.75837e-05
8.67697e-05
8.88064e-05
8.8608e-05
9.65041e-05
8.36198e-05
8.69997e-05
8.98002e-05
7.43686e-05
9.41885e-05
9.34069e-05
7.60074e-05
8.05058e-05
8.80062e-05
8.25552e-05
9.49803e-05
9.46765e-05
8.8117e-05
7.72022e-05
9.4412e-05
7.39872e-05
8.70673e-05
9.25326e-05
8.23242e-05
9.54733e-05
7.37513e-05
8.85047e-05
8.89166e-05
8.85616e-05
7.45125e-05
7.29503e-05
9.25591e-05
9.47175e-05
8.30531e-05
9.33714e-05
9.1314e-05
8.79577e-05
7.60291e-05
7.88159e-05
9.0832e-05
8.52294e-05
8.86444e-05
9.48672e-05
9.36576e-05
9.59615e-05
9.35464e-05
8.68064e-05
8.7603e-05
9.25753e-05
7.61564e-05
9.17248e-05
9.16932e-05
9.02138e-05
9.08419e-05
9.51252e-05
8.51067e-05
9.34066e-05
8.79885e-05
7.19917e-05
9.51977e-05
8.24328e-05
9.50291e-05
8.32311e-05
9.33317e-05
7.65729e-05
9.13023e-05
9.69591e-05
8.79619e-05
8.99064e-05
7.55029e-05
9.31687e-05
9.55963e-05
9.02056e-05
7.39574e-05
9.95297e-05
8.54947e-05
9.05092e-05
9.30976e-05
9.33004e-05
9.25337e-05
8.76285e-05
8.51821e-05
9.61208e-05
7.6444e-05
7.83052e-05
7.72599e-05
7.92028e-05
9.10595e-05
7.33959e-05
9.50383e-05
9.3958e-05
9.41439e-05
8.71789e-05
8.44957e-05
8.97792e-05
9.52271e-05
8.94809e-05
8.77437e-05
9.4862e-05
9.34625e-05
8.62485e-05
9.32046e-05
8.85094e-05
8.80339e-05
9.05555e-05
8.30928e-05
9.44451e-05
9.60404e-05
9.40178e-05
9.42385e-05
9.34654e-05
8.16396e-05
9.72541e-05
8.74607e-05
8.88693e-05
8.75185e-05
9.1072e-05
9.66117e-05
8.96561e-05
9.26278e-05
8.16261e-05
8.84923e-05
8.86182e-05
7.82231e-05
7.5978e-05
8.82982e-05
8.51398e-05
9.49478e-05
8.28734e-05
7.19398e-05
8.7923e-05
9.32333e-05
8.05967e-05
8.29467e-05
8.94095e-05
9.49902e-05
9.46876e-05
8.61549e-05
8.08033e-05
8.90435e-05
9.06211e-05
8.37188e-05
8.85407e-05
8.89181e-05
7.4706e-05
8.45014e-05
8.30434e-05
8.94925e-05
9.41845e-05
8.91384e-05
9.42835e-05
9.00359e-05
9.00982e-05
8.91638e-05
7.49783e-05
7.69428e-05
7.43029e-05
9.33598e-05
8.98901e-05
9.49438e-05
9.8672e-05
9.08588e-05
7.40165e-05
9.21782e-05
8.44913e-05
8.90367e-05
8.9091e-05
9.20123e-05
7.32702e-05
9.53263e-05
7.57441e-05
8.91939e-05
8.73729e-05
8.6268e-05
9.5595e-05
8.81175e-05
9.17517e-05
7.54972e-05
8.85386e-05
8.75277e-05
9.12781e-05
7.97561e-05
7.91022e-05
9.15303e-05
9.2671e-05
8.76391e-05
9.09317e-05
9.53245e-05
7.50301e-05
8.51585e-05
8.39107e-05
7.97678e-05
9.15644e-05
9.4686e-05
9.53402e-05
9.32122e-05
9.48377e-05
7.76105e-05
7.68711e-05
7.60646e-05
9.68553e-05
7.61922e-05
9.13602e-05
8.66435e-05
7.6599e-05
8.36139e-05
9.37491e-05
9.40637e-05
8.09359e-05
8.3637e-05
8.68955e-05
8.97389e-05
9.47416e-05
8.79739e-05
7.57775e-05
8.93282e-05
9.48367e-05
9.41174e-05
9.48442e-05
9.40814e-05
9.82787e-05
9.46909e-05
9.04233e-05
7.81977e-05
7.54132e-05
8.95489e-05
7.97134e-05
9.49067e-05
7.64377e-05
9.06339e-05
8.41786e-05
9.33427e-05
7.81294e-05
8.94212e-05
9.35839e-05
9.10742e-05
8.38193e-05
7.66385e-05
9.39676e-05
8.40034e-05
9.45041e-05
8.68255e-05
9.93362e-05
9.50623e-05
8.99982e-05
7.54238e-05
7.61555e-05
8.7732e-05
8.70962e-05
8.31022e-05
9.60653e-05
7.72906e-05
9.37152e-05
9.02379e-05
8.38061e-05
9.16448e-05
9.41532e-05
9.38271e-05
9.44043e-05
9.65475e-05
9.08193e-05
8.75314e-05
7.42871e-05
8.12136e-05
9.32766e-05
7.78327e-05
8.84503e-05
8.76708e-05
7.75079e-05
8.86853e-05
9.09707e-05
8.79387e-05
9.20317e-05
9.38819e-05
7.7643e-05
8.7875e-05
8.97437e-05
7.56901e-05
8.21507e-05
8.69323e-05
8.39754e-05
9.01026e-05
7.71865e-05
7.63794e-05
8.84387e-05
8.28844e-05
9.42018e-05
9.54399e-05
9.29479e-05
8.72072e-05
8.71468e-05
8.90919e-05
8.54282e-05
9.45233e-05
7.73226e-05
8.88989e-05
8.39792e-05
9.4143e-05
9.01513e-05
8.52411e-05
8.71539e-05
9.37666e-05
7.72785e-05
8.94492e-05
9.43295e-05
8.63308e-05
6.64803e-05
8.46524e-05
7.65598e-05
8.81221e-05
7.33813e-05
9.63765e-05
9.5372e-05
9.41642e-05
9.13015e-05
7.85479e-05
7.42359e-05
9.35356e-05
9.5791e-05
9.4256e-05
8.91783e-05
8.71619e-05
9.28915e-05
9.59881e-05
9.32172e-05
7.46745e-05
8.62476e-05
8.98076e-05
9.15491e-05
8.44323e-05
9.12646e-05
7.30218e-05
9.40991e-05
9.34017e-05
8.74592e-05
9.0125e-05
8.94364e-05
8.94428e-05
9.45538e-05
9.19319e-05
7.80269e-05
8.89187e-05
9.17679e-05
8.78805e-05
8.73642e-05
8.94263e-05
7.42045e-05
7.64191e-05
9.39449e-05
9.48388e-05
9.32713e-05
9.4194e-05
9.15649e-05
9.20893e-05
8.75236e-05
8.98207e-05
9.12252e-05
9.42199e-05
8.32337e-05
8.53212e-05
8.53616e-05
8.9705e-05
9.4178e-05
7.29901e-05
8.71129e-05
7.23204e-05
9.37783e-05
7.30053e-05
7.61571e-05
8.84595e-05
6.9846e-05
8.62043e-05
9.09773e-05
9.37076e-05
9.31517e-05
8.07547e-05
8.46859e-05
9.61544e-05
8.09105e-05
7.8019e-05
8.5689e-05
8.06225e-05
9.39992e-05
9.1083e-05
8.72626e-05
7.70197e-05
9.24335e-05
9.7015e-05
9.36092e-05
7.58377e-05
7.8743e-05
8.80972e-05
9.43361e-05
9.54955e-05
7.64643e-05
7.53233e-05
9.06833e-05
8.74322e-05
9.54225e-05
8.81941e-05
7.26828e-05
8.92313e-05
9.35085e-05
7.57494e-05
7.26668e-05
9.42674e-05
7.8161e-05
7.76533e-05
9.52637e-05
9.39259e-05
9.15565e-05
9.72717e-05
8.76453e-05
8.49056e-05
9.43607e-05
8.20506e-05
9.28633e-05
8.19519e-05
8.95765e-05
9.16382e-05
8.73116e-05
7.55981e-05
9.25201e-05
9.28375e-05
8.34545e-05
8.85016e-05
8.48528e-05
7.91425e-05
8.26909e-05
8.73211e-05
9.03838e-05
9.50583e-05
8.26755e-05
9.28626e-05
7.44798e-05
9.20105e-05
9.49033e-05
7.4955e-05
9.30105e-05
8.99266e-05
6.82867e-05
7.53413e-05
9.01916e-05
8.84004e-05
9.29291e-05
8.25837e-05
7.66765e-05
9.33761e-05
9.51064e-05
9.41663e-05
8.79361e-05
9.37865e-05
7.39042e-05
9.48095e-05
8.9068e-05
7.54809e-05
7.56061e-05
6.87213e-05
7.4809e-05
9.37924e-05
8.3812e-05
9.12902e-05
8.94873e-05
7.84824e-05
7.92061e-05
7.156e-05
7.14363e-05
9.74898e-05
9.60049e-05
7.81553e-05
9.4302e-05
9.04976e-05
7.75503e-05
8.71096e-05
8.66003e-05
7.87639e-05
8.33968e-05
9.35519e-05
7.89918e-05
7.36124e-05
9.33547e-05
9.69976e-05
8.11975e-05
9.39459e-05
8.66562e-05
7.90017e-05
7.66008e-05
8.65865e-05
7.57744e-05
7.57889e-05
9.02698e-05
9.16734e-05
8.4752e-05
9.31794e-05
9.35774e-05
8.80043e-05
9.51772e-05
6.44061e-05
8.62701e-05
7.4205e-05
8.94078e-05
9.44452e-05
8.80222e-05
8.21889e-05
8.86608e-05
7.57722e-05
9.18557e-05
8.80904e-05
8.15706e-05
7.6695e-05
7.14395e-05
7.09075e-05
8.245e-05
7.44897e-05
8.54913e-05
7.51205e-05
8.44813e-05
9.23149e-05
8.94026e-05
8.50061e-05
9.0571e-05
8.96695e-05
8.89269e-05
9.23464e-05
7.38506e-05
8.54924e-05
9.46618e-05
9.4228e-05
8.74519e-05
9.64381e-05
7.81283e-05
9.31894e-05
8.79264e-05
7.43295e-05
9.00732e-05
9.49129e-05
8.88541e-05
9.27772e-05
9.46069e-05
8.88215e-05
7.05018e-05
7.06318e-05
8.74353e-05
9.53367e-05
8.83481e-05
9.27071e-05
8.2987e-05
8.4153e-05
7.81102e-05
7.32085e-05
7.24837e-05
7.403e-05
9.06589e-05
9.08041e-05
9.51339e-05
8.5253e-05
8.39553e-05
9.49243e-05
7.37335e-05
8.94822e-05
9.40615e-05
9.51385e-05
8.5383e-05
8.54797e-05
9.37045e-05
9.70922e-05
9.3972e-05
7.73056e-05
8.60636e-05
9.23821e-05
8.88739e-05
8.99036e-05
9.77146e-05
9.26429e-05
9.5194e-05
8.98682e-05
8.07064e-05
8.90304e-05
9.3876e-05
9.1325e-05
8.98183e-05
7.44161e-05
9.34342e-05
9.35046e-05
9.51499e-05
9.31372e-05
7.37405e-05
7.11392e-05
8.77288e-05
9.04163e-05
8.64552e-05
9.0141e-05
9.26636e-05
9.24812e-05
9.26659e-05
8.22389e-05
8.94108e-05
8.90248e-05
9.27765e-05
7.60254e-05
7.5583e-05
8.48376e-05
9.23143e-05
7.64997e-05
9.48162e-05
7.56815e-05
8.32493e-05
8.96064e-05
9.40808e-05
8.37757e-05
9.33099e-05
9.30297e-05
9.31985e-05
8.82439e-05
9.08864e-05
9.0319e-05
8.32646e-05
7.12859e-05
9.46029e-05
7.11622e-05
7.43779e-05
7.59819e-05
7.29038e-05
7.34148e-05
8.31458e-05
9.00603e-05
7.53018e-05
8.26709e-05
6.83127e-05
7.79655e-05
8.73881e-05
9.44202e-05
7.19944e-05
7.61038e-05
9.28669e-05
7.24979e-05
8.35968e-05
9.2379e-05
8.81044e-05
8.9336e-05
7.71453e-05
7.48615e-05
8.25359e-05
9.41539e-05
8.02922e-05
7.65039e-05
8.70228e-05
8.28903e-05
9.04916e-05
8.80931e-05
7.69891e-05
9.44002e-05
7.34558e-05
7.55312e-05
8.55563e-05
9.3746e-05
8.24659e-05
8.51745e-05
8.6217e-05
8.945e-05
7.17508e-05
7.87983e-05
8.71832e-05
9.48906e-05
9.1347e-05
7.45338e-05
7.12357e-05
8.56198e-05
9.46544e-05
8.8152e-05
8.85205e-05
8.32067e-05
8.5497e-05
8.84842e-05
7.4548e-05
9.45398e-05
8.11859e-05
7.50127e-05
7.16337e-05
9.34271e-05
8.81407e-05
9.49962e-05
8.70352e-05
9.34303e-05
7.36922e-05
8.61729e-05
7.16889e-05
7.14187e-05
9.21933e-05
7.71515e-05
8.50396e-05
8.97185e-05
9.16562e-05
7.58633e-05
9.48168e-05
9.31759e-05
9.499e-05
8.88215e-05
6.76633e-05
8.9954e-05
7.10452e-05
9.56188e-05
7.62415e-05
9.47563e-05
7.01581e-05
9.08497e-05
9.13567e-05
8.31371e-05
8.4231e-05
6.96291e-05
8.08397e-05
8.88882e-05
9.31053e-05
8.90127e-05
9.43785e-05
9.5081e-05
7.4376e-05
9.47029e-05
8.13509e-05
9.09956e-05
9.04744e-05
9.37597e-05
9.10272e-05
8.91365e-05
9.45174e-05
8.40578e-05
7.94734e-05
7.95581e-05
9.05819e-05
9.58187e-05
7.80527e-05
7.95305e-05
9.28711e-05
8.95194e-05
8.91578e-05
9.84268e-05
9.18652e-05
8.82617e-05
9.21228e-05
9.26787e-05
9.47468e-05
8.72677e-05
8.54175e-05
9.38278e-05
9.15971e-05
7.82571e-05
8.74948e-05
8.10656e-05
9.57606e-05
9.00918e-05
9.31942e-05
7.6183e-05
7.64993e-05
8.93288e-05
9.29774e-05
9.3653e-05
9.46088e-05
9.5281e-05
8.71284e-05
8.84929e-05
7.65865e-05
8.65981e-05
9.00732e-05
9.33499e-05
9.53452e-05
9.50147e-05
8.50023e-05
9.44348e-05
7.7859e-05
9.33263e-05
8.13575e-05
8.78085e-05
8.27333e-05
8.94908e-05
8.55162e-05
9.36778e-05
7.58542e-05
9.44292e-05
9.43817e-05
8.49644e-05
7.60456e-05
9.79175e-05
8.89119e-05
9.38657e-05
8.91419e-05
8.99994e-05
9.02664e-05
7.40712e-05
9.45674e-05
8.53828e-05
9.04568e-05
7.885e-05
7.95316e-05
8.0066e-05
7.38115e-05
8.09475e-05
9.46978e-05
8.91409e-05
7.24767e-05
9.07477e-05
7.44334e-05
8.72925e-05
9.02131e-05
7.07216e-05
7.39669e-05
8.10895e-05
8.61338e-05
9.08065e-05
8.2436e-05
9.26062e-05
8.46426e-05
7.82902e-05
8.11798e-05
9.39922e-05
9.44025e-05
9.43313e-05
9.25159e-05
9.06171e-05
7.53724e-05
7.40788e-05
9.38799e-05
8.33905e-05
8.68693e-05
9.41817e-05
9.72595e-05
8.9378e-05
9.03139e-05
7.21145e-05
9.27495e-05
9.48629e-05
8.29101e-05
9.39728e-05
9.34413e-05
9.07704e-05
8.61087e-05
9.05257e-05
8.30019e-05
7.31995e-05
8.94737e-05
7.58634e-05
7.42115e-05
8.63578e-05
8.9278e-05
9.26901e-05
9.32788e-05
9.01758e-05
9.23957e-05
7.14696e-05
8.26198e-05
9.61404e-05
9.56845e-05
7.46727e-05
8.67915e-05
7.69897e-05
8.57136e-05
9.41778e-05
8.39277e-05
8.854e-05
9.50765e-05
8.79195e-05
7.29656e-05
9.3957e-05
7.38093e-05
9.30397e-05
9.16991e-05
9.12374e-05
9.40402e-05
9.08518e-05
9.36048e-05
7.51325e-05
9.43841e-05
9.44687e-05
7.76512e-05
9.16633e-05
8.83227e-05
8.48755e-05
9.36822e-05
8.58852e-05
9.262e-05
9.51113e-05
9.42495e-05
8.98172e-05
9.44347e-05
8.90048e-05
8.89336e-05
7.91409e-05
8.48417e-05
7.50851e-05
7.21312e-05
8.66783e-05
9.16161e-05
8.85795e-05
9.48582e-05
8.73575e-05
9.42904e-05
7.23833e-05
9.51903e-05
9.56242e-05
9.21027e-05
9.30325e-05
7.77814e-05
7.29545e-05
8.87573e-05
7.32353e-05
9.23763e-05
8.96817e-05
7.12538e-05
8.36935e-05
9.41338e-05
9.28468e-05
7.12899e-05
7.98213e-05
7.13518e-05
9.52905e-05
7.44538e-05
9.28538e-05
8.34379e-05
7.57095e-05
9.29792e-05
9.41485e-05
9.55686e-05
9.22234e-05
7.50371e-05
8.82921e-05
9.60205e-05
7.73879e-05
9.36486e-05
9.16414e-05
9.35708e-05
7.32482e-05
9.19294e-05
8.39109e-05
9.02671e-05
8.41294e-05
8.7463e-05
8.24202e-05
8.36506e-05
8.49733e-05
8.32914e-05
9.17774e-05
8.80603e-05
9.45166e-05
7.96509e-05
8.81334e-05
9.05133e-05
9.2969e-05
9.4172e-05
7.55997e-05
9.21087e-05
7.52465e-05
8.65045e-05
9.53429e-05
9.56295e-05
8.66632e-05
8.60116e-05
9.231e-05
8.23452e-05
8.74551e-05
8.57019e-05
7.54969e-05
7.41945e-05
9.08607e-05
9.44985e-05
8.69471e-05
8.34343e-05
9.45893e-05
7.52027e-05
9.12524e-05
7.5637e-05
8.83674e-05
9.49799e-05
8.96164e-05
7.3592e-05
9.44535e-05
7.50417e-05
9.16018e-05
9.2393e-05
7.35446e-05
9.45462e-05
7.77003e-05
8.19901e-05
8.48451e-05
7.21442e-05
8.00959e-05
8.54569e-05
7.00115e-05
9.2964e-05
9.65078e-05
7.13173e-05
8.11048e-05
9.28709e-05
9.03792e-05
9.05301e-05
9.64665e-05
9.36268e-05
8.79548e-05
7.95374e-05
7.40072e-05
7.05422e-05
7.5693e-05
9.49478e-05
9.26487e-05
8.83823e-05
9.02262e-05
7.42731e-05
7.50564e-05
8.74002e-05
9.29753e-05
6.98211e-05
9.01282e-05
8.90363e-05
8.56384e-05
9.20786e-05
8.55969e-05
9.39071e-05
7.95875e-05
8.48436e-05
9.69027e-05
6.8833e-05
8.87159e-05
9.43695e-05
9.42942e-05
8.83285e-05
9.33764e-05
9.10219e-05
7.36333e-05
9.60087e-05
9.63759e-05
8.82296e-05
9.03448e-05
8.5559e-05
8.84859e-05
9.2214e-05
9.06298e-05
8.99665e-05
8.89324e-05
8.65486e-05
7.34415e-05
8.41143e-05
9.55603e-05
9.24993e-05
9.55932e-05
9.08017e-05
8.72397e-05
9.55422e-05
7.6735e-05
9.38072e-05
7.46428e-05
9.51674e-05
8.95262e-05
8.2734e-05
9.54506e-05
8.22415e-05
8.46863e-05
9.5419e-05
8.34765e-05
9.61075e-05
9.42697e-05
9.19407e-05
7.59875e-05
8.96619e-05
8.82716e-05
8.05668e-05
9.37797e-05
8.68162e-05
8.78187e-05
9.64849e-05
7.48116e-05
9.33525e-05
8.98265e-05
9.38389e-05
8.3771e-05
8.95652e-05
7.54348e-05
7.84575e-05
9.86287e-05
7.52752e-05
8.97561e-05
9.38749e-05
7.58007e-05
8.53172e-05
9.45061e-05
8.06768e-05
7.75306e-05
7.94583e-05
8.3805e-05
8.27209e-05
9.56147e-05
8.41895e-05
9.5384e-05
9.12611e-05
9.45521e-05
7.37311e-05
8.12513e-05
9.42333e-05
8.85164e-05
7.52694e-05
7.78177e-05
8.52232e-05
7.35857e-05
7.38942e-05
8.84698e-05
8.72396e-05
9.39935e-05
8.63003e-05
9.37897e-05
9.38815e-05
9.23503e-05
9.28003e-05
9.07401e-05
8.10803e-05
8.44256e-05
9.21319e-05
8.74968e-05
8.52767e-05
9.4486e-05
8.81123e-05
7.33825e-05
7.33434e-05
8.41438e-05
7.53168e-05
8.94192e-05
9.36823e-05
8.38952e-05
9.13104e-05
9.32887e-05
9.31309e-05
9.59153e-05
8.59374e-05
7.64577e-05
8.50634e-05
8.40783e-05
9.41367e-05
8.41978e-05
9.15089e-05
9.46515e-05
8.35555e-05
8.33887e-05
9.08522e-05
9.42359e-05
9.21382e-05
9.8817e-05
9.25924e-05
8.55059e-05
8.70587e-05
7.8791e-05
8.44807e-05
9.42522e-05
7.88138e-05
9.39266e-05
8.56946e-05
9.34362e-05
7.6001e-05
9.23095e-05
8.9618e-05
9.41888e-05
8.86706e-05
8.77447e-05
8.90607e-05
9.31769e-05
7.34353e-05
7.79292e-05
8.84255e-05
8.21954e-05
8.61198e-05
8.99426e-05
8.94426e-05
9.50616e-05
8.9199e-05
7.41911e-05
8.12155e-05
7.50899e-05
8.67771e-05
8.95403e-05
7.71098e-05
9.69336e-05
8.85828e-05
8.39602e-05
9.00826e-05
7.88668e-05
7.71159e-05
9.53531e-05
7.63771e-05
7.21264e-05
7.87876e-05
8.00505e-05
7.74181e-05
7.94499e-05
9.44292e-05
9.31292e-05
8.21118e-05
9.13423e-05
9.33341e-05
8.89636e-05
9.13394e-05
7.26667e-05
9.43883e-05
6.11432e-05
9.33143e-05
7.53513e-05
7.35351e-05
9.33483e-05
7.30569e-05
8.49182e-05
8.88126e-05
9.41183e-05
8.29294e-05
8.91784e-05
8.22665e-05
8.80722e-05
8.59998e-05
8.82613e-05
8.59874e-05
9.16614e-05
8.78484e-05
7.60023e-05
9.22769e-05
8.67719e-05
8.56532e-05
8.13612e-05
7.72733e-05
8.24623e-05
7.32817e-05
7.33806e-05
8.93768e-05
8.44072e-05
7.73108e-05
8.30683e-05
9.33779e-05
9.38141e-05
9.26686e-05
6.3e-05
7.46698e-05
9.51828e-05
7.52737e-05
9.24639e-05
7.30145e-05
9.41727e-05
9.29677e-05
9.52099e-05
7.51621e-05
8.59172e-05
9.53306e-05
9.49537e-05
8.83409e-05
9.53143e-05
8.8044e-05
8.84625e-05
8.78797e-05
7.42347e-05
8.85591e-05
8.20305e-05
8.96302e-05
8.92679e-05
8.1192e-05
8.68255e-05
9.36607e-05
8.03924e-05
7.8668e-05
7.51139e-05
9.11458e-05
9.15106e-05
7.29159e-05
8.91901e-05
8.86401e-05
8.97101e-05
7.63909e-05
9.01831e-05
8.42731e-05
9.44067e-05
7.29592e-05
8.52244e-05
8.83181e-05
7.19426e-05
9.34747e-05
7.67202e-05
7.8053e-05
8.86238e-05
9.48175e-05
7.09832e-05
9.25233e-05
9.16672e-05
8.49589e-05
7.267e-05
9.46017e-05
9.40093e-05
7.14094e-05
8.85813e-05
7.05176e-05
7.74956e-05
9.39453e-05
8.44715e-05
8.98809e-05
9.43484e-05
9.46381e-05
8.54737e-05
8.16837e-05
8.8154e-05
8.56618e-05
8.60402e-05
8.22534e-05
9.21378e-05
7.42182e-05
8.6241e-05
8.51815e-05
8.47796e-05
9.22083e-05
8.67673e-05
9.09096e-05
9.05177e-05
8.84433e-05
9.45225e-05
8.91952e-05
8.4303e-05
8.10318e-05
9.11072e-05
8.54057e-05
8.47517e-05
9.08739e-05
9.41491e-05
8.89524e-05
9.43677e-05
8.51573e-05
9.2032e-05
8.09121e-05
7.59164e-05
8.84421e-05
9.1194e-05
7.68967e-05
8.92288e-05
8.79787e-05
6.9947e-05
7.28783e-05
9.34183e-05
7.2483e-05
8.75098e-05
9.36458e-05
8.86517e-05
7.57009e-05
8.97832e-05
9.55624e-05
7.49338e-05
7.61404e-05
7.67285e-05
9.33141e-05
8.8917e-05
8.91995e-05
9.65161e-05
7.38933e-05
9.14579e-05
8.85555e-05
9.45481e-05
9.595e-05
6.25486e-05
8.83585e-05
9.15235e-05
9.32265e-05
8.82636e-05
8.60891e-05
7.61363e-05
9.1674e-05
9.4341e-05
7.97735e-05
7.29177e-05
8.34621e-05
9.27303e-05
9.0446e-05
7.47818e-05
8.48274e-05
9.19331e-05
9.37499e-05
8.73233e-05
8.50053e-05
7.19252e-05
7.52221e-05
7.49694e-05
8.98716e-05
8.66102e-05
8.68411e-05
9.43393e-05
9.38767e-05
7.47195e-05
9.30259e-05
9.33666e-05
9.10833e-05
8.2065e-05
9.32454e-05
8.54637e-05
7.56064e-05
8.07836e-05
8.85376e-05
8.88696e-05
8.28636e-05
8.81537e-05
8.52294e-05
9.27773e-05
7.6284e-05
7.44167e-05
8.69545e-05
9.42169e-05
9.22827e-05
8.39741e-05
8.42958e-05
9.3532e-05
9.49247e-05
8.55389e-05
8.20023e-05
9.25515e-05
9.39219e-05
8.98925e-05
9.43156e-05
9.33882e-05
9.00344e-05
7.32603e-05
8.26089e-05
7.41642e-05
8.99325e-05
9.41101e-05
8.28693e-05
7.46735e-05
9.54203e-05
7.60727e-05
8.31476e-05
7.86102e-05
8.59384e-05
7.37781e-05
9.09475e-05
8.87022e-05
8.75491e-05
8.66444e-05
7.79365e-05
9.49482e-05
7.68785e-05
8.95925e-05
8.63986e-05
8.77968e-05
7.54257e-05
9.30086e-05
9.12034e-05
7.39991e-05
7.95356e-05
8.56749e-05
8.41836e-05
8.94898e-05
6.91857e-05
9.11724e-05
8.31585e-05
8.87429e-05
8.09249e-05
8.20739e-05
8.19659e-05
7.05467e-05
9.35807e-05
8.39303e-05
4.71895e-05
7.45486e-05
8.66436e-05
9.38165e-05
9.1643e-05
7.75378e-05
7.52329e-05
9.16599e-05
7.38521e-05
9.25006e-05
9.41805e-05
8.76621e-05
7.73777e-05
9.2559e-05
7.32115e-05
7.40002e-05
7.26279e-05
9.14265e-05
8.79316e-05
8.28892e-05
9.39522e-05
8.88533e-05
8.97172e-05
7.75024e-05
6.91659e-05
9.43839e-05
8.86991e-05
9.52965e-05
9.32878e-05
7.5449e-05
8.822e-05
8.71657e-05
8.51595e-05
8.85458e-05
8.18349e-05
8.35361e-05
9.94031e-05
9.03166e-05
8.26581e-05
7.55746e-05
8.89601e-05
8.81469e-05
9.02227e-05
8.36454e-05
7.36019e-05
7.64487e-05
8.8038e-05
8.99023e-05