/*--------------------------------*- C++ -*----------------------------------*\
| =========                 |                                                 |
| \\      /  F ield         | OpenFOAM: The Open Source CFD Toolbox           |
|  \\    /   O peration     | Version:  2212                                  |
|   \\  /    A nd           | Website:  www.openfoam.com                      |
|    \\/     M anipulation  |                                                 |
\*---------------------------------------------------------------------------*/
FoamFile
{
    version     2.0;
    format      ascii;
    arch        "LSB;label=32;scalar=64";
    class       volScalarField;
    location    "0.01";
    object      p;
}
// * * * * * * * * * * * * * * * * * * * * * * * * * * * * * * * * * * * * * //

dimensions      [0 2 -2 0 0 0 0];

internalField   nonuniform List<scalar> 
31639
(
0.0182184
0.0127092
0.0208469
0.00934439
0.012791
0.0179931
0.0199528
0.019066
0.0136349
0.0115917
0.0198761
0.0129053
0.0133445
0.0174788
0.0152357
0.0213157
0.0246737
0.0252308
0.00418117
0.0193504
0.014083
0.0108371
0.0148462
0.00924513
0.0159375
0.0189781
0.018414
0.0579237
0.0191262
0.019107
0.0102735
0.0272558
0.0135462
0.00746085
0.033136
0.0190624
0.0109998
0.0197458
0.0197985
0.0163388
0.0130753
0.0185637
0.0145522
0.020324
0.0208938
0.00876662
0.0130113
0.0103191
0.022153
0.00937745
0.00864439
0.00702764
0.0335097
0.0206233
0.0067619
0.0252863
0.0112007
0.0184098
0.0127465
0.008878
0.00975925
0.0186826
0.0154178
0.0189684
0.0334755
0.00543412
0.00342137
0.010549
0.0130985
0.00825662
0.0118186
0.0249528
0.0114113
0.00480548
0.0339146
0.0269029
0.0118011
0.010874
0.0126186
0.0118883
0.0180999
0.0173716
0.0170453
0.00960252
0.0169765
0.0157682
0.0146331
0.010297
0.0031662
0.0135555
0.00777851
0.0246982
0.00919874
0.0122807
0.00585226
0.0183588
0.00997098
0.00703893
0.0132388
0.017594
0.0313506
0.0313763
0.0159226
0.0120912
0.00676615
0.00843166
0.0176856
0.00909904
0.0103612
0.0161482
0.0199519
0.0175208
0.0185956
0.0109133
0.00487351
0.019532
0.033137
0.0204868
0.0314519
0.00982589
0.0274487
0.0085603
0.00439066
0.00942271
0.0177638
0.0173577
0.0125804
0.00949949
0.0116502
0.0139971
0.0329591
0.00142336
0.0210765
0.00498462
0.00589009
0.0106088
0.0111062
0.0121858
0.00873778
0.00975225
0.00969843
0.0143153
0.0155698
0.00891563
0.0131224
0.0170266
0.031863
0.0110152
0.0164003
0.033852
0.00996072
0.022668
0.0071534
0.00639289
0.00817863
0.00639097
0.00463682
0.0118222
0.0223598
0.0105286
0.00577279
0.0248081
0.0110545
0.0185528
0.0266007
0.0266213
0.020568
0.0231915
0.00725919
0.00505075
0.0234794
0.0176038
0.0236614
0.0134638
0.0167286
0.0115236
0.0152271
0.0273768
0.0106725
0.0160506
0.0134195
0.021999
0.0186637
0.0195529
0.0195758
0.0188924
0.0229808
0.0160931
0.0175858
0.0215964
0.0219111
0.011585
0.0223174
0.00688538
0.00769993
0.00801118
0.00783129
0.012402
0.00799242
0.0197146
0.0166199
0.0251019
0.0219591
0.0231906
0.0113326
0.00963146
0.00400825
0.00678361
0.0279557
0.00775629
0.00758263
0.0162991
0.0314162
0.0169151
0.0202422
0.0170618
0.0172186
0.0169626
0.0237407
0.0127851
0.0132186
0.0161784
0.0171357
0.023797
0.0206709
0.0118004
0.0214411
0.0208425
0.0147444
0.0271563
0.00709559
0.0196322
0.0248836
0.0215886
0.0223236
0.00381266
0.00360746
0.0226431
0.0186275
0.00673909
0.00967614
0.0204269
0.0237307
0.0222601
0.00987198
0.0255597
0.00753876
0.0265557
0.0216029
0.00393883
0.00113526
0.00882521
0.0221282
0.0255045
0.0123548
0.0132368
0.0184058
0.00572883
0.0182322
0.0210185
0.00880724
0.00713106
0.0123909
0.0174784
0.0125227
0.0169389
0.00283187
0.0321371
0.0201605
0.0180601
0.0410121
0.00832262
0.0183464
0.0226529
0.0108712
0.0214903
0.00781927
0.0238305
0.0104414
0.00875042
0.0266918
0.027406
0.0274134
0.0361755
0.019575
0.0195675
0.0238688
0.0228614
0.00436945
0.0218398
0.0245395
0.00198565
0.00708339
0.0071393
0.0206332
0.00612838
0.0248033
0.00337831
0.00976939
0.0111396
0.0104601
0.0236874
0.00754735
0.00690699
0.0152501
0.00606256
0.0174937
0.00408113
0.0147034
0.0239349
0.0101426
0.0400137
0.0321129
0.014158
0.0131154
0.018443
0.00352127
0.0277554
0.0214452
0.0211115
0.0203791
0.00852227
0.0309635
0.00654983
0.0166637
0.022745
0.0203276
0.0228085
0.00734448
0.00849933
0.0087438
0.0093333
0.024029
0.00698324
0.0250368
0.0333296
0.0340141
0.0105052
0.0232615
0.0260629
0.00591821
0.00291407
0.0253725
0.00541454
0.00757505
0.0235814
0.00666202
0.0207997
0.0206068
0.0310626
0.0114903
0.0238282
0.0114758
0.0219559
0.00679819
0.0089956
0.00758707
0.0152277
0.0154917
0.0226412
0.0249001
0.0153801
0.039884
0.00444856
0.0106276
0.0096985
0.00521329
0.0154021
0.0164953
0.0228931
0.0149125
0.0280285
0.0176337
0.00826917
0.00550172
0.00930794
0.0321549
0.0268274
0.022477
0.027892
0.0212162
0.00703707
0.0103646
0.00700579
0.00641633
0.00609256
0.00745637
0.0128856
0.000952171
0.0255024
0.00392603
0.0283982
0.00758651
0.0238188
0.00665177
0.0241869
0.0255308
0.0194685
0.00943567
0.0375753
0.0252244
0.0197289
0.0190191
0.00649811
0.0224162
0.00355115
0.0099216
0.0100011
0.0103759
0.0195905
0.0085965
0.0100429
0.0221881
0.0411516
0.0204838
0.0224672
0.0164017
0.017587
0.0157805
0.013075
0.012659
0.0310353
0.0149833
0.0014579
0.0223965
0.0407213
0.0144198
0.0303647
0.0175846
0.0208332
0.00918673
0.00756693
0.0237798
0.00870806
0.0189459
0.0190059
0.0230767
0.00569332
0.00701975
0.0247212
0.0104758
0.00384758
0.00450245
0.0171542
0.00594429
0.0106311
0.0111718
0.0258825
0.025292
0.0274265
0.0258339
0.0225271
0.0110073
0.0230912
0.0103474
0.024695
0.027748
0.00856805
0.0226649
0.00946509
0.0186258
0.026614
0.0177689
0.00471356
0.0217188
0.0605829
0.00470599
0.0143072
0.00966522
0.0211117
0.00277001
0.00742474
0.00874381
0.00743946
0.0230626
0.0018678
0.0147571
0.029945
0.013173
0.0152857
0.00895323
0.0322584
0.00580621
0.0120925
0.030985
0.0399307
0.0144935
0.0207717
0.0169082
0.0112458
0.00879246
0.00684849
0.0270066
0.00319153
0.0179962
0.0172554
0.0162825
0.00490222
0.00742291
0.0261169
0.0295463
0.00394071
0.00434685
0.00483688
0.00275491
0.0348814
0.0100475
0.00411092
0.0279209
0.0309675
0.0276865
0.00593567
0.0249735
0.0232334
0.0263219
0.0030188
0.0309667
0.0311008
-0.000162484
0.0268826
0.0259904
0.027017
0.0172466
0.028875
0.00139888
0.0046962
0.0260032
0.00398089
0.00487626
0.00811819
0.0197275
0.0132144
0.0241745
0.00161948
0.00866496
0.0138001
0.0291123
0.00185549
0.0229465
0.00343995
0.0402149
0.0407591
0.00965243
0.0582692
0.00992904
0.00987564
0.0160928
0.0163984
0.0113123
0.0156609
0.041902
0.0114701
0.0226623
0.000993966
0.010271
0.0159306
0.00911326
0.0258684
0.00192589
0.00621002
0.015534
0.00571746
0.0141898
0.014525
0.00774764
0.032649
0.00558665
0.0040974
0.000831548
0.0182418
0.0297099
0.00453627
0.000928006
0.00540384
0.00610459
0.00470356
0.0276643
0.000147396
0.00200852
0.00136597
0.0248473
0.00309234
0.025935
0.0267289
0.0278206
0.00832817
0.00036688
0.000616238
0.00417035
0.00113337
0.0170873
0.00147443
0.0170959
0.0271762
0.00232259
0.00994886
0.0133655
0.0324099
0.0299507
0.0236618
0.0113401
0.00547435
0.0311885
0.0268648
0.00245708
0.00268751
0.0116593
0.0194454
0.00814995
0.00184946
0.000286091
0.00137359
0.0259689
0.0216988
0.0100246
0.0594688
0.0214392
0.0165073
0.0114872
0.0178035
0.0229915
0.0228792
0.0159191
0.0102135
0.0129097
0.0133425
0.0217672
0.00490466
0.0156095
0.00184616
0.0170402
0.0395054
0.0272876
0.0255206
0.018756
0.0150093
0.0361126
0.0167934
0.0201849
0.00870445
0.0319712
0.0301153
0.00444712
0.0164518
0.018697
0.000455079
0.0365607
0.0100081
0.00177331
0.00490106
0.00267305
0.0324694
0.0295934
0.0302522
0.00450909
0.000329216
0.0256801
0.017267
0.0271745
0.0279223
0.0278583
0.00176563
0.00040592
0.0265679
0.0230096
0.0237409
0.0281238
0.00159783
0.0100502
0.0409564
0.00581809
0.0032077
0.0288118
0.0162748
0.00698868
0.0262374
0.0258851
0.0209528
0.0122381
0.00799187
0.0190903
0.0108826
0.000664922
0.00110773
0.00215506
0.00811883
0.00312226
0.032483
0.0116182
0.000764533
0.000913719
0.0248966
0.00883192
0.00109008
0.0604765
0.00820178
0.00982291
0.0130458
0.0148257
0.0126484
0.0161024
0.0153027
0.0101655
0.0116579
0.0169299
0.0106752
0.00995863
0.0114054
0.0150999
0.0286639
0.01624
0.0153971
0.025187
0.0325367
0.0274873
0.00776174
0.0151175
0.0043317
0.0170482
0.033616
0.00125592
0.00311364
0.00267215
0.00874161
0.0100674
0.0249698
0.0237585
0.0072042
0.0028415
0.0195022
0.0323723
0.000949585
0.0266851
0.0104823
0.0244436
0.0226603
0.0236554
0.0306695
0.0285013
0.0366149
0.0259836
0.021788
0.0273369
0.02452
0.0253353
0.00912196
0.0319516
0.0090164
0.00237355
0.00607357
0.0247779
0.000294695
0.0205806
0.00491096
0.00679855
0.0205717
0.0124338
0.0306589
0.00580175
0.0215924
0.0069779
0.0354551
0.0102424
0.00117672
0.00158179
0.0289706
0.0192987
0.00123805
0.0031708
0.00195259
0.00629837
0.000732411
0.000447161
0.0244656
0.0236165
0.000419686
0.0236128
0.0210945
0.0253218
0.0139085
0.0138422
0.011174
0.0178973
0.0185979
0.00873035
0.00138072
0.0163335
0.0224612
0.0165544
0.0307788
0.0273941
0.0163549
0.0264932
0.0102336
0.0410432
0.00480529
0.026989
0.0160518
0.000338077
0.0182921
0.00471587
0.00958877
0.00408834
0.00425306
0.0206669
0.0290665
0.00724717
0.0258993
0.00110074
0.0013869
0.00108142
0.0339914
0.0339836
0.0324109
0.0348627
0.0288413
0.0266953
0.0090011
0.00598087
0.0099932
0.00253818
0.0190098
0.00848489
0.0225739
0.0123603
0.0098071
0.00312184
4.21938e-05
0.0071976
0.00385625
0.0302931
0.0131816
0.00717169
0.00683405
0.0127041
0.00138519
0.0212986
0.00692015
0.0266717
0.00501252
0.00351985
0.0175915
0.0175909
0.026938
0.0321305
0.0282615
0.0216419
0.0122134
0.0132714
0.0257046
0.000352244
0.00132471
0.0252148
0.0257145
7.25419e-05
0.000719347
0.00380308
0.0254112
0.00700449
0.0154678
0.0328068
0.0317645
0.0161953
0.0381551
0.0122153
0.0106766
0.010941
0.00722807
0.00444619
0.0267
0.00452785
0.0163441
0.0197869
0.0302217
0.0095623
0.0108951
0.0103617
0.024354
0.0247047
0.0247799
0.0350039
0.00325862
0.0282878
0.0279893
0.0285463
0.0155345
0.000548553
0.0333375
0.0345421
0.031875
0.0187966
0.0197604
0.0216854
0.0202806
0.0240131
0.0185515
0.000795824
0.0254247
0.0117806
0.00828795
0.0258283
0.00191938
0.00117825
0.00445451
0.0040936
0.0310178
0.0124673
0.00456632
0.00646237
0.0111643
0.0229529
0.0107979
0.00989654
0.0208109
0.0145189
0.000727461
0.0267138
0.0169542
0.0278826
0.014249
0.00291047
0.0217908
0.0216321
0.00108737
0.0124969
0.0116063
0.000932871
0.00112402
0.0264207
0.0303899
0.0122601
0.0157708
0.0018449
0.0282072
0.0350562
0.0293225
0.0202921
0.00942587
0.0271418
0.0206096
0.0110701
0.0151799
0.00853422
0.00846033
0.0138194
0.0260153
0.00474321
0.0168278
0.010796
0.00977542
0.000407612
0.028947
0.0114838
0.0299747
0.00823065
0.0245696
0.0283827
0.0140308
0.0141946
0.0296657
0.0240159
0.0269129
0.0104639
0.0120994
0.0238664
0.022797
0.0180538
0.0190215
0.0278399
0.0284818
0.0373423
0.0220301
0.024868
0.00159075
0.00117608
0.0254365
0.0232445
0.0118696
0.0274964
0.00398837
0.0195473
0.0216277
0.0271355
0.00336241
0.0278791
0.0253705
0.0301431
0.0286404
0.0299779
0.0141932
0.0257923
0.0114403
0.0196602
0.0192143
0.0183183
0.0311325
0.0289103
0.0279781
0.0236358
0.0128783
0.0168698
0.0185116
0.02842
0.0182615
0.000217953
0.0296431
0.0325457
0.0153836
0.0131213
0.00534461
0.00407782
0.0108238
0.0288095
0.00898239
0.00973781
0.0353617
0.0145255
0.00534893
0.00752604
0.000723009
0.0138574
0.0156417
0.0141943
0.0264219
0.0010087
0.0305891
0.00259404
0.0298134
0.0288162
0.0351482
0.0135948
0.0138226
0.0119368
0.0223494
0.019795
0.0233457
0.0357583
0.0260971
0.0276504
0.0182001
0.0222349
0.0132296
0.0232212
0.0202985
0.00441594
0.00387933
0.0165136
0.00152227
0.0117292
0.0307714
0.0324419
0.00597291
0.0298831
0.0196008
0.0313777
0.0170546
0.0176862
0.00250321
0.00130405
0.0228662
0.0206069
0.00999334
0.0131915
0.0123606
0.0191425
0.01335
0.0258586
0.0278979
0.035555
0.0273423
0.0295465
0.0179661
0.012663
0.0148248
0.00126618
0.00245912
0.00490812
0.0130597
0.0117153
0.0206613
0.0121173
0.0216642
0.0245172
0.0271385
0.0125403
0.00802811
0.036505
0.0192744
0.0325052
0.0321213
0.0143787
0.0328846
0.00348776
0.0273357
0.0084435
0.0157787
0.00631156
0.0122841
0.0134475
0.0311779
0.0315349
0.000933746
0.0284691
0.0338377
0.0388811
0.0126903
0.0239396
0.0275133
0.0279877
0.011201
0.0121209
0.0258523
0.0390272
0.0257673
0.00473962
0.022847
0.0382291
0.0221864
0.0220269
0.0213159
0.0104536
0.032122
0.0276564
0.0322735
0.0028782
0.022813
0.0019959
0.0192437
0.0272043
0.00577685
0.0271621
0.00823447
0.0260205
0.0354057
0.0153381
0.000701701
0.0171284
0.0185849
0.00114298
0.0114531
0.0118042
0.0184014
0.0133038
0.0372977
0.0298183
0.0117318
0.0115991
0.0288781
0.0162577
0.027475
0.0361838
0.0281188
0.0011606
0.00103711
0.0296526
0.0257313
0.0181656
0.0199475
0.0230435
0.0190552
0.0197918
0.0321615
0.0283973
0.0340614
0.02555
0.0224523
0.0033395
0.0329529
0.00433151
0.0124242
0.0306579
0.0328456
0.0265789
0.0138683
0.0123152
0.000618692
0.0286191
0.0179879
0.0303959
0.016684
0.0320607
0.0340776
0.0214925
0.0229905
0.0137444
0.00672337
0.0371891
0.0178137
0.0228885
0.0176079
0.0163763
0.0236318
0.0376146
0.0217462
0.02063
0.040469
0.00354365
0.03178
0.0196514
0.0391295
0.0204129
0.0163641
0.031632
0.0322377
0.00590916
0.0121965
0.00683602
0.00820711
0.0278483
0.0147531
0.0161147
0.000643592
0.0129825
0.0470062
0.0132333
0.0139034
0.0190961
0.0196748
0.0186746
0.0294293
0.030054
0.0219485
0.011675
0.0297464
0.0167163
0.0309533
0.0278174
0.0279237
0.0308091
0.0314642
0.0289645
0.0111233
0.00101463
0.032998
0.0100538
0.0348875
0.038733
0.0362652
0.0132733
0.0331441
0.0223179
0.00358291
0.00296244
0.00479112
0.0297033
0.0308394
0.0305896
0.0283321
0.0338266
0.0136994
0.0115981
0.0309317
0.0345647
0.0164934
0.0306595
0.0328278
0.021827
0.0127224
0.0373049
0.033206
0.0287192
0.0233379
0.0297335
0.0242015
0.0320966
0.00277236
0.0240643
0.0286687
0.0329157
0.0235848
0.0310364
0.0157083
0.0393369
0.0247869
0.00342172
0.0298704
0.00718213
0.000344081
0.00676639
0.0235264
0.0199977
0.0231859
0.0296748
0.0322536
0.0124218
0.0256615
0.0146906
0.0200604
0.0187978
0.0186743
0.0114986
0.0303331
0.0205205
0.0211604
0.0301926
0.021443
0.010645
0.0102855
0.0213039
0.0223656
0.0203516
0.0284012
0.0289373
0.00170438
0.0200543
0.030184
0.0289358
0.0208981
0.0213405
0.0175576
0.0217975
0.038129
0.0018373
0.0104815
0.0315511
0.00489404
0.014036
0.015109
0.0144429
0.0354334
0.0373973
0.0045942
0.0381902
0.0339991
0.0244608
0.0243293
0.0345771
0.0251894
0.0320391
0.0299847
0.00609886
0.0134656
0.0363408
0.000611809
0.000981504
0.0347519
0.0323711
0.00558035
0.0342899
0.0252317
0.022227
0.014417
0.0326014
0.0319409
0.0115828
0.0302165
0.0280904
0.0247826
0.0221316
0.00146063
0.00238541
0.00163904
0.0253693
0.0291
0.0186426
0.0332519
0.0367061
0.0180942
0.0162112
0.0113997
0.00678217
0.0402322
0.000296144
0.00464282
0.0146753
0.00181172
0.000481604
0.000866462
0.0155501
0.0114246
0.00149851
0.0502281
0.0315909
0.0240894
0.0370124
0.0207306
0.0397057
0.00642896
0.012821
0.013351
0.0382648
0.0382658
0.020753
0.0108801
0.0218639
0.0196997
0.0257385
0.0238433
0.0249243
0.028961
0.00236067
0.0308775
0.0313233
0.0314873
0.030743
0.0257335
0.0254235
0.0196102
0.0179438
0.0330543
0.0287908
0.00933757
0.00730754
0.0194848
0.027822
0.0370971
0.00920662
0.0104055
0.0110453
0.0277255
0.0349633
0.036762
0.0360822
0.00299992
0.00168367
0.0343837
0.00115106
0.0338535
0.0351089
0.00716556
0.00989195
0.00440767
0.0329905
0.0125617
0.0289369
0.0227775
0.0229131
0.0354798
0.0361582
0.0163409
0.0396824
0.0392881
0.0267462
0.0246654
0.000269061
0.000981058
0.0273103
0.0248341
0.0300169
0.0389578
0.0591475
0.0396675
0.0311144
0.0397157
0.0315079
0.0039895
0.0290516
0.0334839
0.00452029
0.0312896
0.00770031
0.000945246
0.0307407
0.0012605
0.014448
0.0156381
0.0154441
0.0142345
0.000630585
0.00308508
0.00998149
0.0376197
0.0350881
0.025489
0.015115
0.0192075
0.0121869
0.0153427
0.0112185
0.0146848
0.0144438
0.0130911
0.0269068
0.0229851
0.0310144
0.0229439
0.0309297
0.00225902
0.0302282
0.00158016
0.0400663
0.0313694
0.0204045
0.0258815
0.0125462
0.0164191
0.0056732
0.00438059
0.010089
0.00684088
0.0185412
0.0303201
0.0141829
0.0237552
0.0217074
0.00879338
0.0214258
0.0374892
0.00206066
0.00492205
0.00198348
0.024694
0.0352862
0.0284761
0.00926054
0.00742846
0.0346547
0.0045806
0.034914
0.0331932
0.0602632
0.034939
0.0346121
0.0395291
0.0370184
0.035587
0.0277828
0.00720249
0.0287404
0.00682857
0.0293507
0.0305549
0.000150913
0.0373008
0.0173927
0.00350769
0.0293449
0.0368044
0.028896
0.0331764
0.0289503
0.0146567
0.0178945
0.0278253
0.0313287
0.0342918
0.0367836
0.00119433
0.0049596
0.0234458
0.0310692
0.0291446
0.0258383
0.0269961
0.00191259
0.0258778
0.0138925
0.0146824
0.0141697
0.0124611
0.0165244
0.0198941
0.000865223
0.0316661
0.0329756
0.028074
0.00179798
0.0328154
0.0199844
0.0210159
0.0238811
0.0247894
0.0290371
0.0227331
0.0510766
0.00591762
0.0206097
0.0319847
0.0247304
0.0247932
0.0048881
0.0227367
0.035136
0.0397481
0.0289872
0.013333
0.0342009
0.0122904
0.0227406
0.0363491
0.0384756
0.0228197
0.0387905
0.0383051
0.03826
0.0355813
0.024141
0.0370957
0.0351034
0.0305556
0.013814
0.0276705
0.0108821
0.00324647
0.028455
0.00896745
0.0360198
0.036741
0.0357842
0.0334195
0.0211588
0.0335009
0.037897
0.0119229
0.00832796
0.0164771
0.040601
0.0277191
0.0268156
0.00698602
0.00619263
0.0318494
0.00202031
0.0194973
0.0398661
0.0341582
0.0292195
0.0300408
0.0180901
0.0159617
0.00431145
0.0310528
0.000571431
0.0113716
0.0345621
0.00164879
0.00434851
0.0065497
0.00888726
0.00531561
0.0246821
0.027383
0.0320558
0.0210374
0.0129409
0.0465192
0.0129745
0.014963
0.0158999
0.0333646
0.0301042
0.0378452
0.0341143
0.0109511
0.0190212
0.0186356
0.0185415
0.0216862
0.0261831
0.0263705
0.0305905
0.0291926
0.0270373
0.0199116
0.0148843
0.0153188
0.00380037
0.0287482
0.0342781
0.0122208
0.00508867
0.051405
0.0194383
0.0350611
0.0235717
0.035568
0.0427258
0.0274877
0.0124234
0.0106427
0.0228804
0.0376855
0.0362583
0.00945284
0.0402783
0.000597459
-3.29867e-06
0.0347294
0.0386094
0.019402
0.016027
0.0324984
0.0084866
0.0362616
0.0389825
0.0156968
0.0318082
0.0332825
0.0494043
0.00891744
0.0374739
0.0220493
0.0228733
0.0313714
0.0373463
0.0044324
0.0294528
0.0401764
0.0392362
0.0418129
0.0090226
0.0328349
0.0317866
0.00455815
0.0258953
0.0374776
0.026803
0.00395446
0.0116601
0.0247482
0.00806083
0.0269446
0.0117098
0.00104024
0.00132229
0.0165651
0.00473164
0.0356427
0.0208962
0.0092654
0.0159537
0.0370466
0.0370427
0.0328351
0.0342746
0.0364017
0.0211181
0.00386739
0.00795529
0.0181697
0.0310355
0.0311414
0.0320143
0.032381
0.0223206
0.0217503
0.0196622
0.0270033
0.023996
0.0241244
0.0259937
0.0394273
0.0284396
0.0310417
0.0265462
0.0294856
0.0292695
0.0148532
0.028665
0.0223898
0.0138128
0.0201733
0.0455878
0.0226969
0.0506722
0.0298775
0.0088067
0.013628
0.0262423
0.0430391
0.0242312
0.0228341
0.0102696
0.0300042
0.00117134
0.00269607
0.000648712
0.0373014
0.037021
0.0375851
0.0193991
0.0407334
0.00726306
0.0385916
0.0390591
0.0375982
0.00403447
0.0429686
0.0378509
0.00303212
0.040278
0.0228668
0.0238434
0.0225976
0.0311711
0.0339721
0.0278709
0.0293074
0.0309383
0.019156
0.0186927
0.00490504
0.0391022
0.0308271
0.0352644
0.0268213
0.0341892
0.0383785
0.0142998
0.0368063
0.00381779
0.0274332
0.012927
0.00159915
0.000403219
0.0165107
0.034429
0.0131089
0.0313517
0.0318851
0.0107298
0.0335171
0.0127028
0.0402251
0.0319327
0.0396405
0.0298656
0.0163309
0.0316521
0.0330723
0.0368767
0.00849296
0.0325558
0.03242
0.0341295
0.0367176
0.0262716
0.0345219
0.0279273
0.00387698
0.0330624
0.00855951
0.0248335
0.0261589
0.0179968
0.0286758
0.0434125
0.0219571
0.0203947
0.0212773
0.0148634
0.0278145
0.0104309
0.0184883
0.0341292
0.0162949
0.0320222
0.00969326
0.0344349
0.0286827
0.00901816
0.024337
0.0359199
0.00953664
0.0282923
0.0186325
0.0025511
0.000545167
0.00264112
0.0360873
0.0236379
0.0269974
0.020594
0.0202121
0.0360387
0.0391998
0.037866
0.0288385
0.0373069
0.0304396
0.0396173
0.0207086
0.0403115
0.0400094
0.0399231
0.0387053
0.0376816
0.00448752
0.0315191
0.0376941
0.0289011
0.0260505
0.0419959
0.0377348
0.0190486
0.0392088
0.00403771
0.035685
0.0372135
0.0261661
0.0247478
0.033739
0.0351836
0.0336474
0.00173679
0.0393985
0.0297151
0.0111661
0.000806082
0.0388841
0.0120188
0.00508734
0.00340955
0.000469236
0.027853
0.0089327
0.046935
0.0142117
0.0334572
0.0179303
0.0135664
0.0195124
0.0325528
0.0140023
0.0386604
0.0321403
0.0189854
0.0363974
0.0323911
0.0278805
0.0435288
0.0294042
0.0373874
0.0241187
0.040411
0.0238903
0.023663
0.00502453
0.0300666
0.028791
0.0304063
0.0351126
0.025661
0.0405376
0.030322
0.0294628
0.00416636
0.00916578
0.0407293
0.0215303
0.0080324
0.0217792
0.0538048
0.0130042
0.0420978
0.0097507
0.00186289
0.0160425
0.0168221
0.0149701
0.0279514
0.00873725
0.0259508
0.0323505
0.0232578
0.00789526
0.00865265
0.0380392
0.00242237
0.0284604
0.0264637
0.0176819
0.0355582
0.0423894
0.0184367
0.0355106
0.0331443
0.0294432
0.000576261
0.0285583
0.0319612
0.0378377
0.0387138
0.0437554
0.0405386
0.00510798
0.00337388
0.0409625
0.00500316
0.036677
0.0393332
0.0364998
0.00790079
0.0448454
0.0173498
0.0326483
0.0392221
0.0352803
0.0363125
0.0349344
0.0332155
0.0304071
0.0179547
0.0333642
0.025201
0.00301886
0.016446
0.0364836
0.0331229
0.043001
0.0454543
0.00253384
0.023792
0.00393995
0.00738731
0.0382721
0.00738192
0.00630179
0.040194
0.0092187
0.0155243
0.0232972
0.0385823
0.000467183
0.0379978
0.0326072
0.0182209
0.0373701
0.0395546
0.0204646
0.0373433
0.0302738
0.0402909
0.0372179
0.0366536
0.0269899
0.0415191
0.0290107
0.00840427
0.00896998
0.0403398
0.0301313
0.0369176
0.0447771
0.0331489
0.0354241
0.0441847
0.00883057
0.040224
0.0393603
0.040366
0.0222635
0.0581887
0.00684326
0.0115305
0.0179347
0.0164813
0.0435701
0.0131632
0.031963
0.025338
0.0265179
0.0246911
0.0091441
0.016509
0.0106637
0.0378229
0.00186289
0.0402277
0.0409734
0.0417167
0.0196387
0.0344741
0.0516457
0.0320843
0.00293415
0.0367481
0.0125555
0.0155737
0.0424522
0.0198798
0.0419945
0.0425631
0.0284577
0.00467847
0.0377621
0.036294
0.0376604
0.0281889
0.0371828
0.0371984
0.0358767
0.0316331
0.0325929
0.0335019
0.033674
0.0278138
0.0258664
0.00254529
0.0387465
0.0235048
0.0249775
0.0273999
0.0140247
0.0117461
0.0466944
0.0362988
0.0331763
0.0423126
0.0437391
0.0164596
0.00682662
0.0113754
0.0457699
0.0236634
0.0121124
0.0390322
0.010326
0.0340306
0.0196398
0.00875686
0.00837709
0.0321075
0.018743
0.0351042
0.0015158
0.0309674
0.00339753
0.0333168
0.019256
0.0279984
0.0286264
0.0272666
0.0351619
0.0341243
0.038378
0.0119796
0.0528959
0.0509992
0.0446565
0.0305327
0.0303618
0.0237596
0.0320513
0.0359124
0.0377953
0.043188
0.000254234
0.0168688
0.0185946
0.0572176
0.0386205
0.00475068
0.0395785
0.00508906
0.0227375
0.0260158
0.0159871
0.0116761
0.0449055
0.0361422
0.0123877
0.0245107
0.0463177
0.0158144
0.00990549
0.000904544
0.0226437
0.00337547
0.0417546
0.00987111
0.0442081
0.0528034
0.0133855
0.0368329
0.000528688
0.0005573
0.0128832
0.0427969
0.0426918
0.0407251
0.0360827
0.0027667
0.0278394
0.0597216
0.0268519
0.0358911
0.034258
0.0355755
0.0361547
0.0286174
0.0396879
0.0349367
0.0123194
0.00303892
0.00335799
0.00339397
0.0335238
0.0375236
0.0211261
0.0374788
0.00894732
0.00927763
0.0105515
0.0323817
0.0436948
0.0431506
0.0453605
0.0255335
0.0128668
0.0397309
0.0121622
0.0320947
0.0348572
0.0361528
0.0197522
0.0396734
0.0180263
0.0328558
0.0340966
0.0326592
0.0172975
0.0245063
0.0607813
0.0153123
0.00394607
0.0311888
0.0266465
0.0331033
0.0216477
0.0252575
0.0270253
0.0287966
0.0238278
0.0347361
0.0506105
0.0260655
0.0391174
0.0180564
0.0319476
0.0244471
0.0308911
0.0333885
0.0317671
0.0428469
0.006168
0.0421511
0.027761
0.00132058
0.0183121
0.0440525
0.0393249
0.0235301
0.00559368
0.0356738
0.0129226
0.0454888
0.0129637
0.0368576
0.0348527
0.0411949
0.0311278
0.037882
0.0258744
0.00435163
0.0339056
0.00392765
0.04131
0.000486626
0.00137277
0.00879823
0.00320974
0.0282857
0.00150634
0.0458265
0.0461146
0.0386708
0.0397587
0.0434256
0.0434193
0.0419856
0.0426469
0.0119495
0.0462193
0.0418834
0.00932637
0.0395928
0.0487398
0.0274717
0.000305041
0.0380536
0.0414725
0.035689
0.0331209
0.0373806
0.0445987
0.00433945
0.0392845
0.00190988
0.0011045
0.000264455
0.0341248
0.0242083
0.010577
0.0199619
0.0388799
0.0574115
0.0272461
0.0355541
0.0365636
0.044332
0.00352269
0.0603464
0.0408466
0.0119144
0.029116
0.0142208
0.0304816
0.0376117
0.0144685
0.0404116
0.0314144
0.017146
0.0267882
0.0164855
0.0330557
0.0267975
0.0425431
0.0436306
0.0126116
0.0227625
0.0274306
0.0268535
0.0364644
0.0515832
0.0186742
0.0363404
0.0276872
0.0184282
0.0236165
0.0464191
0.0259757
0.0240828
2.96017e-05
0.0492447
0.0483724
0.0016888
0.0397571
0.00309191
0.0299747
0.045697
0.00691236
0.0422786
0.0424296
0.0449459
0.0432288
0.0347303
0.0355679
0.0388844
0.0106869
0.0373748
0.012936
0.00348843
0.0198938
0.00542699
0.0354367
0.0385461
0.0165066
0.0165709
0.0201232
0.0450734
0.00516442
0.038432
0.0230252
0.0444895
0.0314535
0.0435847
0.0419028
0.0468545
0.0417469
0.00190917
0.0277163
0.0414783
0.0288652
0.0376719
0.0363596
0.00760627
0.0435732
0.0331364
0.0458472
0.000220041
0.0417662
0.0104604
0.0225561
0.00305377
0.0355021
0.0346309
0.0539008
0.0328632
0.0110496
0.0408371
0.0390109
0.00130791
0.000906525
0.0532833
0.0364639
0.0128034
0.0591928
0.0145819
0.0229411
0.0397452
0.000579164
0.00457242
0.0600977
0.0116779
0.0173416
0.0172283
0.0283645
0.0389123
0.0225101
0.0164363
0.0396324
0.0446887
0.0414955
0.03863
0.0227487
0.0389198
0.027379
0.0167252
0.0342758
0.0337634
0.0275613
0.0310286
0.0225819
0.0211986
0.0392354
0.0404332
0.0409509
0.0341046
0.0484231
0.0328601
0.0341502
0.0320759
0.0336249
0.0407053
0.0293093
0.00658628
0.0443581
0.0430079
0.0399838
0.00688681
0.0382503
0.0331843
0.0372065
0.0337429
0.0456248
0.0397772
0.00530594
0.0161963
0.0450458
0.0455147
0.0491614
0.00431803
0.022077
0.0153937
0.0419135
0.0405256
0.0435136
0.0486832
0.0490321
0.0421745
0.0481689
0.041518
0.0409441
0.0263639
0.0433662
0.0367803
0.0481275
0.0582652
0.0364085
0.0340206
0.0602103
0.0300931
0.0215747
0.0449075
0.0247129
0.0480817
0.00147957
0.0374709
0.0231276
0.0556204
0.0359818
0.0341617
0.0458963
0.0220912
0.00156797
0.0203731
0.0560924
0.000608732
2.4525e-05
0.0368611
0.0144485
0.0154749
0.0152945
0.0110399
0.009427
0.010448
0.00871143
0.0165389
0.0428508
0.0480571
0.00503168
0.0432013
0.0383674
0.00401754
0.0360159
0.0443107
0.0448908
0.0253314
0.0311333
0.023958
0.0438001
0.0248666
0.0383724
0.0340625
0.0253087
0.0351627
0.0431068
0.0244296
0.0241067
0.0348372
0.0342542
0.028932
0.046884
0.00563089
0.0492585
0.029743
0.0256256
0.0282204
0.0443328
0.0194202
0.0150295
0.0446877
0.0395163
0.0405255
0.0433614
0.0555572
0.0502336
0.0448561
0.0404095
0.0441722
0.0465921
0.0450561
0.0279263
0.0471837
0.0452711
0.0131578
0.0405218
0.030045
0.0472427
0.0391127
0.0464846
0.0234417
0.0417883
0.0294948
0.0343256
0.0435018
0.0471166
0.0129069
0.0383949
0.0304693
0.0295989
0.0311488
0.0483428
0.0392803
0.0414853
0.000941374
0.0352658
0.000235053
0.0415117
0.00366049
0.0567324
0.0143177
0.029314
0.0115671
0.0112182
0.0100887
0.0380166
0.0414008
0.0285649
0.0291946
0.0379024
0.0259342
0.0435432
0.0446092
0.0323918
0.0489947
0.0425761
0.0493354
0.0428028
0.0398408
0.0459981
0.0259385
0.0335589
0.0347499
0.0276137
0.00638251
0.0463436
0.0456435
0.0541527
0.0141351
0.0425705
0.0378111
0.0150302
0.0343269
0.0421092
0.0367419
0.0480278
0.0455753
0.0435234
0.0474475
0.0351941
0.0453633
0.0471487
0.0457127
0.0448888
0.0373682
0.0417866
0.0330729
0.0486327
0.0406133
0.0602672
0.059366
0.0391342
0.0480058
0.0385087
0.0377624
0.0368867
0.0313318
0.0444748
0.0393151
0.0425492
0.0446485
0.0487687
0.0427486
0.0364794
0.0407102
0.0407148
0.0476288
0.0392547
0.0420608
0.0447963
0.0465308
0.00342544
0.0427324
0.0045659
0.00525918
0.00569241
0.00278155
0.0422066
0.00918185
0.000929986
0.0309309
0.0419742
0.0572989
0.0583184
0.0484118
0.0386253
0.0473103
0.0258161
0.0534243
0.0343613
0.0375896
0.0410734
0.0444646
0.0290491
0.0439235
0.045664
0.0330487
0.0354793
0.0458182
0.0358878
0.0528692
0.0460031
0.0510363
0.0158038
0.00274455
0.0425117
0.0420624
0.0413057
0.0512529
0.0435009
0.0523369
0.0434657
0.0468456
0.0276623
0.0487859
0.0352391
0.0471109
0.0372673
0.0476219
0.0489267
0.0296367
0.0431449
0.0320839
0.0448736
0.0318305
0.0452314
0.0392924
0.0377466
0.0453794
0.0435958
0.0394171
0.0434008
0.030029
0.0523742
0.0407807
0.0434249
0.0447746
0.0465859
0.0127654
0.0315067
0.0471132
0.00459718
0.00632529
0.0482542
0.0422559
0.000661083
0.0574567
0.0381429
0.0530919
0.0416816
0.0363539
0.0363812
0.0500294
0.0418198
0.0358281
0.037765
0.0407041
0.0419186
0.0414508
0.0538467
0.0460014
0.0462866
0.0311088
0.031183
0.0487782
0.0392681
0.0461899
0.0462554
0.0522437
0.0572912
0.0549126
0.0365891
0.0487644
0.0384826
0.0452772
0.0441808
0.0378969
0.0173991
0.0480973
0.0580337
0.0470213
0.0360931
0.0415902
0.0361183
0.0595403
0.0332965
0.0427598
0.0362314
0.0379279
0.045343
0.0479929
0.0383429
0.0459396
0.0450114
0.0407991
0.0467017
0.045293
0.0452586
0.0404809
0.048672
0.0490125
0.0481584
0.041338
0.0472799
0.0476173
0.0471797
0.0148799
0.0482485
0.034259
0.0352729
0.0434827
0.0521216
0.0346364
0.0420219
0.0488208
0.0412256
0.0422909
0.0363049
0.0548617
0.0406129
0.0478641
0.0346605
0.0346629
0.0418358
0.0484105
0.0344124
0.041218
0.0406468
0.0477088
0.0485882
0.0410067
0.0415657
0.0519264
0.0519709
0.0426149
0.0511973
0.0504055
0.0451108
0.0513682
0.0211118
0.0512888
0.0483646
0.0474774
0.048027
0.0460313
0.0481084
0.0532121
0.0433536
0.0480166
0.038106
0.0438213
0.0392639
0.0451665
0.0452232
0.0549626
0.0460917
0.0545413
0.0547497
0.039116
0.0447966
0.0468153
0.0314951
0.0403536
0.041912
0.041976
0.0532806
0.0463731
0.0362399
0.0412788
0.0338657
0.049462
0.0343777
0.0360237
0.0411621
0.0422133
0.042775
0.0478999
0.0472333
0.0479625
0.0397986
0.0351456
0.0374858
0.0469993
0.0489752
0.0322623
0.0482113
0.0547172
0.050834
0.0404287
0.0467931
0.0456781
0.0475124
0.0441358
0.0435361
0.0536865
0.0404737
0.0435496
0.0511738
0.0399519
0.0461763