/*--------------------------------*- C++ -*----------------------------------*\
| =========                 |                                                 |
| \\      /  F ield         | OpenFOAM: The Open Source CFD Toolbox           |
|  \\    /   O peration     | Version:  2212                                  |
|   \\  /    A nd           | Website:  www.openfoam.com                      |
|    \\/     M anipulation  |                                                 |
\*---------------------------------------------------------------------------*/
FoamFile
{
    version     2.0;
    format      ascii;
    arch        "LSB;label=32;scalar=64";
    class       surfaceScalarField;
    location    "0.01";
    object      phi;
}
// * * * * * * * * * * * * * * * * * * * * * * * * * * * * * * * * * * * * * //

dimensions      [0 3 -1 0 0 0 0];

oriented        oriented;

internalField   nonuniform List<scalar> 
68568
(
-1.38098e-07
1.43074e-07
-2.70611e-08
2.20854e-08
1.33613e-07
-6.79089e-08
-7.1417e-08
5.7134e-09
1.60731e-07
-1.23285e-07
-5.47305e-08
1.72839e-08
-4.34519e-09
2.24232e-09
-1.52792e-07
1.54894e-07
-1.39571e-09
1.29053e-07
1.07676e-09
-1.28734e-07
1.27835e-07
-4.34386e-10
-1.16942e-07
-1.04592e-08
7.6446e-08
-8.24008e-08
1.20275e-07
-1.1432e-07
-3.59401e-08
-2.45257e-08
1.36912e-07
1.19795e-07
-1.43508e-08
-1.01143e-07
-4.30136e-09
1.37342e-07
4.82785e-08
-5.20082e-08
9.1694e-08
1.25441e-07
-5.64035e-08
-5.90118e-08
-1.83119e-07
1.74222e-07
-1.28963e-07
6.30541e-08
-5.50832e-09
1.66351e-07
-1.71749e-07
1.28285e-08
-7.42991e-09
-6.52323e-08
-4.75823e-08
1.11611e-07
1.20323e-09
1.17206e-07
8.17049e-08
-1.21144e-07
-7.77674e-08
-4.66742e-08
-7.23197e-08
1.05644e-07
1.33493e-08
1.05206e-07
-1.0982e-07
-4.20602e-08
1.02465e-07
-4.35405e-09
-4.11674e-10
-9.76993e-08
7.88746e-08
-1.41686e-07
7.06769e-08
-7.86573e-09
1.05687e-07
-3.45651e-10
-1.05366e-07
2.54207e-11
-1.59275e-08
8.24972e-09
1.28031e-07
-1.20354e-07
-4.21512e-08
1.73494e-07
-2.49845e-08
-1.06359e-07
-5.43748e-10
-2.59525e-10
-1.25697e-07
1.265e-07
-7.02863e-08
-4.4978e-08
1.08859e-07
6.40578e-09
-9.00583e-08
-3.66644e-08
-1.13758e-08
-5.99276e-08
1.30657e-07
8.14557e-09
7.12716e-08
4.31443e-08
-2.73836e-08
-8.70323e-08
-6.25506e-08
-9.37388e-08
1.20349e-07
4.43891e-08
-1.10468e-07
3.52853e-09
1.40037e-07
-7.5211e-08
-1.3184e-07
6.7014e-08
-1.23927e-08
2.46493e-09
1.1003e-07
-1.00102e-07
1.43755e-07
-3.02349e-08
-1.0191e-08
-1.03329e-07
1.11811e-07
-8.63191e-08
-5.42424e-08
2.87505e-08
-1.85195e-10
1.02944e-07
-1.02778e-07
1.95199e-11
1.11557e-07
8.00876e-08
-8.03921e-08
7.18565e-10
-4.1399e-10
3.923e-08
-1.45879e-07
8.50833e-08
2.15656e-08
-1.49759e-07
1.30476e-07
5.85121e-08
-6.9939e-08
-8.07914e-11
-2.66554e-10
-8.2018e-10
1.07348e-07
-8.41117e-10
1.05605e-07
-1.05385e-07
-3.09604e-10
8.96886e-11
-2.45301e-08
-1.46584e-07
1.10164e-07
1.77655e-07
-1.3601e-07
-1.51809e-07
-5.62738e-08
-9.52206e-08
2.68701e-07
-1.33716e-07
1.51051e-07
-1.27093e-07
1.09758e-07
-1.15747e-07
6.19128e-08
-5.17793e-09
1.06111e-07
-1.03585e-07
-3.34999e-09
8.23919e-10
9.11551e-08
2.3494e-08
1.07101e-08
-1.25359e-07
1.97552e-09
-1.41187e-07
1.36632e-07
3.18149e-08
-2.726e-08
-7.66293e-09
-8.83144e-08
9.55616e-08
4.15746e-10
-1.84327e-07
1.27263e-07
1.69014e-07
-1.10693e-07
-3.63115e-10
-3.3287e-10
1.70009e-09
-1.40585e-09
1.00405e-07
-1.007e-07
3.67188e-08
-1.07083e-07
-1.95555e-09
8.66418e-08
-9.25133e-08
3.35959e-09
2.51189e-09
-7.91588e-08
1.31608e-07
-5.8272e-08
5.82311e-09
1.36097e-07
-7.06466e-08
-6.86865e-08
3.23648e-09
8.57597e-08
-8.58928e-08
-4.10691e-10
-1.03499e-07
-1.8487e-09
1.0759e-07
6.9866e-08
6.60804e-08
-7.08697e-09
-1.28859e-07
-5.36361e-09
1.26704e-07
-1.21988e-07
6.47057e-10
8.23999e-08
-1.39346e-07
-2.98183e-09
1.00715e-07
-1.6725e-08
3.08912e-08
-1.14881e-07
1.37435e-07
-2.12622e-08
-1.5612e-07
3.99475e-08
3.82683e-08
7.54841e-08
-1.12874e-08
5.97674e-08
-1.18444e-07
6.51655e-08
-6.48862e-09
1.26073e-07
-1.27427e-07
-4.15164e-11
-9.23554e-08
1.31581e-07
-2.9179e-08
-1.00468e-08
-1.89721e-07
-1.40378e-07
2.67039e-07
6.30596e-08
-1.06197e-07
3.50367e-09
1.08191e-07
-6.49527e-09
1.25917e-07
-1.33436e-07
-4.9433e-08
5.69519e-08
-1.16343e-07
6.01958e-08
6.21467e-08
-5.99937e-09
-8.5012e-08
-4.56224e-08
-4.51838e-08
-9.55243e-08
9.55776e-08
-4.39149e-11
-9.32112e-12
3.67384e-08
1.60836e-07
-6.14781e-08
9.85098e-08
-5.81365e-08
4.62684e-08
-6.79606e-08
-7.48959e-08
1.3887e-07
3.98634e-09
-4.5804e-10
-2.02329e-07
-3.92625e-10
2.03179e-07
6.999e-08
-4.34149e-08
7.90302e-08
-4.29433e-11
6.15423e-08
-6.14738e-08
-2.55504e-11
-1.76277e-08
1.29817e-07
6.12486e-08
-1.73438e-07
1.57448e-07
-7.94326e-08
-8.2799e-08
4.78346e-09
1.11694e-07
3.48584e-08
-3.34134e-08
-1.13139e-07
1.50061e-07
-7.11351e-08
7.05725e-08
-1.49498e-07
3.24353e-08
1.20718e-08
1.05554e-07
-8.22484e-08
7.84976e-08
-1.49041e-07
1.17479e-07
5.90898e-10
-1.14233e-07
-3.83753e-09
-3.63833e-08
-2.5849e-07
1.79127e-07
7.8047e-08
7.92086e-08
-6.20458e-09
-5.5351e-10
3.82932e-10
8.69582e-08
-8.67876e-08
-1.15871e-07
1.15972e-07
-3.60523e-10
-5.58483e-08
1.11854e-07
5.90709e-09
6.68596e-09
8.10179e-08
-4.42955e-09
-8.32743e-08
-1.18737e-07
5.26653e-08
8.293e-08
-1.6858e-08
-4.10928e-08
-7.51467e-08
-9.45729e-09
-7.64138e-08
1.4932e-07
5.14039e-09
6.73355e-08
7.0275e-08
-1.32856e-07
-4.75489e-09
1.07403e-07
6.34636e-10
-1.07691e-07
-3.47265e-10
-5.18841e-09
-1.35491e-07
-1.26481e-08
1.41713e-07
-2.22141e-09
1.07952e-07
-1.10919e-07
5.36223e-08
-7.16054e-09
9.19247e-08
-5.11141e-10
-9.03374e-08
-1.07613e-09
1.14288e-07
-7.76798e-10
1.25801e-07
-4.2373e-08
7.40198e-08
8.0303e-12
-9.73469e-08
-3.33714e-09
1.05054e-07
-4.36998e-09
8.58473e-08
-4.68526e-08
-8.47997e-08
4.18281e-11
8.49456e-08
-1.87694e-10
-3.25344e-08
-1.26447e-07
1.35511e-07
2.34698e-08
-1.49395e-09
1.22134e-07
-1.20234e-07
-4.06607e-10
-8.13201e-08
-3.40393e-08
1.16125e-07
-7.65427e-10
-4.17372e-09
2.20104e-09
-1.01526e-07
-1.51796e-07
8.18756e-08
7.54988e-08
-5.5785e-09
1.72326e-10
-9.51973e-08
9.52506e-08
-2.25566e-10
1.27511e-07
-4.32656e-10
-3.37886e-11
-1.02585e-07
2.31396e-10
1.02388e-07
-9.14243e-08
1.90833e-08
8.31751e-08
1.21872e-07
-6.68625e-08
4.75811e-09
1.30163e-07
-1.29459e-07
-1.30972e-08
-1.15717e-07
1.30307e-07
1.74493e-08
-3.20395e-08
6.6638e-08
-6.83419e-08
1.39139e-07
3.86293e-09
1.04224e-07
1.39915e-07
-1.19601e-09
-1.40213e-07
6.31603e-08
-1.31832e-07
-3.97816e-09
7.26502e-08
1.3318e-07
-7.343e-08
7.58513e-09
9.41563e-08
-9.21421e-08
-1.05583e-07
5.36128e-08
-2.84222e-08
-1.39385e-07
1.33227e-07
-1.77e-08
2.38579e-08
1.51552e-07
4.1695e-08
-4.19759e-08
-1.51136e-07
-6.85316e-08
-2.75805e-08
7.46125e-08
2.14997e-08
-1.20921e-07
6.35485e-08
-5.00721e-08
1.07445e-07
-1.40405e-07
-2.95009e-09
1.46076e-07
-2.72166e-09
-1.00155e-07
1.87004e-08
-5.89498e-08
-1.51523e-07
-5.9361e-09
8.91481e-08
-1.39712e-09
-1.05612e-07
-4.28432e-10
-1.00476e-07
1.29993e-07
-6.84329e-08
5.74352e-09
1.44756e-07
-7.68198e-08
-7.41486e-08
6.21245e-09
-1.23503e-07
1.66463e-07
-4.27649e-08
-1.95096e-10
7.69929e-08
-7.67932e-08
-1.23703e-07
8.93556e-08
7.11391e-09
-2.3132e-09
6.15093e-10
9.83748e-08
-9.80401e-08
-9.49712e-10
1.75012e-07
-4.44137e-08
-9.57403e-08
-1.00977e-07
1.18583e-07
1.08061e-07
-1.03276e-07
-2.58337e-09
-1.53571e-09
9.60542e-08
-9.46987e-08
1.80205e-10
-8.52016e-09
-1.25311e-07
1.22017e-07
1.18139e-08
-1.30173e-07
1.46435e-07
-9.64775e-09
-6.6147e-09
1.12883e-07
-1.04135e-08
-1.03627e-07
1.01671e-08
-7.15997e-09
-9.02893e-08
8.97864e-08
3.04016e-08
-5.93373e-09
-1.24623e-07
-1.92799e-08
1.03887e-07
-7.85742e-08
-6.03335e-09
1.46502e-07
-6.05011e-09
-1.24591e-08
-1.27993e-07
1.44257e-07
5.10684e-11
-2.04935e-09
-1.42259e-07
1.27687e-07
-1.49407e-09
-1.2042e-10
1.21636e-07
-1.21914e-07
2.29993e-10
4.84585e-11
-1.16096e-07
-7.71409e-08
1.18091e-07
1.95483e-08
-1.57154e-07
-1.0441e-07
1.04353e-07
-1.56718e-11
7.2048e-11
-1.2557e-07
-6.56931e-09
1.96654e-09
-9.61273e-08
-8.66348e-11
9.63397e-08
-1.258e-10
-1.1502e-07
-5.08011e-10
1.15654e-07
-1.25193e-10
-1.31455e-08
1.21198e-07
-9.8331e-08
-7.64031e-09
-9.65538e-08
9.64326e-08
8.74553e-11
2.95749e-08
2.61685e-08
7.29091e-08
-1.28416e-07
6.72962e-08
-6.73813e-08
1.32298e-07
-1.32213e-07
9.71189e-08
-7.67288e-08
-2.2858e-08
2.46787e-09
5.81928e-08
4.22505e-08
-1.01269e-07
3.18044e-09
5.21382e-09
-1.0052e-07
1.14357e-07
-1.90504e-08
-4.16091e-10
9.64469e-08
-9.57409e-08
-2.89915e-10
-1.30536e-07
-8.07107e-09
1.51953e-07
1.8941e-07
-8.12394e-08
1.71591e-07
1.43041e-07
-7.16994e-08
5.65093e-09
-4.21521e-08
2.34076e-08
-9.84692e-08
1.18909e-07
8.13156e-08
8.66692e-08
-7.14838e-09
8.65708e-08
6.7621e-08
-1.48751e-07
-5.44082e-09
7.61472e-08
7.37201e-08
-6.82598e-09
1.1408e-07
-6.97349e-08
7.72907e-08
6.89641e-08
-1.16686e-07
5.4953e-08
-7.23108e-09
2.80007e-10
-9.3221e-08
-7.97874e-10
-2.40628e-11
-2.84218e-07
1.6901e-07
1.34341e-07
-1.01544e-07
1.76765e-08
8.69033e-09
3.97881e-08
4.15593e-08
-9.00377e-08
-1.19623e-07
1.70675e-09
1.19038e-07
-1.12132e-09
-9.24318e-08
9.21034e-08
5.5018e-11
2.73396e-10
1.17874e-07
-1.52723e-07
1.80191e-07
-1.45342e-07
1.38105e-08
-1.44424e-09
1.16687e-07
-2.94336e-08
6.93736e-09
-6.79169e-08
9.04132e-08
-6.71079e-08
1.29256e-07
5.14857e-09
-1.34876e-07
6.96202e-08
7.06067e-08
-5.35143e-09
-1.01935e-07
-2.35359e-08
1.06191e-07
3.51349e-10
7.07248e-08
-1.29719e-10
-7.09464e-08
1.34185e-07
-6.21616e-08
7.17315e-08
1.11331e-09
-7.20548e-11
-5.43696e-11
-8.98316e-08
1.62827e-07
-4.35602e-08
-2.69645e-08
-9.23023e-08
1.85068e-08
2.75829e-08
-1.26137e-07
8.26177e-08
-3.18255e-08
2.06846e-08
1.38878e-07
5.97824e-08
1.53227e-07
-1.75197e-07
-5.85649e-08
-6.25975e-08
5.44557e-09
1.21391e-07
5.44265e-09
-6.66336e-08
-6.6642e-08
1.26504e-07
6.77189e-09
-9.3292e-09
9.191e-08
-1.24454e-07
-2.08033e-10
6.49254e-08
-6.50531e-09
-6.48355e-10
-1.24203e-07
8.8244e-11
1.24763e-07
-1.22932e-07
1.4843e-07
-3.57836e-08
1.01543e-08
-8.53544e-09
4.64326e-08
1.02018e-07
-1.1808e-07
6.8701e-08
-2.45556e-08
7.39344e-08
-1.28977e-07
8.70277e-08
-1.20345e-07
1.18863e-07
2.86361e-10
8.57638e-08
2.0505e-08
-1.52431e-07
-1.9818e-08
1.51744e-07
-1.67714e-07
9.2157e-08
-1.26771e-07
-1.45991e-09
1.51877e-07
2.30239e-08
6.25565e-08
-8.98543e-08
4.274e-09
1.20079e-07
-8.86152e-08
-3.43629e-10
-9.35835e-08
-5.51024e-13
-2.17444e-07
2.17622e-07
-5.70711e-10
-8.82567e-08
-9.13017e-08
-8.74567e-08
9.43297e-08
-1.03427e-07
7.88288e-08
-9.98516e-08
1.57439e-08
5.27887e-09
1.16073e-07
-8.39529e-08
-8.71263e-09
-1.42806e-07
-1.11906e-08
1.96774e-08
1.3432e-07
-2.83906e-07
-3.36169e-10
-1.2263e-07
1.22132e-07
-5.52734e-11
-8.7504e-08
4.30663e-11
4.31429e-12
-1.26913e-08
-8.72956e-08
1.39715e-07
-3.97283e-08
9.93456e-08
4.56562e-09
4.0346e-08
-1.26281e-07
1.2529e-07
-3.36267e-09
-5.98844e-08
1.36372e-07
-8.94562e-08
1.84239e-10
-1.19445e-07
-3.61686e-10
8.64084e-08
-8.796e-08
1.45769e-10
-6.15877e-08
-6.19646e-08
1.15929e-07
7.6229e-09
1.04889e-07
1.64796e-08
-9.02091e-08
-3.11592e-08
-1.67278e-08
1.4168e-07
-1.30333e-07
2.63852e-09
-1.04185e-07
-1.76805e-08
1.187e-07
-4.43827e-11
-1.18697e-07
4.10811e-11
2.22945e-08
6.90041e-09
5.05464e-08
-7.97413e-08
-1.32116e-07
7.05998e-08
-5.11716e-09
-1.07091e-07
1.00982e-07
-7.14251e-09
-2.59065e-10
1.14121e-07
2.18579e-10
-7.46716e-08
-6.72468e-08
1.35571e-07
6.34735e-09
1.21079e-07
-6.41231e-08
-6.24142e-08
5.45849e-09
1.20764e-07
-2.06343e-09
-1.09987e-13
-9.54236e-08
-8.46392e-08
9.25588e-08
-1.12254e-07
-4.29212e-08
-1.44502e-08
1.69555e-07
-9.80252e-08
2.69118e-08
-1.18607e-07
9.64973e-11
-9.75066e-08
4.67737e-10
-4.63743e-10
1.24932e-07
2.37043e-08
-2.52706e-08
-1.23366e-07
4.27485e-08
-1.1906e-07
-9.16893e-11
-1.13648e-10
3.53563e-08
-1.78205e-07
-7.2856e-08
1.21559e-07
8.28786e-08
1.88685e-08
-1.34702e-07
-1.67162e-08
1.3255e-07
-7.64298e-08
6.32706e-09
1.24153e-07
-1.24543e-07
8.66072e-08
3.88983e-08
-9.62358e-10
-4.35563e-10
1.731e-10
-8.9471e-08
6.15681e-08
-4.63143e-09
-1.42645e-09
-2.42483e-09
-2.31741e-09
8.78653e-08
-8.31231e-08
7.60834e-08
9.89863e-08
-9.60978e-08
-7.89719e-08
1.37564e-07
-1.53115e-07
-1.11519e-10
5.0361e-10
1.44815e-07
-9.07905e-09
-1.27486e-07
-3.90102e-08
1.41459e-07
1.04334e-08
1.10986e-07
-1.04822e-07
-5.20088e-09
-9.63205e-10
-6.20311e-10
1.05849e-07
1.54092e-07
-5.35597e-08
-2.02285e-09
8.61333e-08
-7.62529e-08
-5.4302e-10
4.09668e-10
1.30297e-07
-1.3823e-07
2.12246e-09
1.25736e-07
9.24079e-09
-1.1207e-08
1.01261e-07
-1.27415e-07
2.71107e-08
1.00232e-09
8.39651e-08
-7.74525e-10
-8.41928e-08
-1.10867e-07
1.10993e-07
-1.80016e-10
1.13574e-09
-3.06306e-10
-1.05624e-07
1.05022e-07
-1.88646e-11
-1.03987e-07
-1.85959e-10
-1.20119e-11
6.6368e-08
-9.43546e-08
-7.11519e-08
9.91385e-08
8.59417e-12
-1.09174e-07
1.09327e-07
-1.61522e-10
-5.01731e-08
1.34584e-07
-5.68158e-08
-1.7887e-08
-1.30628e-07
6.86534e-08
-6.55671e-09
2.61952e-08
-1.49551e-08
9.97462e-08
-1.27887e-07
6.12425e-08
5.94838e-08
7.16061e-09
-1.465e-07
-1.01964e-07
1.04487e-07
-1.17846e-07
-4.02119e-08
5.357e-08
1.21768e-07
-1.22138e-07
1.89099e-10
1.80869e-10
-1.32747e-09
-1.69492e-07
1.92311e-10
1.70627e-07
-9.7136e-08
8.60967e-12
9.7083e-08
-1.19005e-07
1.1359e-10
1.94225e-10
6.73493e-08
-1.19434e-07
-6.47994e-09
-5.32891e-11
-1.21707e-07
-1.53985e-10
7.13901e-08
7.07692e-08
-5.52728e-09
-6.87987e-08
-6.91451e-08
1.31767e-07
6.17643e-09
-1.09993e-07
1.10193e-09
1.0898e-07
-8.83383e-11
1.16166e-07
2.85237e-08
1.03307e-07
-1.51633e-08
1.01807e-07
-5.09983e-09
-9.39351e-08
4.41724e-08
4.24949e-08
7.2677e-09
8.76848e-08
1.18707e-07
-9.86429e-08
-1.04468e-07
6.76687e-08
-6.57857e-08
-1.21437e-07
-9.71724e-08
1.06462e-07
1.12148e-07
1.02705e-07
-1.9655e-10
1.08354e-07
-1.0949e-07
1.26894e-09
-1.32717e-10
-1.21317e-07
-1.2105e-07
7.10489e-10
1.05935e-10
1.55322e-08
4.11555e-08
-1.53068e-07
1.3869e-08
-3.93595e-08
1.8054e-07
1.24082e-07
-6.08016e-08
-6.8511e-08
4.3962e-09
1.78297e-08
-1.94014e-08
1.22284e-07
-3.04771e-08
-7.24054e-08
1.00325e-07
-6.48249e-10
-9.94858e-08
-1.91422e-10
-3.76437e-08
-1.33694e-07
2.65233e-07
-9.38957e-08
9.85927e-08
-7.45638e-08
-1.00504e-09
2.38791e-10
9.64967e-08
-2.88518e-10
6.74928e-08
-6.7719e-08
1.10625e-07
-1.42045e-07
-1.1969e-07
7.2887e-08
1.16423e-07
-1.74157e-09
-2.85328e-08
-7.51438e-08
6.65314e-08
7.90264e-08
8.53452e-09
9.54929e-08
-1.18562e-07
1.9324e-09
1.38245e-07
-7.39958e-08
6.35758e-09
1.09322e-07
-1.41705e-07
1.26635e-07
-8.36266e-08
-2.89138e-08
-1.34025e-08
2.02951e-09
9.52914e-08
-1.05841e-07
6.34136e-08
-1.19923e-07
-5.07794e-09
1.39589e-07
1.47554e-08
-4.02498e-08
1.16338e-07
-7.53373e-08
-2.39762e-09
-2.40216e-08
1.29759e-07
-1.45155e-07
3.94174e-08
1.08025e-07
1.8862e-08
-5.14033e-08
1.01158e-10
-1.15127e-07
1.14081e-07
-9.88036e-10
-2.76674e-08
2.12358e-08
-9.02816e-08
9.67131e-08
7.07314e-08
-1.32188e-07
-5.18544e-09
-1.26368e-07
1.26529e-07
-2.14287e-10
-7.22456e-08
1.47482e-07
-1.12881e-07
-6.77353e-08
-7.53209e-08
1.66097e-08
-9.49842e-08
1.82772e-11
2.02652e-07
-2.32347e-08
-8.25749e-08
-1.0025e-07
-6.88183e-08
1.23601e-07
2.12256e-07
-1.4728e-10
-8.32892e-08
-4.42921e-11
8.34808e-08
2.97986e-08
1.05669e-07
-1.00355e-09
1.38675e-07
5.6021e-09
9.0098e-08
5.36152e-08
2.72225e-09
6.84761e-08
-1.32022e-07
-5.25233e-09
-6.8158e-08
-7.70454e-08
1.36184e-07
9.01927e-09
-8.58561e-08
-4.13013e-09
-3.94886e-09
-3.30901e-10
-1.20394e-07
1.04545e-07
-3.45694e-11
-1.14114e-07
-2.99073e-09
1.11741e-07
-8.20216e-08
-1.26199e-07
8.9119e-08
1.19102e-07
-1.05382e-07
3.66864e-08
7.18766e-08
-3.18051e-09
6.53594e-08
6.53857e-08
-1.23866e-07
-6.87958e-09
-6.7032e-08
-6.43106e-08
1.25075e-07
6.26791e-09
4.88371e-08
4.52421e-08
-1.03984e-07
9.90459e-09
-6.27319e-08
1.04384e-07
-3.39388e-08
-7.71333e-09
9.96491e-08
-1.00027e-07
-2.70386e-10
-8.74509e-08
3.85282e-10
7.64367e-08
9.75713e-08
-2.62402e-08
-1.47768e-07
-2.87263e-08
8.22054e-08
3.57043e-08
-8.91834e-08
-9.28257e-08
3.51524e-11
9.42895e-08
-1.49889e-09
-6.87301e-08
-3.93954e-08
8.87241e-08
1.16478e-07
-3.26281e-09
6.56083e-08
-1.22106e-07
6.13466e-08
-4.84907e-09
-4.87089e-08
3.17612e-08
-1.06997e-07
1.10424e-08
1.25237e-07
-9.70138e-08
-3.9561e-08
1.26553e-07
7.38827e-08
-6.86363e-08
7.49449e-10
-1.15688e-07
-8.20991e-11
7.05451e-08
-5.73285e-08
9.56444e-08
-1.11336e-07
5.33794e-08
5.06797e-08
7.2766e-09
6.84167e-08
-4.46388e-09
3.66791e-08
5.97768e-08
7.43155e-09
8.5823e-09
1.17103e-07
-9.26259e-09
-4.96866e-09
-7.65121e-08
7.46335e-08
1.24163e-07
-6.92866e-08
-1.44712e-07
1.45312e-07
1.52086e-07
5.53956e-08
-5.24588e-08
-1.55022e-07
1.33592e-08
-1.19896e-07
1.28832e-07
-7.31584e-08
-6.76306e-08
1.34506e-07
6.28288e-09
-4.16927e-08
-9.87605e-08
1.60305e-09
6.36333e-08
-6.49672e-09
1.22392e-07
-3.72939e-10
-2.51198e-10
2.05546e-08
-7.99445e-08
8.5585e-08
2.46145e-10
1.65293e-10
-1.2678e-07
-6.94012e-10
8.61967e-08
-8.45328e-08
1.08776e-08
-7.81577e-08
1.33551e-07
-6.62706e-08
-2.57648e-08
-1.25344e-07
1.10847e-09
1.5e-07
8.61462e-08
-1.66067e-07
6.53047e-08
1.46164e-08
-1.16075e-07
8.44856e-08
-9.10408e-08
9.50925e-08
-4.53305e-10
-9.4205e-08
-4.34238e-10
-4.27239e-08
-1.21772e-07
4.32886e-08
1.21207e-07
-6.89199e-08
-1.13811e-07
1.39974e-07
4.27573e-08
-2.89539e-09
-1.33999e-07
1.34477e-07
2.41673e-09
-1.1794e-07
1.17952e-07
-1.33945e-09
-1.32991e-07
1.17541e-07
-5.94806e-08
1.27476e-07
6.65223e-08
-5.51893e-09
7.12513e-08
-1.28526e-07
-5.94113e-08
-1.18596e-07
8.1105e-08
-9.46258e-08
-1.30396e-08
1.31423e-07
-8.11711e-08
-3.28126e-08
1.14076e-07
-1.12197e-07
-3.08874e-09
1.20975e-09
-9.13121e-08
-2.26925e-09
3.74972e-09
1.13869e-10
-1.39942e-07
1.36932e-07
-8.60872e-08
-6.20647e-10
8.51758e-10
-8.65846e-08
7.28249e-08
1.41523e-08
-3.92536e-10
-5.16333e-08
-1.23812e-07
1.66429e-07
9.01697e-09
1.08986e-07
-5.35941e-10
5.39426e-08
4.51225e-08
-1.08313e-07
9.24755e-09
-1.03836e-07
-3.70729e-10
1.04103e-07
1.03554e-10
-1.00557e-07
1.39064e-08
-2.28396e-08
5.93347e-08
-1.15435e-07
4.86451e-08
7.45556e-09
-4.37659e-09
-8.82431e-08
4.36296e-09
1.37202e-09
-1.24737e-07
1.92762e-09
5.09529e-08
6.96562e-08
-1.41029e-07
1.9968e-08
1.10014e-07
1.90647e-08
1.20677e-07
-1.21168e-07
7.47085e-10
-2.56094e-10
-1.91724e-07
1.80799e-07
8.06523e-08
-6.97276e-08
5.24512e-08
-1.35942e-07
1.04201e-07
-2.07101e-08
6.95067e-08
-6.30766e-09
-6.70713e-10
1.78004e-10
5.48141e-08
-5.7936e-08
-1.08356e-07
1.52579e-07
-1.25543e-07
1.05869e-07
-1.44674e-08
5.15107e-10
-1.40339e-07
1.40063e-07
1.20115e-07
-1.46547e-07
-1.2355e-09
-8.12892e-08
-7.76029e-08
1.52779e-07
6.11257e-09
8.97939e-08
5.45572e-11
-8.97882e-08
-6.02891e-11
-1.37796e-07
7.37364e-08
6.87217e-08
-4.66226e-09
-1.8551e-07
1.14892e-07
-1.28786e-07
1.99405e-07
-1.78306e-07
2.39175e-08
-4.28793e-08
-1.05241e-07
-1.52231e-07
9.28337e-08
3.53757e-08
-1.33255e-08
-1.19547e-07
1.30299e-07
2.57372e-09
-2.94661e-09
-1.04285e-07
-8.86455e-09
1.1436e-07
-9.64887e-08
1.03807e-07
-2.96912e-08
1.57384e-07
6.9539e-08
1.7009e-07
-1.19e-07
-1.13809e-07
5.23341e-10
1.12944e-07
-1.13413e-07
-5.44651e-11
9.60502e-08
-1.04371e-07
3.94406e-09
-7.56871e-08
-7.35251e-10
6.4965e-08
9.8982e-08
-4.15547e-08
6.06802e-08
-1.15623e-07
-4.53755e-09
-4.83533e-11
1.09927e-07
-1.0979e-07
-8.9222e-11
-1.13823e-07
-1.80623e-10
1.14585e-07
-5.81367e-10
-1.14987e-07
4.15522e-08
-3.13875e-08
-1.11226e-08
9.30055e-08
7.54391e-08
-1.18789e-09
-1.67257e-07
2.42069e-09
-1.53886e-10
-1.62308e-08
7.75003e-08
-1.38954e-07
7.76842e-08
-1.20357e-07
1.22099e-07
6.27762e-08
-6.1858e-09
2.54179e-08
-1.24775e-07
-3.52287e-08
1.34586e-07
4.07207e-08
1.14395e-08
3.44856e-08
-8.66457e-08
6.62709e-08
7.19278e-08
-1.32051e-07
-6.14758e-09
-1.00422e-07
9.87837e-08
1.80247e-09
-1.64201e-10
-6.508e-08
7.16467e-09
5.33676e-08
-5.12787e-08
1.19125e-07
-1.21213e-07
-9.93886e-08
2.09027e-07
-4.33461e-08
-6.62923e-08
8.16926e-08
-6.9833e-08
-7.09851e-08
5.91255e-08
6.52091e-08
-5.36853e-08
-1.32458e-07
5.103e-08
9.18267e-09
5.55484e-08
7.64688e-08
7.21259e-08
7.36308e-08
-1.39408e-07
-6.34842e-09
1.29022e-07
7.6863e-09
-5.68917e-09
-1.31019e-07
9.97116e-08
9.02986e-10
-2.8913e-10
9.39761e-08
-9.54704e-08
2.08843e-09
-5.9415e-10
-6.3314e-08
-7.48516e-08
1.31034e-07
7.13136e-09
-1.16872e-07
1.4421e-09
4.43064e-10
-1.041e-07
7.57276e-11
1.88453e-10
1.08569e-08
1.18072e-07
1.08167e-07
1.89818e-09
-1.07901e-09
1.0062e-11
-9.92318e-08
9.8851e-08
9.46851e-08
1.68397e-08
2.55119e-09
-1.08523e-08
3.4594e-08
-1.1551e-07
9.1768e-08
1.21561e-07
-1.21336e-07
1.74394e-12
-2.26198e-10
-2.84228e-08
-1.13046e-07
1.65386e-07
-1.14914e-07
-1.87364e-08
1.3819e-07
-4.53926e-09
1.47865e-07
-1.25891e-07
-2.18937e-08
-1.92644e-08
1.22851e-07
1.22285e-07
-1.22774e-07
2.72227e-10
2.17141e-10
1.44745e-07
-4.43051e-08
-1.42676e-07
4.22363e-08
1.18938e-07
-1.19162e-07
1.41531e-07
-1.41307e-07
8.50252e-09
-1.18297e-08
-9.49592e-08
9.82864e-08
2.59365e-08
-9.88833e-08
-4.20017e-08
1.14948e-07
8.27247e-08
7.5935e-08
-1.52176e-07
-6.48404e-09
1.95755e-07
-2.06313e-07
-4.60342e-08
-1.61699e-07
1.00279e-07
-1.2538e-08
1.19709e-08
-1.77729e-07
1.54314e-07
-8.20489e-08
1.27671e-07
-2.17273e-07
1.71651e-07
7.74012e-08
-1.53299e-07
-6.15157e-09
1.98816e-08
8.66255e-08
-1.49671e-08
-9.154e-08
-1.25625e-09
1.27939e-07
-1.39352e-08
-1.10574e-07
-5.67668e-08
1.47893e-07
-1.03127e-07
1.20009e-08
-2.69478e-08
7.78923e-08
-4.34604e-08
-7.48401e-09
2.48258e-10
-9.76064e-08
9.76988e-08
-3.40644e-10
2.61238e-09
1.19999e-07
-1.2151e-07
-1.10074e-09
-9.83473e-08
-1.20872e-07
1.3292e-07
9.13626e-08
2.03797e-09
9.50416e-08
1.63726e-09
-4.58062e-08
-4.23442e-08
1.22573e-07
-2.26769e-07
5.40863e-08
-1.46981e-07
1.15937e-07
-6.83448e-08
1.18311e-07
-1.15319e-07
-3.79287e-10
-9.40822e-08
1.57781e-09
-2.33925e-09
9.48436e-08
5.94705e-08
-1.81637e-07
-1.42493e-07
-1.9682e-10
1.23075e-07
-1.22743e-07
-1.3511e-10
-1.0438e-07
-3.66118e-08
1.33722e-07
5.42658e-09
-8.69902e-09
1.06803e-07
-9.56391e-08
-1.07123e-08
1.38152e-07
-1.144e-07
5.20797e-10
5.67783e-11
6.17392e-08
-1.48866e-07
8.09334e-08
6.19341e-09
-1.41104e-09
-1.06208e-07
-1.5403e-09
1.23423e-07
5.62366e-09
-1.02609e-07
5.21601e-08
4.85658e-08
1.88272e-09
-1.01782e-07
2.80796e-08
1.38912e-07
3.46747e-10
1.31278e-07
-6.74524e-10
-1.3095e-07
6.02023e-09
1.16162e-07
-2.4786e-08
-9.73959e-08
1.37503e-07
-1.5591e-07
8.12497e-08
-6.28424e-08
4.48382e-08
1.12817e-07
-5.53879e-08
-6.47608e-09
8.08096e-08
8.15098e-08
-1.49753e-07
-1.3954e-08
-6.13982e-09
1.04145e-07
-1.25586e-07
1.13013e-07
1.64066e-10
-1.13497e-07
3.20659e-10
6.96438e-09
9.65858e-08
-4.20459e-09
7.54329e-08
-1.87473e-07
3.00181e-08
-1.27196e-07
2.36899e-09
-7.19465e-08
-6.17856e-08
1.27189e-07
6.5436e-09
-1.035e-07
-4.79268e-08
3.2827e-08
1.18599e-07
-1.15653e-07
-6.02539e-10
-6.16982e-10
-6.70202e-08
1.41865e-07
-8.05245e-08
5.68015e-09
7.27825e-08
-1.43769e-07
7.39824e-08
-2.99565e-09
-1.09625e-07
-2.80525e-10
9.97534e-08
-1.02329e-07
4.47716e-09
-1.90136e-09
1.45771e-07
-8.15873e-08
8.5986e-09
-1.1221e-07
1.86569e-08
-1.86434e-08
5.69702e-08
-9.40525e-08
-2.10542e-08
1.21595e-07
-1.2083e-07
-2.49888e-10
6.66372e-08
5.87756e-08
-5.9511e-08
-6.59018e-08
7.6367e-08
1.41988e-07
-1.52995e-07
7.60508e-08
6.55343e-08
-1.36892e-07
-4.69311e-09
-1.13936e-07
6.00707e-08
4.63122e-08
7.55321e-09
1.40917e-10
1.22043e-07
1.01095e-10
7.70438e-08
7.20381e-08
-1.43213e-07
-5.86918e-09
1.01093e-07
1.14112e-07
-9.43991e-09
-1.01262e-07
-3.41005e-09
9.29985e-08
9.58954e-11
1.41156e-07
-1.42937e-07
-7.7397e-08
7.91776e-08
4.85183e-08
5.80772e-08
7.51659e-09
-6.25024e-09
-1.69644e-07
1.80275e-08
9.30899e-08
-3.61672e-09
5.91885e-09
1.45978e-07
1.25194e-07
-2.11837e-07
-1.18161e-07
1.06035e-09
-1.40039e-09
1.18501e-07
5.58712e-10
9.74027e-08
-9.78981e-08
-6.33413e-11
-7.63646e-08
1.7333e-07
-1.70124e-07
5.08948e-08
1.18141e-07
-6.3241e-08
-1.05794e-07
4.49516e-08
5.75578e-08
-1.09778e-07
7.26879e-09
1.43182e-07
-1.04287e-08
2.0026e-08
-1.29196e-07
-5.68153e-09
3.62118e-08
-1.25468e-07
-1.87335e-08
-9.02892e-08
-1.07808e-07
1.02833e-07
1.96226e-08
-4.97598e-09
-1.95015e-08
9.4648e-08
2.76864e-08
8.64386e-08
-7.52825e-08
-1.92867e-09
1.21916e-07
3.00083e-09
1.68644e-10
2.66574e-10
-2.10548e-07
-1.53357e-08
-1.77385e-10
1.57063e-07
1.50855e-08
-1.64767e-07
-1.20574e-08
2.60497e-07
-1.15149e-07
-1.33291e-07
-1.59752e-07
1.302e-07
1.09697e-07
-1.38247e-07
-6.49552e-08
7.09558e-08
-7.2695e-08
6.66943e-08
1.14583e-07
-1.17861e-07
-3.46546e-09
6.7429e-09
-3.62746e-09
-6.13618e-08
7.55775e-08
-1.73967e-07
-7.66109e-08
6.22712e-08
3.03158e-08
-1.16651e-07
2.47738e-07
-4.02697e-08
-9.59578e-08
-1.26385e-08
-7.38193e-08
1.48266e-07
1.92015e-09
-3.19128e-08
-6.81346e-08
8.61144e-08
1.3933e-08
3.75644e-08
-1.68599e-07
7.6622e-08
5.44128e-08
-1.04022e-07
1.03888e-07
-5.46914e-11
1.88672e-10
8.99486e-08
-3.01947e-10
1.28484e-08
1.19893e-07
1.09688e-07
-6.96824e-09
-8.14834e-08
-1.4954e-07
1.81036e-08
8.94456e-10
1.31002e-07
-8.24927e-08
1.26675e-07
-4.08063e-08
-5.90804e-09
2.89675e-09
1.21903e-07
-2.88354e-09
1.00073e-07
3.73096e-08
-1.46903e-07
-2.82021e-08
-1.19675e-07
-1.03333e-07
-8.09883e-08
4.15145e-08
-1.10532e-08
1.05766e-07
-8.10529e-09
-9.01129e-08
-1.02818e-07
-3.43136e-09
9.09535e-08
-1.16595e-07
9.61073e-08
-5.83917e-10
-9.4932e-08
-5.91319e-10
-2.4503e-08
-1.41803e-07
-1.69156e-07
1.68646e-07
1.095e-07
-4.61846e-08
1.20245e-08
-7.53398e-08
1.09327e-07
-5.56304e-10
-1.08681e-07
-8.97518e-11
1.04043e-09
9.93196e-08
-1.00565e-07
2.04586e-10
2.76786e-08
1.15474e-07
-3.49857e-08
-7.54911e-08
-7.88712e-08
1.05929e-08
7.36022e-09
1.04624e-07
-1.07987e-07
-3.99677e-09
-1.18753e-07
1.28648e-07
-2.53489e-09
-1.28467e-07
-3.00507e-09
-1.4085e-07
1.4264e-07
-5.34015e-08
-8.05643e-08
1.39842e-07
-5.87573e-09
1.02277e-07
-1.45231e-08
6.60543e-10
-2.09638e-10
4.38222e-08
1.13381e-08
-3.4577e-10
-5.61893e-10
7.1972e-08
7.88788e-08
-6.10568e-09
-3.18269e-08
9.58437e-08
7.42743e-08
-2.66228e-07
-8.7679e-08
2.26745e-07
1.26635e-07
1.21486e-07
-5.15885e-08
-7.69229e-08
6.23577e-09
-4.5107e-10
-1.2039e-07
-3.26778e-10
5.25147e-08
6.12457e-08
-1.12591e-07
-1.16958e-09
-1.10024e-07
1.09894e-07
1.48256e-10
-1.87287e-11
1.01242e-07
3.044e-08
-1.28189e-08
1.35401e-09
1.83665e-07
-4.22024e-09
-5.08678e-08
-7.8672e-08
-2.91837e-09
-9.45763e-08
-2.1599e-08
7.1382e-10
1.01424e-07
-1.01235e-07
7.38907e-08
-1.79692e-07
1.02782e-07
-9.75144e-10
-5.65286e-10
6.72881e-08
6.14509e-08
-1.25319e-07
-3.41992e-09
-1.53551e-07
7.69349e-08
-2.14132e-08
-2.48225e-08
-3.37674e-08
1.18512e-07
-5.99225e-08
-2.74337e-08
6.76654e-08
2.84901e-08
-1.31459e-07
-8.48539e-08
8.894e-08
1.27373e-07
7.27184e-08
-5.90096e-09
6.23615e-08
1.22642e-07
-5.11139e-08
-1.33889e-07
-3.47475e-09
1.08846e-07
1.39259e-08
-1.19297e-07
1.03732e-07
-8.84368e-08
-1.91384e-08
3.84291e-09
1.3348e-07
-1.78284e-07
1.64803e-07
1.35534e-07
-6.5978e-08
-6.31411e-08
-6.41442e-09
3.96185e-08
-1.59183e-07
-1.12688e-07
-1.15383e-07
-1.68161e-10
-1.76032e-07
1.48828e-07
-1.53511e-07
1.80716e-07
8.18492e-08
-1.40036e-07
-2.55881e-08
1.14151e-07
-1.1329e-07
-4.85e-10
-3.76563e-10
5.67178e-08
-1.12383e-07
-5.69672e-09
-6.16357e-09
8.25425e-08
-1.6887e-07
7.02914e-08
-1.27747e-07
-1.28173e-10
2.64403e-10
1.27611e-07
-1.68842e-07
1.26645e-07
-8.28931e-08
-7.97116e-08
-2.91933e-08
-6.78048e-09
5.63058e-08
6.58565e-08
-6.22501e-09
-5.06574e-08
-5.77922e-08
-5.48654e-09
-3.4466e-09
-9.61506e-08
-9.59865e-08
-1.00269e-09
-5.61949e-09
6.66893e-08
-6.61499e-08
4.72075e-10
-1.01146e-09
1.02178e-07
-1.00367e-07
-1.20067e-09
-6.10878e-10
-1.12828e-09
1.21086e-07
-1.19742e-07
-2.15603e-10
-1.25883e-07
1.31554e-08
1.0684e-07
5.88759e-09
1.19551e-07
-1.13632e-07
-4.01578e-09
-1.90305e-09
-1.02291e-07
-1.02652e-09
1.0393e-07
-6.12741e-10
-9.76805e-08
-5.95259e-08
9.06594e-08
3.1867e-08
-9.00239e-09
-1.13524e-07
7.23785e-08
-7.66259e-08
3.4254e-09
8.22069e-10
4.22799e-08
3.51403e-08
-1.20144e-07
1.03716e-07
-1.0094e-07
-7.0297e-09
4.25361e-09
-4.81703e-08
4.9011e-08
1.42979e-07
4.72413e-09
1.19981e-07
-8.98922e-08
1.14637e-08
-2.61831e-08
-1.06394e-08
-9.46364e-08
-3.1721e-08
1.82109e-07
5.59592e-09
-1.56909e-07
1.22098e-07
-3.13595e-08
-1.83063e-08
2.04742e-08
-7.49579e-08
5.50486e-09
-1.1765e-07
1.17656e-07
5.56399e-08
-6.66527e-08
-2.83827e-08
7.39296e-08
2.41217e-09
6.26033e-08
5.52751e-08
-7.71578e-08
-7.77015e-08
1.07125e-07
-1.19744e-08
-6.60093e-08
5.50434e-09
8.8059e-08
1.07185e-08
2.10174e-08
2.27926e-08
-9.87706e-09
4.88795e-08
5.70162e-08
6.92124e-09
-4.5785e-08
1.49928e-07
-1.55777e-07
-1.62323e-07
8.11497e-08
2.05936e-07
-1.38538e-07
9.93992e-08
-2.97058e-08
5.71019e-08
-1.26795e-07
-1.16658e-07
-4.02313e-08
-1.35494e-07
-5.34597e-09
-9.4772e-08
7.54172e-08
-8.28198e-08
1.02175e-07
7.60092e-09
-1.11141e-07
-1.31842e-07
-6.94384e-09
-4.15016e-09
-1.19546e-07
1.0813e-07
1.15148e-07
1.83442e-08
9.78076e-08
1.98394e-09
-1.24528e-07
1.15125e-07
-7.94385e-08
8.88409e-08
-9.72521e-08
1.24323e-08
-1.928e-08
-3.27448e-08
-4.31283e-08
1.33527e-07
-4.76178e-08
-1.05747e-07
-4.00157e-08
1.20688e-08
-6.69101e-08
-8.00049e-08
7.52985e-09
-6.54689e-08
7.52075e-08
7.51287e-08
2.17955e-08
3.97841e-08
-1.36708e-07
8.86005e-08
-1.27321e-08
-6.33627e-08
-5.3972e-09
-7.5549e-08
-8.34251e-08
5.42308e-09
5.96614e-08
-6.84553e-08
-4.57488e-08
5.45428e-08
-4.75817e-08
-8.19228e-09
1.36332e-07
-1.72238e-07
3.6318e-08
-4.12099e-10
-7.44986e-09
2.51929e-08
7.42492e-08
-9.19922e-08
4.5935e-10
-8.81294e-08
-6.33957e-10
8.8304e-08
-9.56651e-08
9.53994e-08
1.95511e-10
7.01632e-11
1.21582e-07
-6.73916e-08
-1.23336e-07
-5.84724e-08
-3.62335e-08
9.63441e-08
-1.63812e-09
1.43697e-07
1.08235e-08
-1.0838e-07
5.21567e-09
-1.29656e-07
1.63235e-08
-3.36222e-10
-1.77636e-07
-1.08934e-07
1.09156e-07
-3.50067e-10
4.77168e-08
1.01967e-07
-1.35609e-07
-1.15586e-08
-1.48671e-08
2.18489e-07
-3.83756e-10
-1.24633e-07
-3.34661e-09
9.29481e-08
-9.19125e-08
-3.32995e-11
-6.41379e-09
1.54755e-08
2.46103e-08
1.14101e-07
-1.81108e-08
1.09489e-07
-8.87794e-09
-3.11041e-09
1.19494e-07
-1.14968e-07
-1.41484e-09
-1.00634e-07
1.11488e-07
-5.99381e-09
1.13866e-07
4.97951e-09
-2.96342e-08
-8.92114e-08
1.10868e-07
1.45307e-09
-1.1037e-07
-1.95107e-09
-6.6629e-08
-5.04323e-08
6.61934e-08
8.4892e-08
1.67888e-09
1.46999e-07
1.8226e-08
-3.34581e-08
-1.37552e-08
3.53696e-09
-7.3071e-08
1.151e-07
-1.61519e-07