/*--------------------------------*- C++ -*----------------------------------*\
| =========                 |                                                 |
| \\      /  F ield         | OpenFOAM: The Open Source CFD Toolbox           |
|  \\    /   O peration     | Version:  2212                                  |
|   \\  /    A nd           | Website:  www.openfoam.com                      |
|    \\/     M anipulation  |                                                 |
\*---------------------------------------------------------------------------*/
FoamFile
{
    version     2.0;
    format      ascii;
    arch        "LSB;label=32;scalar=64";
    class       volVectorField;
    location    "0.01";
    object      U;
}
// * * * * * * * * * * * * * * * * * * * * * * * * * * * * * * * * * * * * * //

dimensions      [0 1 -1 0 0 0 0];

internalField   nonuniform List<vector> 
31639
(
(0.112579 0.000618745 -0.000491781)
(0.111391 -0.000256664 0.000202345)
(0.112212 -0.000214001 0.000378488)
(0.11338 0.000175628 0.000127719)
(0.111632 -0.000537816 -5.70404e-05)
(0.111771 0.0001634 -0.000160416)
(0.110435 2.44597e-05 -0.000291131)
(0.111979 -0.000139985 -0.000133593)
(0.112109 0.000207702 -0.000104249)
(0.112912 -0.00017153 -0.000282986)
(0.113153 0.000284838 -0.000201162)
(0.112738 -0.000353237 -0.000470188)
(0.111732 -0.000119159 1.60266e-06)
(0.11262 3.67296e-05 -7.73978e-06)
(0.111016 -0.000332823 4.9845e-05)
(0.110535 -0.000135155 0.000424739)
(0.111652 0.000115252 -0.000184314)
(0.110365 -5.1422e-05 0.000119533)
(0.110756 0.000219321 -0.000272023)
(0.111889 2.07906e-05 -0.000289331)
(0.108101 -0.000137544 -2.90312e-05)
(0.112729 -1.669e-06 -0.000102673)
(0.112717 0.000305447 6.15178e-05)
(0.111029 0.000227905 -0.000170943)
(0.110133 -0.000121242 -0.000170113)
(0.112071 0.000120361 -0.000127426)
(0.111902 -1.40447e-05 6.8548e-05)
(0.114672 0.000372434 0.000132836)
(0.110624 0.000255979 0.000598198)
(0.112451 0.000127519 0.000374952)
(0.112988 -7.12825e-05 -8.32745e-05)
(0.110337 -5.52056e-05 -0.000145781)
(0.112921 0.000288171 -0.000432741)
(0.110841 3.55241e-05 -0.000252547)
(0.108881 -0.000159386 -5.17624e-06)
(0.112826 0.000432685 -0.000157622)
(0.107272 -7.75271e-05 1.06513e-05)
(0.11324 -0.000245328 0.000172963)
(0.112939 -7.75805e-05 5.33476e-05)
(0.107269 0.000101412 -0.000112501)
(0.109412 -2.85531e-06 -0.000100337)
(0.108475 -8.66949e-05 0.00011735)
(0.11269 7.07965e-05 -2.93513e-06)
(0.113181 -0.000602418 -0.000549505)
(0.112371 -0.000320291 0.000423187)
(0.113497 -0.00053908 -0.000274856)
(0.11057 0.000314673 -8.71353e-05)
(0.111257 0.000457897 -0.000287015)
(0.111569 8.37836e-05 0.00024542)
(0.113078 -0.000308229 -0.000115353)
(0.113303 1.74277e-05 -0.000133682)
(0.107953 0.00022507 -0.000157577)
(0.113124 0.000178038 0.000141932)
(0.107435 -5.21394e-05 9.51263e-05)
(0.111617 -0.000106488 -0.00018366)
(0.111329 0.000132824 -2.17831e-05)
(0.10848 0.000225794 -0.000336165)
(0.111801 0.000112382 0.000299269)
(0.111689 -3.28629e-05 0.000371877)
(0.108821 4.9957e-05 -0.000116123)
(0.112062 5.64721e-05 -0.000146933)
(0.112411 0.000260333 -0.000313733)
(0.110068 -0.000113516 -0.000200471)
(0.111844 9.97214e-05 -0.00010398)
(0.111993 0.000204637 7.54914e-05)
(0.113342 6.17671e-05 -0.000341599)
(0.111644 0.000127192 -0.00064307)
(0.111724 -6.65983e-05 -5.99695e-05)
(0.109437 -1.89434e-05 7.92317e-07)
(0.113147 0.000352329 -0.000153612)
(0.11302 -0.000101939 8.06062e-05)
(0.110516 -0.000216412 -0.000557487)
(0.113012 -0.000254699 -0.00043712)
(0.111974 -7.58366e-06 -0.000179749)
(0.112308 7.40525e-05 -5.19981e-05)
(0.10795 1.07377e-05 -0.000274288)
(0.113259 -0.000505875 0.000245822)
(0.111133 0.000261043 -0.000254294)
(0.111592 -0.000111372 0.000278657)
(0.112489 0.000149714 6.34249e-06)
(0.11033 0.000168455 9.37188e-05)
(0.106497 5.07381e-05 9.32446e-05)
(0.113123 -3.58873e-05 -0.000188074)
(0.112356 -0.000159693 -0.00010528)
(0.112108 -1.43295e-05 -7.8574e-05)
(0.113115 -0.00035898 -0.000205757)
(0.113347 1.30957e-05 0.000112272)
(0.113356 5.68581e-05 -0.000134819)
(0.108707 0.000688178 -0.000987153)
(0.112969 9.53731e-05 -0.000383926)
(0.112259 -2.04264e-05 5.81819e-05)
(0.111058 -0.000292048 -0.000190331)
(0.108983 -0.000148703 -0.000282893)
(0.111342 0.000299821 -0.000341865)
(0.110165 -0.000565322 -0.000241637)
(0.111031 0.000748347 8.20267e-05)
(0.111775 0.000345854 -0.000277961)
(0.111918 -0.000116338 0.000309586)
(0.111906 6.59995e-05 -3.64171e-05)
(0.10866 -0.000423196 -0.000315431)
(0.112102 0.000147141 -0.000111444)
(0.112174 0.000306245 0.000402897)
(0.111092 -3.3665e-05 -0.00013998)
(0.107797 -4.32063e-05 -8.22519e-05)
(0.10873 0.000107007 -0.000323013)
(0.11359 -0.000332069 -0.000322181)
(0.107773 0.00037074 -0.000255132)
(0.108208 -0.000167796 -0.000560533)
(0.109791 0.000356728 0.000134777)
(0.107526 -1.53927e-05 0.000192286)
(0.112691 -0.000437983 8.72492e-05)
(0.108974 0.000131056 -0.000209803)
(0.111511 -0.000231929 -0.000288369)
(0.110725 -0.000372077 -0.000346004)
(0.112163 9.25048e-05 -0.000398067)
(0.108103 -0.000217061 6.23824e-05)
(0.110941 0.000218348 -7.72169e-05)
(0.110645 -0.000381914 2.32496e-05)
(0.112037 -0.00010597 7.54501e-06)
(0.111604 -8.71e-05 0.000134203)
(0.111847 -0.000371857 1.92021e-05)
(0.112917 -0.000318449 0.000301494)
(0.113166 0.000159244 -0.000275869)
(0.112002 0.000301773 -0.000571488)
(0.111994 9.24663e-05 -0.000560097)
(0.11263 -0.000185749 -5.25573e-05)
(0.111689 0.00010011 0.000286312)
(0.110109 0.000322433 -7.23676e-05)
(0.110076 -0.000328795 -0.000142053)
(0.112892 -9.56512e-05 0.000106691)
(0.112661 -5.56983e-06 -7.76641e-05)
(0.11282 0.000222799 -0.000279256)
(0.112708 -0.000143897 2.50009e-06)
(0.11151 1.5438e-06 7.68186e-05)
(0.112621 2.1236e-05 -9.3277e-05)
(0.112112 8.38122e-05 -2.50335e-05)
(0.108663 1.1949e-05 -0.000211435)
(0.108292 -0.00053061 -0.000290615)
(0.11321 0.000442945 0.000381093)
(0.111945 -0.000207741 -0.000129245)
(0.111873 -9.10048e-05 -2.17725e-05)
(0.113282 5.59275e-05 0.000636857)
(0.112959 0.000223562 5.40383e-05)
(0.107878 -0.000118486 -0.000134784)
(0.108133 -0.000117585 -0.000536533)
(0.112452 -0.000103494 2.27299e-05)
(0.112635 -0.000127386 -0.000252)
(0.108462 -0.000148674 -0.000231734)
(0.108962 -2.31437e-06 4.41763e-05)
(0.112492 -0.000117358 -0.000270878)
(0.110085 -5.49748e-05 -0.000551448)
(0.111278 0.000133699 -8.10369e-05)
(0.111192 -6.33937e-05 -0.000532333)
(0.112441 -8.08233e-05 -0.000150345)
(0.108912 0.000344035 -0.000555086)
(0.113321 -3.88065e-05 9.09018e-05)
(0.112099 -0.000103707 -7.23685e-05)
(0.109791 -0.000693761 0.000183618)
(0.109103 -0.00060307 0.00057435)
(0.110863 -0.00017923 -0.000185034)
(0.113318 -1.78577e-05 -0.000291866)
(0.108048 7.09491e-05 0.000151507)
(0.109189 -0.000174008 -0.000575964)
(0.108365 -0.000144792 -1.48691e-05)
(0.108522 -0.00065594 0.000158188)
(0.110935 8.33635e-05 3.2413e-05)
(0.108408 0.000375805 0.0001648)
(0.112836 -0.000437188 0.000136898)
(0.113218 -0.000373971 8.63346e-05)
(0.108203 8.94863e-05 -0.000316685)
(0.110018 -0.000103272 0.000171192)
(0.111434 0.000307411 -0.000513564)
(0.108778 -0.000104895 -5.23515e-05)
(0.112025 -9.5055e-05 0.000188432)
(0.113364 -0.000207196 -0.000264776)
(0.112418 -0.000367265 -0.000192577)
(0.112039 0.000440059 -2.73441e-05)
(0.112676 0.000231469 0.000113019)
(0.112261 -0.000250987 -3.86886e-05)
(0.111643 -0.000114278 -0.000276184)
(0.111991 7.46856e-05 -0.000130534)
(0.111271 -0.000403966 0.000483942)
(0.111284 0.000339625 0.000100866)
(0.107566 0.000742509 -0.000165245)
(0.111814 -6.06261e-05 0.000434067)
(0.112862 0.000570016 -0.000483363)
(0.111152 -9.37192e-05 0.000217079)
(0.112499 0.000140137 -8.58273e-05)
(0.108931 -7.27108e-05 -1.83962e-05)
(0.107857 -6.36245e-05 0.000334638)
(0.113093 2.43183e-05 -0.000312901)
(0.112655 -0.00014937 0.000209286)
(0.111445 -0.000295569 0.000476098)
(0.111768 5.79961e-06 0.000253239)
(0.112138 6.15183e-05 -6.59024e-05)
(0.111369 1.41424e-05 -5.64166e-05)
(0.110983 0.000546025 0.000292031)
(0.112939 0.000196534 -3.88965e-07)
(0.108599 2.14081e-05 -0.000122695)
(0.110948 0.000318367 -0.00020702)
(0.113089 -1.33635e-06 -3.71073e-05)
(0.112855 -6.29621e-05 -9.15555e-05)
(0.112512 -0.000255361 -5.54794e-05)
(0.112277 -0.000763344 -0.000111901)
(0.111571 -0.000313529 -5.9538e-05)
(0.11158 -5.07532e-05 -0.000129762)
(0.1119 -0.000149788 5.23768e-06)
(0.111536 0.000169523 -0.000142037)
(0.112479 -3.07899e-05 -0.000329245)
(0.107837 -7.80205e-05 -0.000174267)
(0.111932 2.35174e-05 -0.000243283)
(0.111057 0.00043438 -0.000102542)
(0.111854 4.95419e-05 -0.000236212)
(0.112466 0.000104937 -0.000263056)
(0.112144 -0.000246994 -0.000253023)
(0.11282 -7.32644e-05 -0.000110525)
(0.109244 -0.000686483 -9.97674e-05)
(0.110185 -0.00019312 0.000122561)
(0.112536 -0.000205692 -0.000289194)
(0.113366 -0.000200902 0.000157443)
(0.112843 3.19671e-05 6.13751e-05)
(0.111221 -0.000220561 -0.000393048)
(0.107198 -9.04448e-07 0.000634481)
(0.111744 -0.0005503 0.000341375)
(0.108297 -0.000164728 -0.000187677)
(0.11049 7.35138e-05 -1.14642e-05)
(0.112621 -0.000282493 0.000207034)
(0.110403 0.000374628 0.000392177)
(0.10825 0.000202415 -0.00010941)
(0.111676 0.000157724 -2.86645e-05)
(0.112369 9.3428e-05 -0.000140542)
(0.11319 -0.000209934 -0.000149608)
(0.108547 5.33946e-05 -0.0001436)
(0.107806 -0.000217383 9.42883e-05)
(0.11195 -7.48941e-05 7.52484e-05)
(0.112713 -3.5477e-05 -0.000327302)
(0.10876 3.29598e-05 0.000277415)
(0.112881 -0.000615622 0.000148305)
(0.109848 5.26795e-05 -0.000290917)
(0.108745 -0.000141254 0.000170373)
(0.111805 9.30412e-05 -5.86792e-05)
(0.112253 -0.000134195 -7.97479e-05)
(0.111127 -0.00045874 0.000135496)
(0.109914 0.000346651 0.000610795)
(0.11018 0.00010877 0.000124987)
(0.111369 -7.26904e-05 -0.00011318)
(0.1117 0.000447493 -0.00011826)
(0.110718 3.13037e-05 -0.000374001)
(0.108487 -0.000294477 0.000313949)
(0.111795 3.90769e-05 -0.000138448)
(0.111734 -5.26328e-05 2.07897e-05)
(0.109326 -6.3116e-05 -0.000131965)
(0.110373 -0.000552937 1.08387e-05)
(0.112722 1.95258e-05 -3.46641e-05)
(0.113057 0.000343011 7.30483e-06)
(0.11138 0.000554474 -0.000135219)
(0.108914 -4.92426e-05 5.5593e-05)
(0.11303 0.000236527 -0.000191364)
(0.112384 0.000196853 -0.000461199)
(0.111024 -0.00024962 -0.000347057)
(0.11339 0.000311448 0.000502494)
(0.113363 0.000220764 -0.0001923)
(0.112237 0.000157435 -0.000313567)
(0.113018 0.000120964 3.09232e-05)
(0.111447 0.000162096 9.19454e-05)
(0.111126 -0.000167517 -0.000499403)
(0.107886 0.000379927 -0.000886132)
(0.110405 -0.000113495 -0.000176326)
(0.112867 -0.000383236 3.52522e-05)
(0.111002 -7.92108e-05 0.0003397)
(0.112232 0.000168898 6.39115e-05)
(0.11126 0.00035106 -0.000239744)
(0.111594 -0.000197005 0.000132201)
(0.111925 0.000428013 0.000150114)
(0.113253 0.000287828 -0.00027505)
(0.112116 0.000377526 0.000330164)
(0.108285 -1.28451e-05 3.8526e-05)
(0.110933 -2.14948e-05 -6.99914e-05)
(0.109578 0.000653857 -0.000182764)
(0.113368 -0.000121534 -0.000468115)
(0.110968 -0.000391151 -0.000210243)
(0.112345 -3.9217e-05 -0.000444302)
(0.111881 -1.67184e-05 -0.000257848)
(0.110211 5.22093e-05 -0.000386875)
(0.108366 2.53204e-05 -1.74191e-05)
(0.109042 7.06897e-05 -0.000337956)
(0.108916 9.56843e-05 -1.51422e-05)
(0.107989 -6.30984e-06 3.59883e-05)
(0.113398 -0.000297776 -0.000100021)
(0.108793 -0.000202814 -0.000393902)
(0.112002 -0.000190732 0.00014925)
(0.112271 0.000312792 1.18027e-06)
(0.110826 -2.0483e-05 -7.07267e-05)
(0.109298 3.24207e-05 -2.60374e-05)
(0.112917 -0.00059141 0.000305594)
(0.110997 3.62105e-05 -0.000533167)
(0.109636 6.35928e-05 0.000288659)
(0.112773 0.000201105 -0.000164049)
(0.111633 -0.000187087 -6.70181e-05)
(0.108946 0.000205006 0.000230756)
(0.111372 8.47012e-05 -0.000183832)
(0.108906 5.95497e-05 7.68451e-05)
(0.112002 0.000351164 -0.000125567)
(0.111688 0.000150223 -7.49615e-06)
(0.10903 0.000186195 0.000420557)
(0.111191 1.96515e-05 -0.000190671)
(0.111105 0.000453045 0.000198647)
(0.106993 0.000163905 -0.000704691)
(0.107458 0.000422478 0.000280025)
(0.112549 -0.000349066 0.000132413)
(0.112983 0.000133947 -2.53866e-05)
(0.113296 -9.06237e-05 -6.40203e-05)
(0.108223 0.000100272 -8.57939e-05)
(0.10901 4.0613e-07 0.000360785)
(0.113037 0.00012227 0.000121983)
(0.10987 -0.000146538 -6.9532e-05)
(0.109468 0.000570831 -0.000382761)
(0.112538 0.00017053 0.00032441)
(0.112784 -0.000272099 -0.00010347)
(0.110861 -0.000561408 -8.54869e-05)
(0.112697 -0.000868125 -0.000331779)
(0.113322 -5.20205e-05 -0.000254007)
(0.108591 -0.000139206 -0.000149965)
(0.113314 -0.000504835 -0.000211685)
(0.107485 0.000377724 -6.847e-05)
(0.107963 9.96448e-05 -0.000135502)
(0.113103 -0.000364781 -0.00011746)
(0.112628 -0.000345936 -4.65634e-05)
(0.11342 6.88447e-05 -0.0002982)
(0.113143 0.000447063 -0.000450609)
(0.112228 -4.55984e-05 -0.0002021)
(0.109567 0.000882644 -0.000285033)
(0.110751 -0.000443636 0.000312852)
(0.111756 -0.000197284 0.000129645)
(0.112464 -0.000583103 0.000229502)
(0.113006 0.000627961 0.000260595)
(0.112729 -0.000384296 0.000166426)
(0.111841 0.00025954 -5.24586e-05)
(0.110815 -0.000468904 0.000449176)
(0.111339 -3.96484e-05 -6.28218e-05)
(0.113066 0.000139545 -0.00023986)
(0.112332 -0.000156862 -0.000636255)
(0.110949 1.42357e-05 -0.000312266)
(0.111858 -0.000199308 -2.622e-05)
(0.111782 0.000482323 -0.000221855)
(0.111048 -0.0002593 -0.000133146)
(0.112432 -0.000129648 -0.000217502)
(0.111128 -0.000395607 0.000440895)
(0.108771 -4.27395e-05 9.19209e-05)
(0.111539 0.000228834 -0.00014466)
(0.113039 -0.000170795 -0.000185159)
(0.110634 0.000192153 -0.000187932)
(0.112194 2.52898e-05 -4.01168e-05)
(0.112977 -0.000369619 1.09586e-05)
(0.112153 -3.80281e-05 3.06358e-05)
(0.10915 0.000617176 -0.000167349)
(0.111816 0.00010965 -0.000359758)
(0.111395 0.000211654 2.62403e-05)
(0.108116 0.00012842 -0.000354585)
(0.1123 -0.00061407 -4.21647e-05)
(0.108241 0.000152607 0.000209142)
(0.111907 -5.54605e-05 -0.000259027)
(0.112916 -0.000290391 -6.71055e-05)
(0.108487 -0.000236081 -5.40162e-05)
(0.111861 0.000249004 4.85162e-05)
(0.11159 0.000185089 0.000396053)
(0.108438 -0.000138596 0.000146341)
(0.111966 -0.000108193 -7.97276e-05)
(0.109105 -4.52731e-05 -0.000221618)
(0.111181 5.774e-05 0.000391066)
(0.112835 0.000353164 -2.80236e-05)
(0.111828 -1.41357e-05 0.000112051)
(0.107976 0.00029356 -5.57169e-05)
(0.112411 0.000108176 -7.76018e-05)
(0.108886 0.000122362 -0.000242576)
(0.11244 -0.000176315 -7.68639e-05)
(0.112293 0.000131115 0.000190055)
(0.112319 -0.000378498 -0.000129041)
(0.112821 -0.000127385 -0.000455994)
(0.108609 4.75824e-05 -0.000112256)
(0.112634 -0.000562946 9.75393e-05)
(0.108459 7.8068e-05 -0.000406914)
(0.111625 0.000233187 -0.000140429)
(0.108613 0.00023081 -6.37639e-05)
(0.113303 -6.46963e-05 -4.05076e-05)
(0.113294 -3.69994e-05 -5.76518e-05)
(0.113465 -0.000161959 9.60791e-05)
(0.1131 -0.000412103 -0.000374373)
(0.111491 -7.02351e-05 -6.40852e-05)
(0.112251 -9.73293e-06 8.83132e-05)
(0.111964 -1.23832e-05 2.29983e-05)
(0.111649 1.94909e-05 -9.6893e-05)
(0.111929 0.000161467 -0.000294128)
(0.108961 0.000170162 -0.00012068)
(0.112262 -0.000203854 -0.000101943)
(0.111713 -0.000204957 1.01522e-05)
(0.111954 -0.000208695 -0.000250813)
(0.112775 8.63313e-05 -0.000105394)
(0.112307 -0.000117571 -0.000436501)
(0.112365 3.67196e-05 0.000171263)
(0.111174 -0.000237453 5.40186e-05)
(0.108156 -4.00206e-05 0.000306644)
(0.111098 -1.86685e-05 0.000338246)
(0.112552 2.47925e-05 -0.000102729)
(0.112376 -6.01013e-05 0.000125865)
(0.108368 -0.000239507 -0.000280753)
(0.113211 0.000115398 -0.000224515)
(0.113091 7.80693e-05 -0.000420436)
(0.111296 1.74347e-05 -0.000524769)
(0.112872 -0.000140504 -0.000387708)
(0.11319 -9.78081e-05 -0.000520454)
(0.111978 -3.90787e-06 -0.000160531)
(0.112329 -3.58172e-05 -5.74283e-05)
(0.108207 1.30386e-06 -0.000128368)
(0.112097 -7.48796e-05 8.32335e-05)
(0.112424 -0.000192937 0.000136787)
(0.107373 2.64927e-06 -0.00018101)
(0.111556 -0.000261054 9.38839e-05)
(0.112326 -0.000330189 -0.000255504)
(0.109728 9.94799e-05 0.000131349)
(0.108225 -0.000179867 -0.000218046)
(0.108414 -0.000161605 0.000295689)
(0.11063 -0.000607477 1.02054e-05)
(0.108189 8.23742e-05 1.65427e-05)
(0.111359 -1.96111e-05 0.000134491)
(0.111872 -0.00017066 7.67774e-05)
(0.110092 0.000322204 0.000160798)
(0.112226 0.0003477 -0.00016241)
(0.108843 -0.000112954 -0.0001997)
(0.11253 0.000229131 0.00029039)
(0.11347 -3.58559e-05 -6.55953e-06)
(0.11179 -5.8353e-05 -0.00012466)
(0.112228 2.3622e-05 0.000297905)
(0.11113 -2.54214e-05 -6.14274e-05)
(0.113017 0.000396067 -0.000375871)
(0.112045 0.000355276 -0.000123948)
(0.111349 6.14305e-05 -0.00042943)
(0.113519 1.45925e-05 -0.000207031)
(0.112044 -0.00030564 -0.000228347)
(0.108532 -8.6048e-05 0.000130742)
(0.111942 -0.000139766 -3.98443e-06)
(0.113637 -4.77618e-05 -0.00041925)
(0.113169 0.000162674 -0.000143856)
(0.112374 -5.86537e-05 0.000262264)
(0.11286 0.000249431 -0.00025159)
(0.111779 -0.000372119 3.03985e-05)
(0.112202 -0.000109852 4.60375e-05)
(0.112026 0.000127008 9.83876e-05)
(0.112461 0.000110034 -0.000188458)
(0.112704 -0.000561141 3.78153e-06)
(0.108063 -0.000102362 -0.000135189)
(0.11121 -0.000231437 0.00014639)
(0.107113 -9.99852e-05 6.19242e-05)
(0.110614 0.000435669 0.000341644)
(0.111355 0.00023242 -0.000268359)
(0.108437 -0.000270713 0.000193745)
(0.107975 -0.000144981 -0.000331399)
(0.111094 4.69301e-05 -0.000227873)
(0.112119 -0.0003852 -1.5725e-05)
(0.112804 5.16369e-05 -0.000138283)
(0.108647 4.94056e-05 0.000128582)
(0.11191 -0.000120495 0.000177169)
(0.111149 -6.00822e-05 3.29652e-05)
(0.111845 -5.8e-05 -0.000445916)
(0.112014 5.57969e-05 -0.000278107)
(0.111227 0.00145368 0.00153131)
(0.11194 7.61954e-05 -0.000438105)
(0.108442 -9.86231e-05 0.000114177)
(0.111349 -0.000271362 4.17373e-06)
(0.112624 -2.71086e-05 -5.62611e-05)
(0.113328 0.000665623 0.000349833)
(0.112958 0.000116914 -0.000321728)
(0.111466 0.000622333 -0.000289313)
(0.108447 0.000252889 0.000243583)
(0.112089 -0.000175986 3.23894e-05)
(0.112171 -4.79218e-05 -0.000242383)
(0.112823 -0.000374484 -0.000239115)
(0.107926 0.000109619 -5.26448e-05)
(0.109113 -7.85567e-06 0.000109064)
(0.111436 0.00025551 0.00021993)
(0.109049 0.000154762 -0.000242431)
(0.108262 -0.00021688 -0.000111095)
(0.112418 0.000277869 -0.00031434)
(0.108835 1.4136e-05 -0.000221181)
(0.110645 0.000495358 3.83731e-05)
(0.108435 -0.00031767 -0.000363124)
(0.112145 6.14772e-05 -0.000120338)
(0.108959 0.000253309 -6.54348e-05)
(0.11309 -4.42049e-05 0.000110571)
(0.1128 1.804e-05 -0.000101387)
(0.113423 -0.000200963 0.000395707)
(0.113103 -8.96817e-06 0.000122024)
(0.108646 1.51485e-05 0.000125277)
(0.113132 1.72081e-05 0.000192922)
(0.11345 -4.92976e-05 -0.000248673)
(0.111647 -0.000249717 4.22862e-05)
(0.112354 0.000185905 -9.74764e-05)
(0.112435 -4.51992e-05 -0.000113011)
(0.113432 0.000146604 0.00016571)
(0.112493 0.000397587 0.000281474)
(0.110056 -1.063e-05 -0.000304417)
(0.11377 -3.72036e-05 4.51989e-05)
(0.113399 -9.81286e-05 0.000300266)
(0.112178 3.52037e-06 0.000138605)
(0.11089 -0.000413269 -0.000376405)
(0.112702 -0.00036685 -8.53615e-05)
(0.112007 0.000414508 -0.000263252)
(0.107386 0.000364257 -0.000141561)
(0.107452 0.000133038 -0.000200031)
(0.111465 6.63941e-05 7.09222e-05)
(0.11279 2.30883e-05 0.000116799)
(0.113329 3.44414e-05 -5.31625e-05)
(0.110492 -0.000142426 -9.55725e-05)
(0.112431 0.000259181 0.000146661)
(0.111922 -0.000175967 4.70417e-05)
(0.113386 0.000643957 0.000711759)
(0.1116 3.85672e-06 2.76487e-07)
(0.110815 0.000427079 -0.000195748)
(0.111252 -0.0010379 0.000590059)
(0.10842 -5.9683e-05 -0.000142378)
(0.111312 6.39244e-05 0.000203149)
(0.111697 4.30881e-05 -7.31456e-05)
(0.112859 8.94991e-05 -0.000134624)
(0.109325 -0.00013436 0.000208195)
(0.109365 0.000161487 -0.000332312)
(0.109787 1.89823e-05 -0.000204464)
(0.110658 -0.0003392 -7.64854e-05)
(0.111901 -7.24286e-05 -0.000135176)
(0.108011 -0.000131292 -0.0005092)
(0.112612 0.000419161 -0.000390362)
(0.111003 7.76464e-05 -1.07972e-05)
(0.112217 -9.16315e-05 0.000347242)
(0.111089 -8.23962e-05 -0.000102934)
(0.113485 -0.000299677 2.85453e-06)
(0.111359 4.33817e-05 -0.000325585)
(0.108267 -0.000107065 0.000164397)
(0.111984 0.000466384 1.25538e-05)
(0.113274 -0.000138192 -0.00071968)
(0.108794 0.00013202 0.000498873)
(0.112615 -0.000230386 -0.000229836)
(0.113123 -0.000542905 -0.000157134)
(0.111825 -0.000296843 8.11018e-05)
(0.111579 0.000189197 0.000206743)
(0.114864 0.000104209 -1.84994e-05)
(0.109902 0.000110694 -9.93356e-05)
(0.111909 -0.000392965 -0.000239175)
(0.111803 0.000222197 -0.000118145)
(0.108805 5.19046e-05 1.30193e-05)
(0.108876 -0.000134205 -0.000768326)
(0.111325 0.000274058 0.000153803)
(0.110015 0.000515898 0.000170049)
(0.112414 -3.56968e-05 -8.18266e-05)
(0.109682 -0.000192391 0.000227178)
(0.111281 0.000260692 0.000198705)
(0.113291 -2.22113e-06 0.000266587)
(0.111608 -8.25488e-05 -0.000152149)
(0.10828 0.000326789 9.87694e-05)
(0.109868 0.000197721 -6.17705e-06)
(0.112329 0.000211953 -7.27317e-05)
(0.113159 -9.20595e-05 4.91627e-05)
(0.10804 0.000277944 0.000260427)
(0.107834 7.25112e-05 0.000150555)
(0.113487 0.0001035 0.000425989)
(0.108353 0.000166542 9.29082e-05)
(0.112398 -0.000101417 -0.000111747)
(0.112268 0.000111137 -0.000153318)
(0.108706 -4.24166e-05 -0.000580958)
(0.112119 9.29445e-05 0.000110256)
(0.112965 2.95537e-05 9.95087e-05)
(0.111372 1.66823e-05 0.000551907)
(0.107311 6.48351e-05 0.000319956)
(0.11336 0.000108895 -4.33545e-05)
(0.111531 -5.71299e-05 -0.000178387)
(0.108367 0.000463083 -3.90373e-05)
(0.113379 -0.000132119 -0.000100217)
(0.111577 1.41563e-05 -5.94229e-05)
(0.111212 0.000361964 -0.00025351)
(0.112246 -0.000567696 7.49491e-05)
(0.108186 0.00056836 -0.000350879)
(0.1108 -2.64159e-05 -0.0005939)
(0.110774 -0.000283602 8.71185e-05)
(0.111191 0.000177837 -0.000140709)
(0.108662 -0.000127077 0.000262539)
(0.110111 1.98067e-05 7.83709e-05)
(0.112407 0.000432762 0.000146996)
(0.113554 -0.000346703 -0.000730366)
(0.113512 -0.000384312 0.000187918)
(0.112782 -8.69506e-05 0.000122121)
(0.113145 -0.000314952 -0.000116422)
(0.112569 -0.000257133 -0.000507411)
(0.109797 -0.000147946 0.000243504)
(0.113366 -0.000134474 -0.000563636)
(0.112342 4.26924e-05 -8.16091e-05)
(0.112822 0.000327994 0.000337803)
(0.108983 4.68962e-05 -0.000113704)
(0.11204 -0.00027863 -0.000256954)
(0.112006 0.000195108 9.19768e-05)
(0.113293 0.000605668 0.000157841)
(0.108451 -1.78754e-05 0.00017084)
(0.107632 -0.00035981 4.59112e-05)
(0.113016 3.66785e-05 -3.44901e-05)
(0.110022 -0.000266494 -0.000210862)
(0.112684 0.000105344 -8.35671e-05)
(0.110899 -0.000161468 -0.000174253)
(0.10904 -4.59794e-06 -0.000234262)
(0.11195 -5.1793e-06 -0.00031979)
(0.113244 0.000409915 -6.1334e-05)
(0.111431 0.000170924 -2.14003e-06)
(0.112729 0.000566371 -7.32135e-05)
(0.108541 2.36712e-05 -0.000810612)
(0.112768 0.000725334 0.000527634)
(0.112352 -3.84858e-05 -0.000279624)
(0.107702 0.000374598 3.75525e-05)
(0.112535 2.51754e-06 -9.95146e-05)
(0.113088 -0.000306018 4.3191e-05)
(0.114362 0.000380687 0.000502468)
(0.108742 -0.000528334 -0.000561562)
(0.108467 0.000170193 -0.00032919)
(0.11078 0.000370674 -0.000321916)
(0.111737 -5.03975e-05 0.000309732)
(0.111666 -6.79896e-05 0.000111896)
(0.111492 0.000151342 4.40888e-05)
(0.111498 0.000148562 7.18244e-05)
(0.113103 6.86383e-05 -3.14313e-06)
(0.111866 -0.000235259 -3.25372e-05)
(0.112145 0.000217181 -1.8099e-05)
(0.108878 -1.47135e-05 0.000357236)
(0.113215 -8.11609e-05 -0.000691179)
(0.108178 -0.000165383 -0.000294634)
(0.112122 0.000457009 -1.78259e-05)
(0.111099 0.000260081 -0.000255593)
(0.110656 -0.000378746 -0.000179472)
(0.112812 0.000187733 -0.000177521)
(0.110977 -0.000345076 -0.000163274)
(0.10916 -0.000328201 -0.00046747)
(0.10804 2.77445e-05 -0.000191301)
(0.108562 -4.37571e-06 -2.75506e-05)
(0.110845 -0.000266834 -0.000132537)
(0.11256 0.000404771 0.000393874)
(0.109249 8.29702e-05 0.000342124)
(0.112444 -0.000319684 -3.65247e-05)
(0.110749 0.000105825 -0.000482822)
(0.113335 -0.000259344 -0.000232726)
(0.108211 -9.67267e-05 -0.00038082)
(0.111006 0.000112727 0.000173561)
(0.113072 -0.000462211 -9.6027e-05)
(0.112641 -0.000300194 4.666e-05)
(0.112566 -7.00548e-05 -0.000125984)
(0.11329 -5.42865e-05 1.36113e-05)
(0.112243 7.51875e-05 0.000258264)
(0.11178 0.000237652 7.13108e-05)
(0.112756 -3.33904e-05 0.000223259)
(0.112648 0.0001569 2.25836e-05)
(0.113196 7.16749e-05 0.000126583)
(0.109612 0.000318733 -2.78209e-05)
(0.113253 -0.000479987 -9.17262e-05)
(0.108175 -0.000123822 0.000241291)
(0.113465 0.000334019 -0.000131224)
(0.111698 0.000196468 4.0473e-05)
(0.111338 5.13832e-05 -0.000292137)
(0.108593 0.000322963 2.926e-06)
(0.111412 0.00070105 -0.000469974)
(0.107264 -0.000615405 -0.000145146)
(0.112375 -1.33856e-05 -8.90803e-05)
(0.111346 0.000137255 -0.000246533)
(0.113169 1.60827e-05 -0.000216881)
(0.111019 0.000401907 -0.000139708)
(0.111454 0.000721585 -0.000192349)
(0.108701 -0.000299296 0.000151556)
(0.112965 7.85232e-05 0.000101463)
(0.10874 -0.000371313 0.000130737)
(0.107273 -0.000216695 -0.000102499)
(0.108751 -0.000194085 7.69576e-05)
(0.109246 0.000125672 9.81485e-05)
(0.109188 0.000497133 6.2691e-05)
(0.111586 -0.0003171 -1.61205e-05)
(0.108085 0.000176715 3.08133e-05)
(0.112521 -0.000569736 -9.27686e-05)
(0.112244 2.77516e-05 -0.000277452)
(0.107037 -2.37703e-05 0.0001288)
(0.112345 5.19594e-05 -4.49688e-05)
(0.108527 0.000343611 -0.000361898)
(0.110857 0.000507274 0.000123348)
(0.111605 7.06906e-06 0.000144457)
(0.111183 -0.000179544 -0.00058061)
(0.112384 -0.000149016 -9.07754e-05)
(0.113556 4.3712e-05 -0.000363553)
(0.112677 6.44514e-05 0.000308782)
(0.112049 7.88167e-05 -0.000124688)
(0.112183 -0.000456727 -0.000313111)
(0.112615 0.000429844 -5.44703e-06)
(0.110637 0.000156967 -1.955e-05)
(0.111073 8.57121e-05 1.97042e-05)
(0.107905 0.000319176 -0.000355467)
(0.109641 0.00184878 0.00230615)
(0.113059 8.88922e-05 -3.71146e-05)
(0.111846 -0.00019492 -0.000105245)
(0.112281 -0.000197925 3.05602e-05)
(0.112734 8.95428e-05 2.71462e-05)
(0.108314 -0.000190337 -8.14569e-05)
(0.112937 -4.51585e-05 -0.000291247)
(0.113089 0.000471765 -0.000135961)
(0.113142 1.0192e-06 0.000233884)
(0.112996 -5.96349e-05 4.27794e-05)
(0.112515 0.000202111 8.69e-05)
(0.112092 -0.000206596 -0.000211786)
(0.113123 -0.000147074 2.57174e-05)
(0.113194 -0.000219186 0.000297486)
(0.112357 8.2398e-05 0.000211238)
(0.113034 -1.84126e-05 -1.38229e-05)
(0.11238 -0.00024456 -0.000198563)
(0.109354 -0.000171647 -0.000229781)
(0.112879 -4.12883e-05 9.42408e-05)
(0.110036 6.96765e-05 0.000335041)
(0.111626 -7.19533e-05 2.01862e-05)
(0.111899 -0.000332894 -0.000231569)
(0.111729 -0.000475873 5.96318e-05)
(0.110597 0.000415325 1.50964e-05)
(0.112502 0.000237219 -6.93316e-05)
(0.110777 0.000284899 0.000396885)
(0.112233 -0.000179137 -9.78109e-06)
(0.110995 0.000458386 -0.000206066)
(0.108248 0.000125587 -0.000246003)
(0.113663 0.0002138 -0.000190454)
(0.112112 0.00027628 -0.000100338)
(0.110331 -0.000102062 0.000495525)
(0.108146 -0.000354613 3.63029e-05)
(0.113035 -0.000515359 -3.52518e-05)
(0.108065 -0.000532429 -0.000348455)
(0.113271 -6.65664e-05 -9.32625e-05)
(0.112033 -6.62083e-06 0.000272735)
(0.111079 0.000487621 -0.000186149)
(0.112363 -0.000147105 0.000261235)
(0.113139 -0.000157592 -0.000407732)
(0.112277 -0.000194272 0.000148511)
(0.108287 -8.01324e-05 -5.45423e-05)
(0.111359 -0.000178791 -0.000283805)
(0.109808 0.00013481 -0.000151842)
(0.11164 5.88457e-05 -4.33137e-05)
(0.108296 -0.000509104 -0.000545981)
(0.11208 -0.000163046 -0.000375263)
(0.112558 -0.000244671 0.000224401)
(0.11041 0.000144736 -0.000279607)
(0.111575 3.17704e-05 1.63963e-05)
(0.110545 1.11298e-05 0.000237805)
(0.112414 -8.70017e-05 -0.000126826)
(0.110359 -0.000438772 0.000201057)
(0.111533 0.000188712 -6.43855e-06)
(0.108271 -0.00024081 0.000264198)
(0.113228 -4.68003e-05 0.000163398)
(0.111731 -0.000277359 -0.000214253)
(0.11312 0.000425855 0.000275077)
(0.109859 0.000342852 -0.00018294)
(0.112205 -1.69628e-05 -3.17241e-05)
(0.112258 0.000169291 -7.16162e-05)
(0.11111 0.000152709 0.000505322)
(0.111394 -6.03556e-05 -6.73056e-05)
(0.111449 0.000276405 0.000211437)
(0.11318 -0.0003006 4.70938e-05)
(0.111642 -0.00015144 -0.00014163)
(0.108346 2.67141e-05 -5.05907e-05)
(0.107755 -0.000329488 -0.000302192)
(0.112533 -0.000194402 -0.000119295)
(0.107985 0.000303445 -0.000437689)
(0.11015 -0.000422991 -0.00060725)
(0.111534 0.000276746 -0.000167201)
(0.111734 0.000249592 -0.000161215)
(0.113142 0.000341317 -0.000273242)
(0.107967 -0.000256969 -4.24369e-05)
(0.11194 -3.82742e-05 -0.000354109)
(0.113323 -1.95352e-05 -8.46997e-05)
(0.109313 0.000546626 -0.00089952)
(0.108941 0.000696784 0.000409876)
(0.111895 -0.000313697 -0.000301955)
(0.109053 -4.83727e-05 7.08015e-05)
(0.111836 -0.000138919 -9.91593e-05)
(0.108756 -0.000300846 9.47896e-05)
(0.112896 -0.000508397 -0.000187054)
(0.10976 0.000129985 0.000431966)
(0.110403 0.000163072 0.000147684)
(0.113392 0.00016823 0.000286747)
(0.107738 -4.84374e-05 0.000175589)
(0.111093 0.000120329 0.000179943)
(0.111015 -8.11774e-05 0.000224452)
(0.113308 -7.40039e-06 -0.000441775)
(0.113144 7.62567e-05 0.000148416)
(0.112711 0.000167273 -0.000135916)
(0.108914 0.00042955 0.000396181)
(0.11232 -0.000146575 -0.000379243)
(0.112849 9.12146e-05 0.00043322)
(0.110099 -0.000419752 -8.38033e-05)
(0.11304 7.84217e-06 -0.000195615)
(0.112598 2.13082e-05 -2.40319e-05)
(0.112405 0.000245912 -1.78926e-06)
(0.112586 3.68688e-05 -0.000295208)
(0.112138 1.64981e-05 -0.000217111)
(0.113396 0.000251747 0.000148574)
(0.112906 0.000440396 0.000535011)
(0.113406 -0.000137899 0.000214173)
(0.112225 0.000215649 0.000133291)
(0.11135 -2.47447e-05 -0.000248176)
(0.1122 -8.15907e-05 6.5528e-05)
(0.111939 0.000155504 -5.77171e-06)
(0.108562 -0.000574774 -7.60647e-05)
(0.111553 -0.000445071 0.000118824)
(0.112137 3.46632e-07 0.000234741)
(0.112848 -6.56047e-05 -5.8356e-05)
(0.112972 -0.000195197 -0.000355322)
(0.111862 -0.000172735 0.000173134)
(0.113598 0.000473938 0.000252074)
(0.11315 0.000237039 -0.000144671)
(0.110914 -0.000365137 0.000627119)
(0.111839 0.000205484 -0.000360163)
(0.112918 3.71764e-05 -0.000423645)