/*--------------------------------*- C++ -*----------------------------------*\
| =========                 |                                                 |
| \\      /  F ield         | OpenFOAM: The Open Source CFD Toolbox           |
|  \\    /   O peration     | Version:  2212                                  |
|   \\  /    A nd           | Website:  www.openfoam.com                      |
|    \\/     M anipulation  |                                                 |
\*---------------------------------------------------------------------------*/
FoamFile
{
    version     2.0;
    format      ascii;
    arch        "LSB;label=32;scalar=64";
    class       surfaceVectorField;
    location    "0.01";
    object      Uf;
}
// * * * * * * * * * * * * * * * * * * * * * * * * * * * * * * * * * * * * * //

dimensions      [0 1 -1 0 0 0 0];

internalField   nonuniform List<vector> 
68568
(
(0.11216 0.000386325 -0.000247906)
(0.11181 0.000622444 -0.000230557)
(0.11157 0.00035898 -9.02368e-05)
(0.112948 0.000713992 -0.000216317)
(0.112093 -0.000211052 -2.81158e-05)
(0.112052 -0.000294941 -0.000186795)
(0.111539 -0.000202492 4.84259e-05)
(0.109235 -8.10063e-05 2.60701e-05)
(0.112563 0.000125894 2.64998e-05)
(0.112354 -0.000342737 0.000346071)
(0.111828 -0.000110413 -6.63334e-05)
(0.110651 -0.000491528 0.000366252)
(0.11322 -9.8484e-05 -2.60661e-05)
(0.112604 0.000139739 -7.23036e-05)
(0.113388 9.83928e-05 1.17541e-05)
(0.113405 4.4002e-05 -2.57801e-05)
(0.110537 -0.00017911 3.29246e-05)
(0.112118 -0.000345162 7.54244e-05)
(0.110134 -0.000211702 -0.000146872)
(0.111775 -0.000376485 -0.000170694)
(0.112365 2.24576e-05 -6.54472e-05)
(0.111783 0.000172854 -5.48505e-06)
(0.112338 0.000171333 -3.64366e-05)
(0.109873 0.000102153 -0.000325051)
(0.111163 -5.07395e-05 -0.000229921)
(0.108567 -2.0327e-05 -4.83037e-05)
(0.109637 9.27384e-05 -0.000334957)
(0.111209 -1.50217e-05 -0.000250951)
(0.111261 0.000102711 0.000307275)
(0.112397 0.000126182 -0.000144697)
(0.111679 -9.35816e-05 -2.66139e-05)
(0.11206 -7.71882e-05 -0.000136527)
(0.111417 8.42617e-05 -0.000213209)
(0.111459 0.000161341 -0.000422197)
(0.112611 -0.000149586 -3.15821e-05)
(0.112374 -0.000133689 -0.000229117)
(0.112874 6.34295e-05 -0.00035032)
(0.1131 -0.000211107 -0.000163331)
(0.112968 0.000376533 -0.00016324)
(0.112552 0.000228657 -0.000187864)
(0.112908 0.000141828 -0.000143931)
(0.111516 4.09994e-05 -0.000249919)
(0.113206 -0.00021074 -0.000400244)
(0.112983 -0.00028077 -0.000319808)
(0.112123 -5.60817e-05 2.60634e-05)
(0.111696 -0.00015075 8.28092e-05)
(0.109507 6.21587e-05 -0.000159155)
(0.11289 -0.00010032 -0.000195051)
(0.112864 -5.59774e-05 5.73398e-05)
(0.112605 -3.17598e-05 1.1515e-05)
(0.111271 -5.41704e-05 -1.00123e-05)
(0.111035 -0.000200133 -7.39803e-05)
(0.1118 -0.000238558 -0.000160165)
(0.111556 -0.000210856 -1.5657e-05)
(0.109082 -0.000247803 -6.59764e-05)
(0.111183 -0.000180081 0.000436522)
(0.108597 -0.000105388 0.000202289)
(0.109621 -8.64447e-05 0.000395448)
(0.111186 -7.30346e-05 0.000163439)
(0.111048 2.84132e-05 -4.84963e-05)
(0.111445 0.000153502 -2.04681e-05)
(0.111313 2.40555e-05 -0.00012357)
(0.111982 -0.000122103 -0.000161361)
(0.109126 0.000154033 0.000177416)
(0.1092 -0.000310946 0.000401485)
(0.111139 -0.000128072 7.96113e-05)
(0.11103 0.000131728 -0.000381607)
(0.109879 -0.000142616 -5.15544e-05)
(0.108896 0.000204883 -0.000424782)
(0.111347 8.19171e-06 -0.000260383)
(0.111884 -1.68577e-05 -0.000101692)
(0.11247 -0.000210376 -7.07806e-05)
(0.112319 -0.000256912 -0.000171912)
(0.110178 -0.000102248 -8.62032e-05)
(0.108766 -7.6198e-05 -6.48874e-05)
(0.109749 9.08571e-05 4.12095e-05)
(0.108949 0.000249068 -1.64311e-05)
(0.103263 -8.70528e-06 -0.00012487)
(0.112164 -0.000152302 -0.00011865)
(0.112985 0.000129423 -0.000179471)
(0.112287 2.55775e-05 -0.000153366)
(0.112592 2.46463e-05 -0.000222346)
(0.112688 0.000176944 -3.66892e-05)
(0.112573 0.000238039 0.000137822)
(0.1113 0.000299007 0.000168396)
(0.113 0.00029374 -4.65267e-06)
(0.109731 0.000162165 -0.000163389)
(0.109972 6.60682e-05 -0.000170745)
(0.111467 0.000298221 -0.000226986)
(0.111656 0.000164706 -4.24216e-05)
(0.108489 6.9155e-06 -3.74347e-06)
(0.110801 -7.93492e-05 -0.000141181)
(0.109561 0.000178186 -0.000330197)
(0.110916 -2.85664e-05 0.000103868)
(0.111377 0.000218859 -0.000128323)
(0.11141 -1.28155e-05 -1.78184e-05)
(0.11254 7.4781e-05 0.000327791)
(0.111884 2.48833e-05 -4.21557e-05)
(0.11236 -0.00014047 9.86036e-07)
(0.110054 -6.00744e-05 0.000245444)
(0.11446 0.000238863 0.000408561)
(0.11341 0.000366794 0.000297975)
(0.114833 0.000129774 6.29833e-05)
(0.114124 -7.81829e-05 -0.000361904)
(0.111693 0.000232085 0.000347923)
(0.108577 0.000318923 4.9386e-05)
(0.109548 0.000213604 0.000214587)
(0.112559 0.000217825 0.000109878)
(0.112137 4.5135e-05 0.000359972)
(0.11257 0.000268753 7.55263e-05)
(0.11303 -0.000192469 -0.000105821)
(0.112509 6.92675e-05 -2.85017e-05)
(0.113109 -0.00013247 -0.000108316)
(0.112261 -9.50762e-05 -2.92614e-05)
(0.111039 -0.000192294 -9.45162e-05)
(0.111039 -4.58514e-05 -0.000150408)
(0.109168 0.000124957 1.44504e-05)
(0.108945 -0.000186066 0.000182317)
(0.112805 0.000111804 -0.000178347)
(0.112542 5.83548e-05 -0.000213147)
(0.112588 -8.6111e-06 -0.000366298)
(0.112868 -2.18811e-05 -0.00035588)
(0.109736 6.16337e-05 -0.000296153)
(0.109041 -8.64859e-05 -0.000110487)
(0.111604 5.24166e-06 -0.000109733)
(0.111592 0.000159685 -9.40981e-05)
(0.109817 1.77416e-05 2.60774e-05)
(0.108542 -3.38874e-05 -4.74149e-05)
(0.108481 -0.000219415 -0.000107072)
(0.103754 -0.000156054 -4.7893e-06)
(0.112825 0.000379886 -0.00031909)
(0.108438 0.000114681 5.29955e-05)
(0.108473 -0.000193025 -6.90453e-05)
(0.107191 -7.67838e-05 3.77157e-05)
(0.103196 -9.71007e-05 8.93462e-06)
(0.1131 -0.000148667 0.000135195)
(0.112961 -0.000371889 0.000253253)
(0.113086 -9.86422e-05 0.000260153)
(0.112729 -0.000236351 0.000173289)
(0.112352 -0.000135965 0.000128561)
(0.112294 -4.67298e-05 0.000178761)
(0.112998 -4.12451e-05 0.000285457)
(0.107696 0.000356272 -0.000248497)
(0.108471 -0.000175948 -1.38202e-05)
(0.103746 8.94498e-05 -8.5013e-05)
(0.110397 -5.60891e-05 -6.58662e-05)
(0.108974 1.94774e-05 -0.000200063)
(0.103927 0.000124566 -0.000173986)
(0.109411 4.90274e-05 0.000128019)
(0.10936 -0.000129328 -4.51818e-05)
(0.109945 -0.000180123 -1.52178e-05)
(0.103328 -6.8639e-05 0.000122348)
(0.112857 -0.000109108 7.68877e-05)
(0.112138 -0.000120765 4.42782e-05)
(0.112207 -0.000206639 -0.00015093)
(0.112806 -0.000685065 -0.000298728)
(0.112153 -0.000547881 -0.00050403)
(0.112851 -0.000364301 -0.000657112)
(0.112526 -0.000307427 0.000298377)
(0.112649 -0.00042309 0.000126218)
(0.112275 -0.000143093 0.000150303)
(0.113188 -0.000402273 -6.69182e-05)
(0.112762 -0.000380399 -6.03425e-05)
(0.112493 -0.000266389 -0.000227319)
(0.113155 -6.79081e-05 -0.000358163)
(0.111571 0.000135427 -0.000170792)
(0.110969 0.000310719 -0.000216127)
(0.108756 0.000108218 -8.87967e-05)
(0.111473 0.000318255 -0.000363958)
(0.111699 0.000113289 -0.000281463)
(0.110375 0.000230731 -0.000518978)
(0.1095 0.000285847 -0.000232788)
(0.111092 -4.40622e-05 0.000196911)
(0.110864 2.35215e-05 8.54077e-05)
(0.112089 0.000129584 -0.000169151)
(0.111561 -1.39138e-05 0.000134158)
(0.112476 -5.08749e-05 -0.000275592)
(0.112586 -6.20316e-05 -0.000158182)
(0.112691 0.00020049 -0.000147757)
(0.11321 0.00024838 -0.000327757)
(0.113475 6.93574e-05 -0.000102146)
(0.109646 3.92112e-05 -0.000356511)
(0.108333 0.000155767 -0.000132735)
(0.108697 3.69866e-05 -7.37989e-05)
(0.102648 0.000135303 -0.000132052)
(0.112509 0.000256943 7.15379e-05)
(0.111968 0.000196414 3.21616e-05)
(0.113025 0.00010488 4.99674e-05)
(0.112714 2.21642e-05 0.00013554)
(0.107837 -9.74513e-05 -2.0949e-05)
(0.103293 8.97986e-06 7.07919e-05)
(0.110274 4.67386e-05 -0.000246696)
(0.110106 -0.000127896 -5.59852e-06)
(0.111905 5.37147e-05 -0.000186099)
(0.111936 -8.59187e-05 -7.49237e-05)
(0.110492 0.000147835 0.000168614)
(0.110793 0.000118827 0.000138523)
(0.111821 -0.000144664 -3.1941e-05)
(0.109594 0.000187738 -0.000330733)
(0.10881 0.00016083 -0.00013067)
(0.109687 0.000248744 5.24695e-05)
(0.103587 0.000372607 -5.44344e-05)
(0.112386 0.000122532 0.000354075)
(0.112324 -4.93454e-05 0.000117653)
(0.111775 8.19648e-05 0.000225686)
(0.110057 0.000106627 0.000322897)
(0.112446 -0.000273218 0.000193378)
(0.111854 -7.69117e-05 0.000273698)
(0.112382 -0.000167655 8.07373e-05)
(0.10977 -2.55172e-05 0.000242738)
(0.108329 -1.18051e-05 -0.00014249)
(0.108458 0.000233029 -4.03369e-05)
(0.103996 2.79881e-05 -9.82799e-05)
(0.111192 -0.000192601 -0.000228036)
(0.111034 0.000128722 -0.000110429)
(0.111213 0.000160246 1.94525e-05)
(0.112155 0.000291443 -7.68999e-05)
(0.111697 0.000225244 2.65595e-05)
(0.112706 0.000107098 -0.000219718)
(0.111923 0.000233913 -0.000300926)
(0.111042 -7.4999e-05 -0.000222836)
(0.109522 -6.57847e-05 -0.000250842)
(0.109559 -0.000142 -0.000197498)
(0.103842 -0.000175319 -0.000157933)
(0.112466 4.56859e-05 -5.53058e-05)
(0.112521 0.000170555 0.000130949)
(0.109625 0.000114564 -0.000111849)
(0.111202 -2.74297e-06 -7.50935e-05)
(0.111263 0.000170692 1.84648e-05)
(0.112185 0.000168135 8.66076e-05)
(0.111364 0.000162071 0.000213482)
(0.113271 0.000109996 -0.000321419)
(0.113333 -4.45835e-06 -0.000313846)
(0.113252 -7.6479e-06 -0.000219466)
(0.112833 8.29153e-05 -0.000189433)
(0.110596 0.000305544 -0.000575789)
(0.11197 8.11189e-05 -0.000569687)
(0.112197 -0.000193157 -0.000407103)
(0.111681 -0.000109183 2.29184e-05)
(0.112248 -0.000104805 -5.22619e-05)
(0.111708 -6.4216e-05 7.12709e-05)
(0.109842 3.04072e-05 -0.000160998)
(0.109864 -0.000487764 1.02899e-05)
(0.110031 0.000185514 -1.86507e-06)
(0.103495 -1.53737e-05 -0.000106642)
(0.113108 0.000342001 -7.33339e-06)
(0.113262 0.000292388 -0.000183726)
(0.112829 0.000162335 -5.70217e-05)
(0.113135 0.000187776 -0.00033615)
(0.112902 0.000174309 5.29624e-05)
(0.112225 1.12021e-05 3.87855e-05)
(0.112735 -0.000151133 -8.23331e-05)
(0.112386 0.000150771 -0.000141501)
(0.110673 -0.000307798 -0.000427081)
(0.110549 -7.64866e-06 -4.79046e-05)
(0.111397 -0.000251707 -0.000419827)
(0.107283 -0.000570587 -0.000379163)
(0.112336 -8.32638e-05 -0.000296836)
(0.11233 -0.000284875 -0.000460498)
(0.113002 -0.000187407 -0.000189856)
(0.113015 -7.19909e-05 -0.000220318)
(0.112596 -3.6271e-05 -0.000188432)
(0.111949 -0.000101043 -9.42191e-05)
(0.11188 4.45341e-06 -6.32053e-05)
(0.11004 0.000103726 -0.000332662)
(0.112584 9.75688e-05 0.000132105)
(0.112356 0.000112301 -1.80929e-05)
(0.111324 -4.20367e-05 -0.000128583)
(0.108655 -0.000116512 -0.000324073)
(0.10839 -0.000101331 -0.000178681)
(0.10928 2.30458e-05 -0.000332648)
(0.103248 0.000137749 -0.000134232)
(0.112807 -0.00031158 -5.70228e-06)
(0.112827 -0.000405122 0.000138963)
(0.113308 -0.000404778 0.000119619)
(0.110167 0.000527373 -0.000322707)
(0.111897 8.37501e-05 -0.000152594)
(0.111696 0.000272548 -9.62251e-05)
(0.111838 -0.000157131 0.000255031)
(0.112134 5.79262e-06 0.000124033)
(0.1124 8.40325e-05 0.000220269)
(0.109615 -6.93465e-05 0.000228579)
(0.109761 -0.000182004 -7.39971e-05)
(0.112819 -5.3483e-05 4.48531e-05)
(0.111532 0.000115791 -3.1393e-06)
(0.11289 0.000226461 7.67776e-05)
(0.108723 0.000387609 -0.000199511)
(0.110897 3.7925e-05 -8.74519e-05)
(0.110991 6.33848e-05 4.47203e-05)
(0.107095 0.000108054 -0.000148213)
(0.107824 0.000194076 0.000165426)
(0.107505 7.09082e-06 0.000132077)
(0.103485 4.74992e-05 8.59757e-05)
(0.113126 9.41682e-05 -7.37928e-05)
(0.112373 6.11192e-05 -0.000266227)
(0.113145 -1.9001e-05 -0.000135665)
(0.112867 -0.000222239 3.77261e-05)
(0.113059 -0.000266402 -0.000252061)
(0.112702 2.28679e-05 -4.70382e-05)
(0.112798 -2.70062e-05 -0.000162713)
(0.109909 -9.39044e-05 6.42179e-05)
(0.111524 -7.59074e-05 -8.85248e-05)
(0.11229 -0.000168265 -7.60333e-05)
(0.112464 -4.01677e-05 -0.000106453)
(0.111526 -4.53971e-05 0.000139348)
(0.113091 -0.000124414 -9.84885e-05)
(0.112318 -4.34662e-05 -0.000325033)
(0.112455 -1.90838e-05 9.82374e-05)
(0.113082 -0.00012327 -0.000119082)
(0.113242 -4.97329e-05 0.000107308)
(0.112785 -7.99791e-05 -1.61805e-05)
(0.113191 -4.0515e-05 -0.000149882)
(0.112657 5.74817e-05 -0.000144216)
(0.112579 -7.29968e-05 -0.000130731)
(0.113083 0.000105994 -0.000326695)
(0.108768 0.000833347 -0.00065075)
(0.110482 0.000166844 -0.000767197)
(0.109838 0.000490259 -0.000640557)
(0.102215 0.000179482 -0.000406691)
(0.112539 5.56539e-05 -0.000123117)
(0.112747 -7.32383e-05 -9.99031e-05)
(0.113235 0.00011848 -0.000302007)
(0.11207 -9.70757e-05 0.000156737)
(0.112778 1.83958e-05 -2.26231e-05)
(0.109799 0.000100641 -5.87098e-05)
(0.110024 -2.08352e-05 -8.8361e-05)
(0.109801 -9.59084e-05 -6.64386e-05)
(0.111622 -0.000136719 6.5785e-05)
(0.111347 -0.000209453 -8.09561e-05)
(0.109254 -0.000144164 -0.000578992)
(0.109557 -0.000173721 -5.80255e-05)
(0.103001 -0.00016069 -9.37606e-05)
(0.11123 0.000336398 -0.000327986)
(0.112032 0.00017022 -0.000455331)
(0.109385 -8.45556e-05 -0.000188941)
(0.109098 -0.000306621 -5.97754e-05)
(0.110894 -0.000421838 -0.000113013)
(0.108797 -0.00033451 -0.00015076)
(0.110786 -0.000338133 -0.000104534)
(0.111755 0.000524049 -0.000133427)
(0.11172 0.000597289 -0.000125618)
(0.111063 0.000574702 0.000135095)
(0.10973 0.000578972 9.20824e-05)
(0.11079 0.000322454 -6.64051e-05)
(0.111271 0.00011363 -0.000185617)
(0.112409 0.000370616 4.78869e-06)
(0.112746 -0.000183797 0.000104053)
(0.112593 -0.000133336 0.000179312)
(0.109599 -5.49444e-05 0.000213005)
(0.111776 0.000118924 9.67928e-05)
(0.111698 0.000141949 3.29805e-05)
(0.112295 6.95149e-05 -3.41034e-05)
(0.10963 7.80025e-06 -0.000217572)
(0.109282 -0.000330052 -0.000133296)
(0.109671 1.42355e-05 -0.000202147)
(0.10891 -0.000425288 -0.000317829)
(0.103428 -0.00024556 -0.000100564)
(0.112134 0.000236111 7.77043e-05)
(0.112274 5.43737e-05 7.26271e-06)
(0.110968 -1.45587e-06 -0.000286416)
(0.11229 1.70307e-05 -0.000167669)
(0.112095 5.65109e-05 0.000167074)
(0.111526 6.17872e-05 0.000147596)
(0.111507 0.000268015 0.000113796)
(0.111042 -0.000178246 -0.000206919)
(0.109171 2.18811e-05 -0.000117936)
(0.108209 -1.85304e-05 -0.000164304)
(0.109276 -0.000323036 -0.000181869)
(0.108712 -1.64035e-06 -0.000259326)
(0.103238 -8.30486e-05 7.9846e-06)
(0.109755 7.35884e-05 -0.000257833)
(0.103079 8.5964e-05 -0.000283681)
(0.112707 -0.000203015 -0.000126912)
(0.113455 5.38368e-05 0.000124373)
(0.113504 -7.40812e-05 -0.000172401)
(0.10407 0.000139873 0.000172026)
(0.108745 -0.000107543 -0.000415609)
(0.109446 3.0289e-05 -0.000133404)
(0.109144 -0.000174658 -0.000358695)
(0.102679 2.78247e-05 -0.000583353)
(0.108806 0.000426184 5.48742e-06)
(0.110858 0.000392704 4.93684e-05)
(0.108509 -5.40314e-05 0.00022207)
(0.107937 0.000124136 3.85003e-05)
(0.10892 0.000299438 0.000219059)
(0.103359 -2.27418e-05 2.00059e-05)
(0.112801 -0.000406198 4.38096e-05)
(0.111928 -0.000398076 0.000238499)
(0.11212 -0.000246581 0.000151753)
(0.112833 -0.000375192 5.36228e-05)
(0.110399 1.1523e-05 -0.000437209)
(0.109735 -7.8613e-05 -0.000221604)
(0.109389 -2.56951e-05 -0.000150652)
(0.103156 0.000169923 -0.000199254)
(0.112186 1.32836e-05 -0.000307714)
(0.111753 5.94263e-05 -0.000254087)
(0.111984 -0.00034534 -0.000183983)
(0.110005 -6.03546e-05 -0.000377928)
(0.10963 -0.000207511 -0.000275602)
(0.109617 -0.000264783 -0.00032542)
(0.111117 -0.000232387 -0.000299904)
(0.112692 6.58796e-06 -0.000212695)
(0.112616 9.55819e-05 -0.000222673)
(0.11213 0.000102908 -0.00012439)
(0.109713 0.000240682 -0.000331274)
(0.109583 0.000121647 -5.33241e-05)
(0.108499 -0.00016306 6.4436e-05)
(0.109098 -0.000188762 0.000225629)
(0.103431 -0.000157839 -5.35391e-05)
(0.111999 0.000163551 3.11236e-05)
(0.109648 0.000146415 -0.000271807)
(0.109507 -2.53899e-05 7.42204e-05)
(0.111651 -0.000469842 0.000128926)
(0.109687 -0.000272306 0.000132679)
(0.111561 -0.000307146 0.000241135)
(0.112471 -0.000125587 -7.24736e-05)
(0.11117 -0.000181331 -0.000180193)
(0.112357 -0.000163046 -0.000131731)
(0.112294 0.000220478 0.000159287)
(0.112286 -3.51419e-05 7.62519e-05)
(0.109796 -8.8879e-05 0.000110332)
(0.11127 -0.000279426 -9.39315e-05)
(0.111586 -0.000113175 -0.000223608)
(0.112207 -1.88535e-06 -0.000133827)
(0.112191 -0.000196315 2.84295e-05)
(0.112355 -0.000196326 0.000145652)
(0.11299 -7.0428e-05 8.01728e-05)
(0.113205 -0.000156058 0.000198857)
(0.112492 2.03939e-05 -0.000138937)
(0.112461 4.22108e-05 -0.000368317)
(0.113277 3.90679e-05 -0.000242699)
(0.111003 0.000322731 -0.000271671)
(0.111925 0.000151701 -0.000244022)
(0.11215 6.95442e-05 -0.000413081)
(0.110531 -0.000375478 -0.000118322)
(0.11271 0.000361685 -0.000447318)
(0.111622 -0.000142712 1.41119e-05)
(0.112609 0.000149247 0.000149979)
(0.112598 9.55351e-05 1.30307e-06)
(0.11268 -0.000101429 5.97077e-05)
(0.112123 0.000133124 7.61348e-05)
(0.112479 8.34484e-05 0.000173895)
(0.109481 3.71635e-05 8.41262e-05)
(0.108639 8.71844e-05 -0.000244385)
(0.108658 4.76158e-05 -0.000191478)
(0.109159 -0.000448546 -0.000191374)
(0.111041 -0.000332769 -0.000135522)
(0.111162 -0.000342101 -0.00019906)
(0.11227 -0.000315505 8.22661e-05)
(0.112101 -0.000128043 -1.48843e-05)
(0.112957 -0.000158508 -0.000255154)
(0.113037 -8.59602e-05 -5.45028e-06)
(0.112678 -7.97401e-05 -0.000162779)
(0.111887 -0.000283882 -0.000207546)
(0.111902 2.49255e-05 -0.000149462)
(0.112527 7.2946e-05 6.90408e-06)
(0.112585 0.000241413 -0.000191138)
(0.113025 6.70839e-05 -0.000464763)
(0.112688 0.000185674 -0.000181567)
(0.113034 -0.000120224 -0.000254646)
(0.112515 -9.34195e-05 -2.49419e-05)
(0.112329 3.52367e-05 6.69204e-05)
(0.111887 -0.000276431 5.90249e-05)
(0.112847 -0.000240552 1.0187e-05)
(0.112029 1.15099e-05 4.27233e-05)
(0.110083 -5.71264e-05 -0.000223333)
(0.112611 -1.41246e-05 7.07972e-05)
(0.109916 0.000137531 -0.000467134)
(0.112486 1.23927e-05 -0.000120545)
(0.113025 1.39999e-05 -0.000257554)
(0.112359 8.21063e-05 -0.0002658)
(0.112679 9.95987e-05 0.000269268)
(0.109627 7.88789e-05 -7.75604e-05)
(0.108333 4.0353e-05 -0.000315937)
(0.103741 1.8854e-05 -0.000222271)
(0.10877 -0.000432701 -0.000523224)
(0.103071 -0.000321765 -0.000136532)
(0.113249 0.000301185 0.000463283)
(0.112533 0.00028789 0.000118295)
(0.11196 -0.000117713 -0.000175141)
(0.109634 -0.000126028 -9.6617e-05)
(0.112604 -1.85283e-05 -0.000333444)
(0.112488 -1.74398e-05 -0.000177879)
(0.111921 -6.92354e-05 -0.000142093)
(0.109542 -9.25812e-05 -3.96701e-05)
(0.113111 0.000120494 0.000356984)
(0.113213 -4.3791e-08 0.000367953)
(0.113195 1.27757e-05 0.000348023)
(0.11256 7.31616e-05 0.000321712)
(0.112466 0.000368319 3.9471e-05)
(0.112389 0.000223883 -1.52056e-05)
(0.112953 0.000261537 -5.08748e-05)
(0.10816 -1.26123e-06 -0.000129724)
(0.109239 0.000138675 2.55464e-05)
(0.102702 -4.58973e-05 -0.000217115)
(0.109778 0.00024799 -0.00032276)
(0.109169 -8.23979e-05 -0.000294217)
(0.108657 8.13575e-05 -0.000324386)
(0.103275 -8.5921e-05 -0.000509879)
(0.112757 -7.90724e-05 -9.03854e-06)
(0.111744 -0.000136109 -0.000272983)
(0.112814 -0.000217818 -0.000100814)
(0.111227 -0.000126605 -0.000195923)
(0.112315 -0.000108411 -0.000278341)
(0.108914 -9.83469e-05 -0.000292217)
(0.10927 -7.18651e-05 -0.000382156)
(0.103198 -0.000165875 -0.000223444)
(0.109854 -0.000175043 -0.000142376)
(0.108709 8.03087e-05 -2.56822e-05)
(0.108444 -2.33335e-05 9.12517e-05)
(0.10404 -4.30161e-05 2.99526e-05)
(0.112626 -0.000267554 -3.8308e-05)
(0.112083 -0.00011977 1.06499e-05)
(0.112022 -0.000103745 -0.00019931)
(0.112693 -2.4168e-05 -0.000204779)
(0.109648 -0.000111101 -0.000561852)
(0.109486 0.00023358 -0.000373694)
(0.111081 -3.2653e-05 -0.000319168)
(0.103575 -0.00012121 -0.00052204)
(0.111586 0.00016278 9.96052e-05)
(0.111745 -0.000240436 -5.89787e-05)
(0.111598 -8.92645e-05 9.0381e-06)
(0.109354 9.39342e-06 0.000186261)
(0.109882 -0.000174994 -0.000182723)
(0.111607 2.26828e-05 -0.000364731)
(0.111422 8.40214e-05 -0.000461113)
(0.111824 -9.00699e-06 -0.000140503)
(0.112797 -8.54974e-05 -6.56657e-05)
(0.112229 0.000141556 3.87399e-05)
(0.110142 0.000162438 -0.000404616)
(0.108807 0.000300149 -0.000315954)
(0.10979 0.000582064 -0.000365245)
(0.10253 -0.000154769 -0.000372898)
(0.113353 -6.09667e-05 6.00404e-05)
(0.113343 -0.000143113 0.000104414)
(0.112351 -3.41602e-05 4.40589e-05)
(0.113345 1.87786e-05 2.32162e-05)
(0.112382 -6.5567e-05 -0.000186148)
(0.110843 -2.21645e-05 -0.000147953)
(0.110619 5.15183e-05 -0.000335467)
(0.112217 -3.46112e-06 -3.89951e-05)
(0.110468 -0.000604663 6.93972e-06)
(0.110719 -0.000435249 0.000132536)
(0.103666 -0.000108196 -7.6544e-05)
(0.110074 -0.00050236 0.000617073)
(0.109329 -0.000275605 0.000524999)
(0.110323 -0.000384359 0.000358162)
(0.103096 -3.37701e-05 9.51926e-05)
(0.111436 -0.00014169 -9.06798e-05)
(0.108779 -0.000137897 -4.5662e-05)
(0.110041 -0.000183238 -0.000532797)
(0.113394 -5.70951e-05 -0.000114031)
(0.112835 -2.79352e-05 -0.000208009)
(0.109014 0.000165831 0.00023316)
(0.108493 6.77799e-05 0.000152563)
(0.109467 -0.00017856 -6.1522e-05)
(0.102991 -6.7447e-05 0.000166942)
(0.110319 -0.000191841 -0.000376837)
(0.110244 0.000231659 -8.88407e-05)
(0.103612 -0.000319815 -0.000480518)
(0.108527 -5.74714e-05 0.000166241)
(0.109934 0.000134322 9.02546e-05)
(0.108764 -0.000156467 1.43138e-05)
(0.10363 -8.51584e-05 1.25799e-06)
(0.10877 -0.000412311 -1.02247e-06)
(0.110116 -0.000385645 0.000360191)
(0.109521 -0.00060841 -8.70183e-05)
(0.102949 -0.000237234 -0.000124768)
(0.110827 0.000107229 -0.0001411)
(0.11141 0.000133106 4.68692e-05)
(0.111614 -7.55152e-05 1.74439e-05)
(0.108921 5.45925e-05 1.80439e-05)
(0.109183 0.000425582 0.00017684)
(0.108715 0.000212557 0.000261346)
(0.103613 0.000192767 0.000189973)
(0.11275 -0.000360779 4.5153e-06)
(0.112459 -0.000275741 7.76025e-05)
(0.112745 -0.000258656 -6.52252e-05)
(0.112534 -0.0004014 6.33893e-06)
(0.112495 -0.00017337 0.000177282)
(0.112554 -0.000128417 -0.00011623)
(0.113212 -0.000228405 8.68027e-05)
(0.11338 -0.000159953 0.000108131)
(0.107628 0.000129651 -0.000541872)
(0.107737 4.38693e-06 -0.000103406)
(0.10894 4.75683e-05 -0.000180546)
(0.103782 -0.000263743 -0.000191628)
(0.110459 -0.00014658 0.000165218)
(0.111025 -0.000474569 2.66292e-05)
(0.110976 -0.000163466 8.44925e-05)
(0.106837 -0.000110932 0.000137115)
(0.111263 0.000409929 -0.000227861)
(0.112079 0.000272525 -0.000423626)
(0.112182 0.000271774 -0.000443301)
(0.109909 0.000158283 -0.000618781)
(0.109819 -6.84091e-05 -4.01213e-05)
(0.108338 -2.18187e-05 -0.000107643)
(0.108069 -0.00021433 -8.57878e-05)
(0.103752 4.91601e-05 -4.02245e-05)
(0.112523 -0.000111698 0.000217961)
(0.109989 -1.39386e-05 -1.21586e-05)
(0.112146 -0.000285074 -0.000314817)
(0.113056 -9.27357e-05 -0.000242485)
(0.112771 -0.000124057 -6.22398e-05)
(0.112513 3.41884e-05 -0.000115979)
(0.11218 0.000268405 -7.67593e-05)
(0.111425 0.000235917 -9.16649e-05)
(0.109883 0.00035122 0.000147849)
(0.112579 9.24393e-05 -0.000106638)
(0.11214 0.000193753 4.21463e-05)
(0.112561 0.000125464 0.000193996)
(0.11259 0.000121817 6.94239e-05)
(0.112675 -3.1676e-05 -3.07743e-05)
(0.112656 -0.000138814 -2.71749e-05)
(0.109796 -0.000133707 -8.78629e-05)
(0.112125 -3.98423e-05 -0.000202601)
(0.111556 -0.000120908 -3.63537e-05)
(0.112137 -0.000113392 -3.93245e-05)
(0.109156 2.98628e-05 -0.000273977)
(0.112298 -3.63455e-05 -0.000127741)
(0.112471 0.000158721 -4.855e-05)
(0.109831 0.000104834 -3.0978e-05)
(0.109833 -0.000311675 0.000396308)
(0.111742 -0.000396177 0.000315238)
(0.111791 -0.000441427 0.000338505)
(0.111079 7.1158e-05 0.000125793)
(0.111967 -5.85398e-05 -0.000106846)
(0.112007 6.61307e-05 -6.76284e-05)
(0.10958 0.000220096 0.000166855)
(0.10955 0.000305723 0.000180924)
(0.107946 0.000295751 -0.000184169)
(0.103109 0.000559501 -0.000152036)
(0.1122 -7.12818e-05 0.00015068)
(0.112819 0.000161413 -0.00030896)
(0.113042 0.000631326 -0.000240781)
(0.111849 -0.000172348 6.10959e-05)
(0.1118 -0.000196668 0.000194703)
(0.108693 -0.000317003 0.000270079)
(0.112112 0.000235431 6.22292e-05)
(0.112632 -4.30902e-05 7.39954e-05)
(0.112578 0.00013687 -0.000171045)
(0.112648 0.000215697 -0.000122716)
(0.109479 1.59553e-05 -0.000102662)
(0.110044 -5.84784e-05 2.21735e-05)
(0.109616 -0.000168123 -9.51301e-05)
(0.102922 0.000128653 1.05435e-05)
(0.108545 0.000137443 0.000280315)
(0.10844 -6.95094e-05 0.000280199)
(0.109362 -2.49141e-05 0.000456773)
(0.103358 -0.000112993 0.000260457)
(0.111782 -9.65184e-05 -0.000361127)
(0.112274 7.21151e-05 -1.24661e-05)
(0.112854 -0.00013262 -0.000112868)
(0.112625 0.000167607 -9.50735e-05)
(0.112123 -0.000200975 9.56719e-05)
(0.112832 1.20791e-05 7.67466e-05)
(0.111859 0.000135071 0.000112622)
(0.110671 -9.84614e-05 0.00052757)
(0.111846 -0.000117105 0.000138943)
(0.111706 -0.000203446 0.000309379)
(0.111046 -0.000164282 0.000518766)
(0.111758 -7.04818e-05 7.0706e-05)
(0.112495 -0.0001777 6.53729e-05)
(0.109795 9.37478e-08 0.000201832)
(0.112713 -9.21522e-05 -0.000263753)
(0.112773 9.02375e-05 -0.000172607)
(0.111929 -7.43006e-05 -1.44217e-05)
(0.109811 0.000169677 -0.000122954)
(0.111629 2.90082e-05 -0.000166667)
(0.109841 3.96072e-05 -0.000154451)
(0.111663 0.000141093 -6.05198e-05)
(0.109586 0.000301479 0.000115782)
(0.111473 0.000427995 0.000226458)
(0.110062 0.000202291 0.000408347)
(0.111676 0.000341273 0.00024526)
(0.113029 8.68601e-05 -1.27844e-05)
(0.111994 0.00028707 -0.00016819)
(0.112224 -0.000189744 -0.000320788)
(0.109641 7.47406e-05 7.80442e-05)
(0.103243 2.99367e-05 -0.000116396)
(0.109803 0.00015574 -8.91339e-05)
(0.111476 7.5708e-05 -7.45183e-05)
(0.113093 0.000157155 -5.61185e-05)
(0.112993 -5.92813e-05 -1.93349e-05)
(0.112638 1.10006e-05 9.32081e-06)
(0.113089 -4.97486e-05 6.71615e-05)
(0.112664 -0.000231298 5.33437e-05)
(0.112596 -0.000267121 -0.000142265)
(0.112624 -0.000290922 -5.80356e-05)
(0.112623 -0.000257066 -0.000223831)
(0.112765 -0.000315859 -2.54711e-05)
(0.112668 -0.000328248 -6.01227e-05)
(0.11181 -0.000231724 4.0892e-05)
(0.111533 -0.000597745 0.000236228)
(0.112423 -0.000589152 -2.92067e-05)
(0.112248 -0.000548422 -0.000140776)
(0.111512 -5.85234e-05 -0.000179418)
(0.111458 1.1211e-05 -0.000342541)
(0.109791 -1.08497e-05 0.000120839)
(0.112681 9.7813e-05 -2.42766e-05)
(0.110064 -0.000102932 -1.38864e-05)
(0.111624 0.000312757 -0.000117805)
(0.111663 0.000325865 -0.000193415)
(0.112201 -0.000118123 -9.62993e-05)
(0.109617 -0.000128562 -8.50791e-05)
(0.112594 6.05777e-05 -0.000236417)
(0.111783 0.000148588 -0.000311719)
(0.112238 -7.34185e-05 -0.000345034)
(0.103401 3.37652e-05 -0.000218511)
(0.11196 6.6063e-05 -0.000167403)
(0.109932 -2.13487e-08 -0.000154002)
(0.109986 0.000136277 -0.000173484)
(0.111606 0.00021166 4.70579e-05)
(0.109872 0.000257499 -0.000153499)
(0.111785 0.00044798 -0.000117916)
(0.111954 -3.01497e-05 -6.19005e-05)
(0.111708 -9.52709e-06 -0.000140211)
(0.111616 9.86085e-05 1.49231e-05)
(0.110003 9.06623e-05 -0.000164522)
(0.112654 3.14273e-05 -0.000187094)
(0.111737 -2.62798e-05 -0.000376049)
(0.112379 -0.000115637 -0.000261462)
(0.111546 -0.000242258 -0.000322761)
(0.111487 -0.000287723 -0.00027891)
(0.112527 -0.000198974 -0.000127835)
(0.112047 -0.000254 7.68735e-06)
(0.112541 0.000106052 -0.000289739)
(0.112695 2.8578e-05 -0.000180743)
(0.109253 -0.000439623 -9.80758e-05)
(0.109781 -0.000583514 -0.000223335)
(0.103227 -4.99324e-05 -0.000179404)
(0.111066 -0.000321993 -2.48718e-05)
(0.112107 -0.000313471 -5.1269e-05)
(0.112724 -0.000180046 -0.000208745)
(0.111872 3.22052e-06 -0.00022725)
(0.11284 -0.000257556 -0.000177208)
(0.113067 -7.21912e-05 1.33644e-05)
(0.112816 2.68202e-05 -9.7674e-05)
(0.112348 5.42833e-05 5.75019e-05)
(0.110075 -0.000176557 -0.000338391)
(0.112298 -0.000204123 -0.000352557)
(0.10738 0.000307036 0.000218802)
(0.108514 -8.63926e-05 0.000573442)
(0.108374 -0.000132253 0.000408528)
(0.102164 -0.000157939 0.000480377)
(0.112241 -0.000320385 -4.80842e-05)
(0.111843 -0.000436641 0.000106237)
(0.110138 -0.000339456 0.000480595)
(0.108229 -0.000479863 -0.000269838)
(0.103652 -0.000157852 -0.000150745)
(0.111306 0.000110597 -0.000154593)
(0.111379 0.000102803 -3.10905e-05)
(0.101704 -4.24073e-05 -0.000209604)
(0.111962 -0.00016421 0.000144227)
(0.112829 -0.00022966 0.000146412)
(0.108869 1.87613e-05 0.000204527)
(0.110378 0.000354434 0.0002308)
(0.110759 1.68902e-05 9.12376e-05)
(0.109441 0.0001795 -0.000111904)
(0.109474 0.000112495 -0.000166471)
(0.109699 0.00021226 -0.000380206)
(0.102991 5.50564e-05 -1.76501e-05)
(0.111697 -5.10193e-05 4.59877e-06)
(0.111404 -5.36457e-05 -9.12263e-05)
(0.111071 -1.20471e-05 -3.28723e-05)
(0.112346 0.000345461 -0.000124946)
(0.112852 0.000249593 -0.000155054)
(0.111198 -3.97695e-05 -0.000155701)
(0.111823 -0.000150605 -0.000216315)
(0.112694 -0.0005291 -0.000252691)
(0.112458 0.000101338 0.000224715)
(0.10992 -0.000112528 -0.000115657)
(0.109848 -1.41536e-05 -0.000141041)
(0.102758 -9.62906e-06 -4.10699e-05)
(0.108906 -0.000370669 3.09227e-05)
(0.108105 -0.000168916 0.000271146)
(0.103487 -0.000151636 5.09081e-05)
(0.112435 -0.000374169 0.000121674)
(0.111456 -2.9515e-05 0.000260829)
(0.112097 -0.000193157 0.000247687)
(0.111388 -0.000111728 8.65292e-06)
(0.112506 1.8572e-05 -0.000243331)
(0.11307 -4.77172e-05 -0.000240402)
(0.111888 0.000121286 -0.000267084)
(0.109359 0.000302756 7.05652e-05)
(0.109903 0.000142373 3.70089e-05)
(0.102348 0.000263986 -0.00036131)
(0.112758 -0.000471658 7.74309e-05)
(0.112822 -0.000478804 0.000120918)
(0.112639 -0.000450149 0.000109918)
(0.11067 -6.97013e-05 -8.35059e-05)
(0.109392 7.72926e-05 -0.00028548)
(0.103531 8.81041e-06 -0.00024381)
(0.108295 -3.33039e-05 0.000160944)
(0.108285 -0.00019322 0.000181195)
(0.103761 -7.23515e-05 -6.19737e-06)
(0.111836 0.000179046 -8.23568e-05)
(0.111721 0.000164099 -9.32148e-05)
(0.1124 0.000173233 0.000121147)
(0.109859 -0.000106151 -7.59473e-05)
(0.111479 -0.000156271 -0.000269369)
(0.112554 -0.000238536 -4.65404e-07)
(0.1114 -0.000145284 0.000272475)
(0.112221 -5.56615e-05 -3.62555e-05)
(0.110914 -0.000451333 0.000235669)
(0.111685 -0.000383287 9.98995e-05)
(0.111751 -0.000398368 9.58483e-05)
(0.108649 -0.000327872 8.97013e-05)
(0.108682 -2.79426e-06 0.000357279)
(0.110738 0.000204107 0.000219991)
(0.10978 9.89846e-06 -9.8096e-06)