/*--------------------------------*- C++ -*----------------------------------*\
| =========                 |                                                 |
| \\      /  F ield         | OpenFOAM: The Open Source CFD Toolbox           |
|  \\    /   O peration     | Version:  2212                                  |
|   \\  /    A nd           | Website:  www.openfoam.com                      |
|    \\/     M anipulation  |                                                 |
\*---------------------------------------------------------------------------*/
FoamFile
{
    version     2.0;
    format      ascii;
    arch        "LSB;label=32;scalar=64";
    class       volScalarField;
    location    "0.054";
    object      epsilon;
}
// * * * * * * * * * * * * * * * * * * * * * * * * * * * * * * * * * * * * * //

dimensions      [0 2 -3 0 0 0 0];

internalField   nonuniform List<scalar> 
31639
(
0.257937
0.258504
0.259838
0.253066
0.264591
0.263298
0.270291
0.260016
0.260279
0.254337
0.256958
0.25483
0.256517
0.253059
0.258304
0.27268
0.259476
0.267186
0.267979
0.261115
0.286603
0.256593
0.254189
0.267701
0.272764
0.261085
0.259884
0.2121
0.268377
0.255642
0.253695
0.269573
0.25258
0.272323
0.282515
0.255509
0.288639
0.254855
0.254853
0.298798
0.279111
0.284871
0.253016
0.258024
0.258582
0.254352
0.260399
0.264537
0.258071
0.253495
0.254567
0.292046
0.255427
0.292364
0.265824
0.261865
0.287986
0.259817
0.258039
0.285524
0.26032
0.259939
0.275546
0.260938
0.258289
0.252877
0.259128
0.257983
0.28058
0.253204
0.254573
0.261518
0.254311
0.258599
0.255243
0.284277
0.253477
0.266122
0.258046
0.257699
0.272766
0.299267
0.253958
0.257387
0.254325
0.254486
0.253292
0.25343
0.277753
0.253205
0.258139
0.262383
0.283234
0.258966
0.271824
0.260785
0.261839
0.258695
0.258017
0.285719
0.254645
0.255559
0.257529
0.286216
0.28419
0.254155
0.287964
0.292889
0.272484
0.291352
0.2534
0.285243
0.261486
0.267314
0.257304
0.290916
0.267036
0.267761
0.259894
0.258953
0.258283
0.255215
0.254552
0.259565
0.262879
0.255515
0.259758
0.272139
0.273136
0.253697
0.252495
0.253196
0.253873
0.268707
0.256998
0.257616
0.28385
0.288573
0.254628
0.258615
0.258936
0.254466
0.254615
0.288404
0.294927
0.253909
0.25657
0.283611
0.282412
0.254367
0.279084
0.263116
0.268259
0.258061
0.283835
0.253497
0.262037
0.281983
0.281483
0.269492
0.254066
0.285278
0.278244
0.288695
0.288707
0.259231
0.285273
0.254824
0.255045
0.284608
0.260636
0.26148
0.283807
0.25688
0.253207
0.256206
0.257934
0.255279
0.256988
0.256145
0.259024
0.265021
0.258558
0.295467
0.262801
0.254126
0.25822
0.254428
0.28783
0.288034
0.258626
0.257888
0.258699
0.259402
0.258568
0.267239
0.268802
0.2538
0.285311
0.265927
0.255752
0.254856
0.253616
0.253778
0.265182
0.259358
0.259996
0.25784
0.256476
0.296618
0.259697
0.267024
0.258399
0.256701
0.262376
0.253219
0.282535
0.27081
0.258703
0.255672
0.254394
0.264744
0.285696
0.265423
0.286675
0.267275
0.256821
0.274146
0.283948
0.259495
0.257776
0.254689
0.280599
0.290818
0.258881
0.257341
0.284628
0.25359
0.278357
0.287689
0.258982
0.258547
0.259995
0.274429
0.276699
0.260369
0.258059
0.259988
0.2833
0.258816
0.258841
0.285959
0.274557
0.255315
0.256815
0.269051
0.282764
0.254796
0.255841
0.269555
0.252976
0.253903
0.262054
0.254396
0.259645
0.266247
0.284786
0.270301
0.252203
0.25886
0.246298
0.269769
0.264244
0.261223
0.253324
0.263219
0.286022
0.266474
0.275713
0.254559
0.265868
0.255842
0.254166
0.268567
0.282199
0.28067
0.282139
0.292656
0.253914
0.278575
0.259726
0.258823
0.269305
0.280082
0.255809
0.269186
0.279429
0.256629
0.263568
0.279201
0.259799
0.278633
0.258987
0.25904
0.284649
0.266433
0.259961
0.294697
0.29116
0.254472
0.25329
0.246131
0.287061
0.283968
0.254967
0.277717
0.272528
0.255362
0.257851
0.260419
0.255617
0.253306
0.282691
0.252867
0.291738
0.292567
0.257977
0.254955
0.254203
0.253541
0.257772
0.279447
0.257669
0.258639
0.255613
0.256588
0.253225
0.259593
0.260283
0.259819
0.254343
0.256925
0.259872
0.262494
0.258243
0.263879
0.257363
0.258557
0.283535
0.26267
0.253565
0.266269
0.257708
0.252987
0.259413
0.285089
0.259513
0.259406
0.287292
0.256876
0.28147
0.262212
0.249067
0.293127
0.259222
0.260057
0.2844
0.260752
0.281652
0.263447
0.256037
0.261595
0.291997
0.258858
0.281057
0.258917
0.25458
0.256371
0.258157
0.2818
0.254341
0.285963
0.259267
0.291741
0.253517
0.253902
0.253701
0.253471
0.270014
0.258236
0.258788
0.259004
0.259571
0.287404
0.26223
0.256849
0.255614
0.255824
0.261614
0.256424
0.265013
0.28496
0.266548
0.257705
0.255659
0.292787
0.254428
0.25447
0.260054
0.254533
0.254251
0.264321
0.253665
0.274511
0.258748
0.255509
0.290145
0.261378
0.258492
0.281824
0.285667
0.285281
0.27122
0.28909
0.260973
0.250345
0.270513
0.257928
0.284706
0.254821
0.25352
0.259296
0.256714
0.265709
0.255914
0.261318
0.266552
0.253308
0.25784
0.285154
0.259109
0.255526
0.254046
0.258614
0.253926
0.260209
0.258121
0.257756
0.255353
0.258057
0.283092
0.261445
0.293831
0.27281
0.259278
0.286989
0.29419
0.268305
0.25692
0.255992
0.284988
0.258337
0.272566
0.258713
0.258573
0.234552
0.259282
0.293177
0.259417
0.253969
0.254422
0.255635
0.265919
0.284915
0.259713
0.257473
0.254252
0.289959
0.286332
0.259389
0.28639
0.280317
0.259778
0.290028
0.26615
0.276802
0.260216
0.284523
0.253404
0.255031
0.254436
0.254581
0.278043
0.253882
0.254671
0.260299
0.257567
0.257864
0.253513
0.259336
0.271664
0.255998
0.253843
0.258542
0.269491
0.253624
0.258752
0.292677
0.294153
0.259584
0.257669
0.253417
0.261943
0.259168
0.26071
0.25444
0.259597
0.267458
0.263118
0.281678
0.259675
0.262081
0.254666
0.281185
0.276989
0.278498
0.261308
0.258797
0.29172
0.259364
0.27254
0.257962
0.263709
0.254236
0.265308
0.283728
0.257056
0.25244
0.278044
0.255604
0.248612
0.250313
0.260339
0.212724
0.2788
0.258743
0.259138
0.282055
0.283281
0.25887
0.258341
0.258102
0.278795
0.265017
0.254531
0.259423
0.283704
0.276159
0.258754
0.253917
0.286883
0.293781
0.256595
0.287661
0.257507
0.255117
0.286587
0.258145
0.259417
0.266512
0.291281
0.253858
0.266582
0.280622
0.253462
0.257354
0.26045
0.255186
0.292246
0.269975
0.261964
0.268134
0.280096
0.269584
0.261636
0.253426
0.255696
0.256051
0.253565
0.255764
0.273503
0.254648
0.25642
0.256952
0.276901
0.258726
0.261942
0.25491
0.282471
0.292629
0.253089
0.275207
0.253367
0.261277
0.281979
0.261634
0.254404
0.265049
0.259312
0.284624
0.254796
0.258827
0.292858
0.254588
0.255767
0.219904
0.284047
0.285013
0.269625
0.257861
0.259901
0.26134
0.258109
0.255031
0.259805
0.261247
0.285042
0.252826
0.290807
0.258105
0.266917
0.261683
0.253714
0.257949
0.276222
0.287769
0.287392
0.265904
0.254047
0.27469
0.253593
0.268202
0.254047
0.284468
0.260763
0.256935
0.252553
0.254595
0.253376
0.257399
0.263508
0.254102
0.254953
0.255871
0.277399
0.254782
0.282604
0.255518
0.26452
0.260709
0.280928
0.260504
0.291693
0.253801
0.264861
0.255995
0.260068
0.260609
0.280764
0.243797
0.285997
0.298512
0.284328
0.282177
0.283709
0.262308
0.291504
0.252883
0.260921
0.294856
0.255794
0.28387
0.268372
0.259139
0.266925
0.258799
0.253014
0.25179
0.256304
0.263731
0.256712
0.268954
0.266455
0.287556
0.251736
0.254196
0.259744
0.257321
0.254961
0.285425
0.25513
0.255675
0.255161
0.254449
0.254788
0.257756
0.254212
0.253931
0.261049
0.255982
0.255846
0.28162
0.255228
0.268358
0.260418
0.259043
0.257724
0.271001
0.255977
0.26098
0.260099
0.267101
0.284063
0.25382
0.261125
0.270533
0.287276
0.254649
0.286896
0.252204
0.258963
0.259925
0.260318
0.253858
0.258229
0.287723
0.2579
0.269319
0.26377
0.279686
0.25431
0.255163
0.261734
0.260549
0.259896
0.260013
0.268917
0.262996
0.290435
0.254012
0.25944
0.252588
0.279376
0.257886
0.257317
0.260796
0.272096
0.257333
0.254439
0.261515
0.288064
0.289513
0.259765
0.288073
0.275586
0.260606
0.258643
0.252902
0.289199
0.258282
0.253935
0.27964
0.284412
0.256277
0.280165
0.262978
0.28084
0.257412
0.274701
0.269991
0.254691
0.288573
0.260266
0.260195
0.255219
0.256211
0.252539
0.284316
0.254164
0.257435
0.26951
0.253559
0.256314
0.260289
0.248376
0.257899
0.256252
0.25453
0.25593
0.255998
0.266379
0.258854
0.25802
0.281847
0.259243
0.260386
0.254542
0.258868
0.262382
0.253603
0.255594
0.257089
0.257591
0.254727
0.256637
0.259722
0.284864
0.264999
0.254385
0.295472
0.262616
0.261048
0.267218
0.261414
0.253737
0.256052
0.253486
0.262041
0.257443
0.259276
0.257758
0.258825
0.268972
0.284605
0.255355
0.288446
0.263103
0.265958
0.261858
0.259522
0.252995
0.285895
0.255991
0.281455
0.25734
0.270997
0.26011
0.260694
0.253274
0.284378
0.254893
0.254771
0.260638
0.261619
0.26236
0.291708
0.254712
0.256919
0.258122
0.253229
0.253822
0.257218
0.264986
0.255614
0.278999
0.265883
0.25404
0.28415
0.276559
0.25634
0.253611
0.269767
0.266783
0.263729
0.271598
0.259558
0.275493
0.25556
0.257515
0.295933
0.261428
0.252335
0.25895
0.261048
0.257677
0.254437
0.280615
0.280895
0.25277
0.254884
0.25739
0.278351
0.255339
0.255243
0.278686
0.256958
0.254489
0.254658
0.259908
0.254509
0.261764
0.256044
0.257362
0.267821
0.283789
0.258926
0.25767
0.27811
0.253426
0.289184
0.261446
0.264244
0.284322
0.262459
0.267909
0.256597
0.262817
0.257656
0.28764
0.288535
0.264932
0.283839
0.26067
0.253758
0.260265
0.254604
0.269044
0.258806
0.257546
0.268423
0.264921
0.257761
0.25972
0.261407
0.282282
0.260316
0.25788
0.252313
0.253988
0.290045
0.285127
0.26038
0.253276
0.274709
0.261791
0.262668
0.258526
0.255397
0.264771
0.260072
0.262163
0.283803
0.254573
0.260649
0.282289
0.272865
0.25795
0.268933
0.255321
0.256276
0.263559
0.282871
0.254167
0.284168
0.263595
0.260416
0.27466
0.258367
0.288294
0.259707
0.258472
0.261683
0.293178
0.284846
0.252695
0.256069
0.26883
0.253113
0.26019
0.258731
0.287363
0.281355
0.261752
0.261935
0.260882
0.255253
0.252449
0.257481
0.252959
0.260934
0.262432
0.254895
0.288861
0.258598
0.256304
0.258003
0.260991
0.257411
0.268049
0.25357
0.261597
0.291138
0.254601
0.275677
0.25475
0.267717
0.252982
0.284605
0.255704
0.254433
0.262052
0.258411
0.289071
0.253599
0.255428
0.254125
0.285017
0.252806
0.262584
0.253612
0.257986
0.256553
0.255842
0.258881
0.269095
0.257962
0.283875
0.284746
0.285174
0.274842
0.258942
0.287572
0.254311
0.255424
0.260437
0.262537
0.260171
0.259896
0.255864
0.259772
0.268445
0.255125
0.262353
0.27113
0.253428
0.25786
0.26089
0.256059
0.270859
0.25685
0.255822
0.253249
0.256917
0.256397
0.27041
0.25512
0.263104
0.260908
0.259088
0.258943
0.253097
0.258732
0.255643
0.266808
0.261024
0.258323
0.28277
0.291037
0.256116
0.271561
0.258739
0.269569
0.287208
0.261557
0.255867
0.277091
0.268925
0.258388
0.254003
0.254968
0.260674
0.280781
0.260018
0.261716
0.267754
0.260282
0.260403
0.292701
0.272429
0.271953
0.260714
0.258237
0.260658
0.257956
0.260115
0.259483
0.261295
0.277269
0.271985
0.295493
0.261148
0.259806
0.257348
0.255622
0.25396
0.285222
0.259418
0.267537
0.261272
0.259196
0.254966
0.287469
0.2526
0.284057
0.257995
0.261064
0.263291
0.257965
0.26616
0.260449
0.277506
0.26154
0.266396
0.260179
0.268019
0.284292
0.253639
0.257156
0.260629
0.255413
0.256078
0.282949
0.269196
0.26284
0.279872
0.254594
0.257919
0.25379
0.252951
0.25373
0.284348
0.287917
0.28211
0.254585
0.289344
0.254395
0.259137
0.280951
0.268263
0.25656
0.255514
0.272465
0.268852
0.260134
0.258868
0.256789
0.261442
0.278361
0.260167
0.258961
0.257158
0.259385
0.254404
0.254903
0.254357
0.260085
0.284665
0.289299
0.26014
0.271066
0.25905
0.291455
0.257244
0.262425
0.253304
0.283304
0.261652
0.25659
0.261061
0.26985
0.28449
0.256322
0.276427
0.260014
0.262686
0.252774
0.252796
0.259207
0.290689
0.286559
0.260925
0.264518
0.268102
0.257788
0.288943
0.246916
0.255654
0.270567
0.256233
0.251311
0.257318
0.253564
0.255903
0.259475
0.259048
0.289485
0.268092
0.254615
0.284737
0.258132
0.262157
0.27727
0.258545
0.232742
0.259777
0.254905
0.25534
0.288489
0.261136
0.26023
0.285144
0.267889
0.259821
0.267603
0.257479
0.281748
0.282531
0.260745
0.267086
0.252877
0.254697
0.253572
0.258481
0.259418
0.257935
0.257987
0.25504
0.278441
0.258886
0.264307
0.255214
0.259835
0.269415
0.265009
0.257923
0.286237
0.261635
0.256272
0.262626
0.299491
0.261989
0.288775
0.258968
0.293348
0.256952
0.255625
0.259651
0.258257
0.278689
0.282599
0.256061
0.257668
0.259153
0.259472
0.268806
0.253699
0.256977
0.255196
0.285462
0.272259
0.25596
0.255872
0.263019
0.261743
0.284684
0.25688
0.254788
0.257579
0.258368
0.258479
0.25916
0.254297
0.256597
0.281603
0.259255
0.258143
0.259524
0.261038
0.259024
0.293863
0.275185
0.255061
0.258313
0.257627
0.257372
0.257053
0.253892
0.259424
0.261547
0.255712
0.254956
0.270301
0.265895
0.259501
0.258934
0.255666
0.290808
0.260564
0.284705
0.255046
0.285688
0.28242
0.257857
0.289289
0.270199
0.258382
0.254245
0.254461
0.269863
0.263417
0.253454
0.277909
0.281683
0.269473
0.273075
0.254814
0.258663
0.26065
0.287509
0.258316
0.254619
0.254107
0.28318
0.280548
0.26209
0.258842
0.258396
0.274649
0.283476
0.26433
0.269051
0.254017
0.256675
0.288833
0.259083
0.257144
0.281145
0.292288
0.254774
0.27482
0.276129
0.252771
0.258249
0.253597
0.254244
0.256693
0.268237
0.255496
0.270715
0.253568
0.27045
0.254053
0.256541
0.258903
0.282192
0.252956
0.251662
0.2641
0.260123
0.260874
0.277135
0.225334
0.258842
0.266196
0.253303
0.26699
0.249742
0.284753
0.256005
0.255651
0.288425
0.256309
0.261064
0.294717
0.283383
0.259207
0.25813
0.256435
0.269535
0.281755
0.254373
0.256144
0.256093
0.259387
0.252712
0.285615
0.256072
0.26009
0.284112
0.283262
0.299664
0.278211
0.254027
0.269072
0.260238
0.25617
0.270763
0.269066
0.290584
0.291051
0.255103
0.255043
0.282084
0.256756
0.260294
0.284422
0.262316
0.264756
0.279925
0.264797
0.251627
0.280601
0.292074
0.25312
0.255988
0.275344
0.257849
0.272062
0.276385
0.283551
0.257978
0.280035
0.286662
0.260404
0.253069
0.261548
0.260994
0.256354
0.260997
0.252634
0.223843
0.258758
0.282356
0.253175
0.257096
0.258681
0.269231
0.257784
0.279165
0.256516
0.259695
0.266833
0.286558
0.287684
0.29507
0.268723
0.28468
0.263899
0.278962
0.266527
0.254144
0.257555
0.266662
0.258699
0.259623
0.26187
0.254264
0.289597
0.260036
0.253532
0.253428
0.259488
0.253649
0.276806
0.261093
0.260764
0.285797
0.260442
0.252921
0.25493
0.249427
0.256789
0.261004
0.292271
0.285353
0.260022
0.254184
0.261438
0.25387
0.269718
0.2662
0.279184
0.288288
0.287677
0.29183
0.256681
0.258857
0.250627
0.259646
0.267014
0.256131
0.293699
0.255542
0.258526
0.255823
0.260401
0.260942
0.254789
0.254343
0.256641
0.231704
0.264373
0.256787
0.254371
0.256064
0.255798
0.258474
0.254219
0.256743
0.271983
0.256493
0.25807
0.254835
0.255932
0.287789
0.253574
0.256407
0.258465
0.253535
0.283203
0.293702
0.259633
0.257122
0.270632
0.255095
0.253335
0.252585
0.252122
0.268764
0.258589
0.261567
0.256776
0.290824
0.290738
0.262746
0.260387
0.280016
0.254704
0.28343
0.265022
0.260242
0.260273
0.266875
0.252212
0.261243
0.25876
0.258628
0.258854
0.258357
0.269122
0.292229
0.254986
0.298526
0.297182
0.229844
0.28311
0.289236
0.263818
0.260623
0.282637
0.268939
0.297235
0.281625
0.25663
0.257917
0.287878
0.288074
0.254256
0.28776
0.259115
0.254842
0.264771
0.254833
0.280125
0.283858
0.264079
0.25684
0.278224
0.282694
0.26456
0.271694
0.259285
0.25887
0.286699
0.25611
0.288016
0.289137
0.266743
0.25754
0.271373
0.267724
0.267079
0.254503
0.291219
0.279397
0.261181
0.248103
0.257079
0.291084
0.294349
0.266066
0.251969
0.258505
0.261526
0.262812
0.257346
0.257601
0.281226
0.253742
0.270532
0.282808
0.293792
0.253571
0.25872
0.254532
0.257734
0.255251
0.284646
0.265911
0.291059
0.301801
0.261914
0.28405
0.271004
0.259005
0.234643
0.284177
0.254316
0.255596
0.253724
0.258438
0.303707
0.258046
0.285233
0.255728
0.287342
0.254344
0.2948
0.260153
0.263939
0.271956
0.267874
0.293295
0.272507
0.258125
0.254987
0.257393
0.256513
0.25601
0.285748
0.254781
0.22158
0.258484
0.258
0.25601
0.258999
0.246697
0.257056
0.265885
0.269816
0.269745
0.25569
0.255699
0.269814
0.274596
0.258962
0.26412
0.255987
0.249904
0.258264
0.26321
0.262286
0.25335
0.255702
0.25481
0.262328
0.256505
0.259728
0.24134
0.257887
0.268878
0.257262
0.261521
0.252747
0.28012
0.279306
0.259492
0.249277
0.251994
0.246104
0.254433
0.259327
0.256553
0.279934
0.270213
0.255014
0.255949
0.254749
0.253614
0.269013
0.252291
0.283356
0.253593
0.268928
0.258387
0.266228
0.259437
0.257327
0.254695
0.283399
0.2556
0.252503
0.263212
0.280599
0.25492
0.253787
0.25541
0.25849
0.258532
0.259009
0.284051
0.25318
0.267645
0.259423
0.273397
0.271073
0.279548
0.288245
0.269499
0.255386
0.261527
0.279759
0.264143
0.285344
0.262043
0.260696
0.29295
0.282437
0.273116
0.261009
0.258844
0.267604
0.236693
0.265314
0.235114
0.27471
0.252946
0.25422
0.256176
0.242489
0.261268
0.289681
0.279789
0.257829
0.271163
0.266306
0.255308
0.253761
0.258438
0.250537
0.288918
0.246994
0.254058
0.265767
0.252239
0.250965
0.258902
0.249604
0.254388
0.269435
0.280972
0.261039
0.287863
0.29198
0.264877
0.260736
0.261342
0.260201
0.259243
0.259548
0.294607
0.26863
0.251847
0.256822
0.288128
0.265932
0.274757
0.257988
0.254074
0.267687
0.257687
0.256365
0.257579
0.287494
0.255149
0.28738
0.252139
0.253774
0.256355
0.251926
0.257901
0.252294
0.283628
0.248738
0.254355
0.273671
0.255963
0.261073
0.268023
0.256676
0.263929
0.255461
0.255016
0.251531
0.258343
0.254137
0.262103
0.253618
0.279765
0.259575
0.285814
0.28414
0.26113
0.259375
0.25943
0.256461
0.247144
0.254555
0.287304
0.258085
0.254257
0.259962
0.253057
0.283587
0.290459
0.259854
0.291841
0.253668
0.257983
0.293039
0.263572
0.257394
0.262064
0.285717
0.275685
0.290019
0.255511
0.290539
0.25668
0.257897
0.290234
0.257612
0.256019
0.254778
0.252886
0.275814
0.255106
0.256395
0.277259
0.258186
0.254325
0.260053
0.2804
0.24917
0.261359
0.254456
0.268035
0.256915
0.265815
0.266791
0.268814
0.266963
0.246768
0.255351
0.255325
0.275039
0.260243
0.257792
0.252565
0.258285
0.293305
0.252618
0.277205
0.257034
0.253609
0.251779
0.268598
0.259123
0.257888
0.260507
0.257134
0.264021
0.284562
0.282009
0.26026
0.254764
0.237081
0.269204
0.253998
0.282001
0.257866
0.286741
0.256461
0.254631
0.256311
0.285165
0.254975
0.283487
0.258447
0.260323
0.273506
0.259329
0.276564
0.270244
0.258039
0.284384
0.270844
0.259598
0.295012
0.260652
0.255769
0.294507
0.270655
0.2469
0.263483
0.260918
0.254595
0.256637
0.25179
0.271422
0.288059
0.292266
0.212195
0.253438
0.243969
0.255299
0.256514
0.280915
0.280665
0.258835
0.259112
0.290956
0.258284
0.256377
0.269787
0.253695
0.261025
0.251093
0.278011
0.264779
0.2565
0.29906
0.252372
0.244251
0.255053
0.253889
0.254794
0.259876
0.287552
0.25557
0.259478
0.256902
0.254358
0.246769
0.251642
0.256526
0.260033
0.252578
0.259843
0.256196
0.283077
0.264022
0.253129
0.242186
0.255446
0.25955
0.261545
0.254511
0.282758
0.254944
0.282931
0.257216
0.257672
0.264976
0.257598
0.267347
0.26349
0.254157
0.264737
0.244571
0.237676
0.256175
0.288623
0.25913
0.258826
0.272324
0.253793
0.257569
0.25409
0.254373
0.286067
0.254798
0.255047
0.253673
0.262685
0.260006
0.290204
0.279584
0.248954
0.28377
0.25611
0.25642
0.278669
0.262268
0.251923
0.270637
0.272261
0.274
0.267349
0.263646
0.248987
0.268447
0.252858
0.244022
0.255527
0.288248
0.256324
0.255423
0.252344
0.281784
0.272519
0.262106
0.213252
0.281304
0.258585
0.262
0.255689
0.246063
0.25507
0.256826
0.262873
0.255434
0.261202
0.266022
0.266496
0.253882
0.255463
0.259192
0.248188
0.251602
0.277582
0.285905
0.262238
0.226733
0.259654
0.253545
0.25635
0.25216
0.256391
0.24588
0.257711
0.251196
0.277083
0.262757
0.265899
0.251539
0.256073
0.251622
0.256978
0.261754
0.264732
0.256624
0.259366
0.259437
0.254446
0.260307
0.270245
0.269944
0.280038
0.26546
0.257751
0.280851
0.254889
0.261443
0.253816
0.258223
0.255425
0.256883
0.246021
0.243757
0.259465
0.258771
0.253074
0.267566
0.287281
0.257445
0.264942
0.257351
0.259391
0.259056
0.253983
0.260332
0.28951
0.270942
0.285274
0.258008
0.260988
0.28134
0.255101
0.262572
0.267505
0.258294
0.274695
0.279424
0.25339
0.277477
0.282395
0.218486
0.227616
0.255012
0.274856
0.25665
0.25575
0.272031
0.256668
0.251173
0.246955
0.254636
0.287498
0.254191
0.22493
0.250961
0.276869
0.276755
0.252653
0.287873
0.269162
0.263494
0.254846
0.25116
0.251966
0.26585
0.261044
0.237622
0.261342
0.259943
0.255052
0.26348
0.280333
0.245478
0.259493
0.250601
0.215409
0.280119
0.258353
0.286693
0.283623
0.258617
0.253936
0.268041
0.263537
0.255604
0.250834
0.258367
0.240642
0.291779
0.252184
0.286555
0.256504
0.282996
0.25884
0.25247
0.254061
0.282365
0.265638
0.254316
0.254833
0.260143
0.250588
0.261888
0.25651
0.259598
0.281926
0.259812
0.271171
0.245421
0.249011
0.253882
0.2623
0.252775
0.263991
0.268267
0.283807
0.252019
0.251822
0.292619
0.255985
0.259275
0.258723
0.282055
0.258763
0.265944
0.260777
0.231979
0.267551
0.258576
0.297869
0.257977
0.288289
0.282122
0.261707
0.256032
0.290698
0.257369
0.256945
0.222611
0.292075
0.249509
0.253656
0.29741
0.260908
0.297943
0.290184
0.256225
0.25481
0.262696
0.246126
0.256204
0.258515
0.268093
0.24526
0.262769
0.261067
0.264563
0.249461
0.280334
0.240265
0.265631
0.266689
0.255635
0.251572
0.26121
0.25569
0.262012
0.251131
0.255776
0.263488
0.261106
0.255033
0.261417
0.259606
0.253794
0.25651
0.258475
0.234524
0.239931
0.250058
0.2633
0.27112
0.244782
0.247699
0.271928
0.25891
0.238262
0.282667
0.280241
0.250097
0.252151
0.26147
0.256054
0.25495
0.276651
0.257799
0.260162
0.277212
0.266881
0.285099
0.247826
0.258596
0.25837
0.25321
0.28476
0.261444
0.258294
0.255171
0.252263
0.219034
0.259705
0.257422
0.256236
0.243938
0.257439
0.226624
0.251205
0.25237
0.272833
0.29287
0.270396
0.249438
0.255234
0.276394
0.273013
0.255919
0.256788
0.25981
0.269771
0.296165
0.272443
0.272319
0.259348
0.262257
0.261966
0.255745
0.251779
0.232018
0.256045
0.252483
0.260446
0.268799
0.255937
0.241433
0.281282
0.269396
0.259288
0.231535
0.234527
0.257507
0.261315
0.251539
0.289041
0.261973
0.257072
0.244233
0.244384
0.247758
0.252874
0.256117
0.253354
0.258274
0.264795
0.249444
0.25333
0.254782
0.256641
0.251564
0.251172
0.28109
0.271186
0.289685
0.262818
0.236731
0.264589
0.280298
0.256997
0.270864
0.273413
0.263688
0.251215
0.260261
0.245847
0.258619
0.262072
0.249867
0.281102
0.250879
0.27764
0.257493
0.24614
0.26063
0.259615
0.252694
0.245329
0.275926
0.276217
0.266586
0.267813
0.262225
0.224689
0.257111
0.266161
0.251274
0.262664
0.269503
0.270404
0.226163
0.254317
0.259613
0.28404
0.28308
0.269418
0.247534
0.253097
0.278253
0.221237
0.25171
0.286532
0.254869
0.257672
0.255032
0.286529
0.254542
0.278103
0.274766
0.281562
0.250333
0.260266
0.262663
0.256451
0.257502
0.258998
0.282613
0.296928
0.25651
0.261622
0.257844
0.248913
0.280011
0.251102
0.267492
0.234228
0.259726
0.269885
0.272249
0.25665
0.251561
0.274555
0.280017
0.24168
0.246519
0.251105
0.266718
0.277724
0.282905
0.253679
0.258734
0.24202
0.248792
0.266143
0.257938
0.250133
0.240474
0.256781
0.251004
0.266592
0.258366
0.246384
0.253486
0.265459
0.237
0.253787
0.245425
0.234443
0.249828
0.25167
0.263489
0.246969
0.252641
0.230672
0.265806
0.281585
0.254548
0.263809
0.268473
0.259683
0.239612
0.254959
0.236724
0.282025
0.280393
0.254898
0.220411
0.255728
0.285348
0.268173
0.257017
0.280548
0.257153
0.261017
0.292951
0.262023
0.252907
0.255074
0.256262
0.252479
0.253131
0.253182
0.252156
0.254153
0.260706
0.24772
0.263567
0.252607
0.246972
0.255392
0.255411
0.259562
0.237818
0.255442
0.255901
0.260148
0.268888
0.262168
0.288903
0.249799
0.258603
0.256518
0.254723
0.241801
0.260531
0.288004
0.257224
0.267026
0.269778
0.234321
0.283387
0.248946
0.261981
0.254864
0.25625
0.240329
0.282793
0.261385
0.244735
0.27744
0.246758
0.249024
0.23054
0.25669
0.271116
0.270794
0.240147
0.232835
0.236236
0.278047
0.260402
0.235829
0.252975
0.283796
0.259988
0.245568
0.249078
0.237882
0.257452
0.244832
0.263051
0.260348
0.245484
0.243425
0.272461
0.273016
0.256715
0.267242
0.287131
0.227365
0.253978
0.276868
0.264933
0.280139
0.254489
0.252288
0.257426
0.218014
0.255334
0.256644
0.258571
0.252567
0.258532
0.256999
0.246438
0.264738
0.261154
0.251233
0.260777
0.268252
0.268474
0.257166
0.230917
0.27269
0.235151
0.243254
0.249655
0.23711
0.25539
0.257876
0.256613
0.261255
0.256502
0.240467
0.236193
0.211875
0.25941
0.247569
0.265879
0.268066
0.282343
0.248399
0.25422
0.251494
0.241319
0.240839
0.24371
0.252989
0.269948
0.259938
0.258265
0.23782
0.282525
0.273304
0.282362
0.237165
0.252099
0.227131
0.21666
0.260975
0.232362
0.287634
0.258216
0.285091
0.277654
0.238949
0.274066
0.273109
0.236223
0.226151
0.254019
0.285593
0.255471
0.259223
0.260376
0.249354
0.249914
0.235652
0.238352
0.282747
0.268879
0.258015
0.264866
0.252416
0.263428
0.243268
0.265856
0.258356
0.260372
0.24545
0.212707
0.211577
0.24057
0.251542
0.251273
0.260521
0.244101
0.282551
0.25625
0.263781
0.237934
0.286596
0.247127
0.242315
0.261271
0.286931
0.235366
0.255465
0.212993
0.235123
0.219375
0.2551
0.281213
0.272334
0.248083
0.272762
0.246012
0.280814
0.218823
0.255126
0.268704
0.2565
0.231947
0.293798
0.23381
0.252897
0.228931
0.252648
0.256069
0.240905
0.29356
0.243515
0.261577
0.24943
0.254148
0.259022
0.237229
0.271753
0.285943
0.24696
0.286415
0.225578
0.28581
0.273702
0.239343
0.257055
0.25595
0.26192
0.230827
0.277482
0.25326
0.233551
0.249146
0.277834
0.255112
0.25204
0.224608
0.250786
0.260416
0.253924
0.253416
0.250228
0.252826
0.278731
0.252805
0.25782
0.272098
0.21948
0.241428
0.250473
0.264785
0.258228
0.227119
0.249926
0.23995
0.239761
0.219926
0.210068
0.211209
0.257836
0.262995
0.258053
0.252552
0.271439
0.262864
0.257067
0.258008
0.240154
0.246755
0.256944
0.244737
0.256304
0.272214
0.28307
0.242848
0.256568
0.25346
0.240992
0.257252
0.251055
0.270044
0.237607
0.259825
0.241749
0.243328
0.237255
0.276853
0.233609
0.252657
0.236678
0.247006
0.230418
0.228821
0.248385
0.278258
0.230182
0.287788
0.263688
0.272924
0.221137
0.258765
0.243588
0.23918
0.24315
0.260726
0.251908
0.208554
0.247102
0.228968
0.258028
0.268156
0.261019
0.23761
0.256678
0.254717
0.251395
0.232001
0.240789
0.251349
0.24612
0.220717
0.217012
0.255807
0.227249
0.225374
0.23773
0.247481
0.255003
0.241324
0.229757
0.231913
0.260043
0.240769
0.227681
0.214182
0.249748
0.237976
0.26648
0.272066
0.255597
0.264158
0.242366
0.239313
0.234069
0.214027
0.212718
0.255663
0.268
0.245135
0.257315
0.251519
0.250537
0.244761
0.224303
0.23342
0.281181
0.249232
0.26864
0.223514
0.258045
0.257067
0.2786
0.278955
0.242529
0.229558
0.23092
0.260276
0.248719
0.255979
0.255904
0.23095
0.230302
0.290046
0.231769
0.211034
0.229779
0.245642
0.234109
0.247091
0.231431
0.244499
0.245336
0.214869
0.272655
0.270191
0.245741
0.250353
0.234005
0.243232
0.253061
0.231715
0.282105
0.236763
0.252402
0.26747
0.238379
0.238596
0.257198
0.244372
0.2419
0.254022
0.265557
0.244897
0.252867
0.233808
0.241451
0.226131
0.238489
0.253823
0.244872
0.242408
0.246932
0.258646
0.231098
0.223606
0.224571
0.255876
0.272437
0.219135
0.246087
0.266284
0.257515
0.258023
0.277144
0.223326
0.238966
0.231873
0.227703
0.260333
0.266493
0.268317
0.269546
0.244742
0.249951
0.243133
0.255781
0.234142
0.228266
0.246754
0.222763
0.279572
0.239988
0.245837
0.234542
0.237559
0.273165
0.230638
0.222626
0.233178
0.227446
0.260326
0.250833
0.236051
0.219829
0.234922
0.221174
0.253842
0.26275
0.264014
0.256168
0.240249
0.261267
0.258194
0.28024
0.245198
0.254545
0.231008
0.253696
0.241577
0.234596
0.229537
0.279656
0.234491
0.253637
0.233913
0.251699
0.207508
0.21552
0.230179
0.25002
0.233799
0.226759
0.241693
0.261204
0.256177
0.242989
0.246084
0.262392
0.253922
0.252995
0.218302
0.233229
0.256663
0.228004
0.264914
0.232753
0.219808
0.257184
0.232544
0.246173
0.23629
0.230936
0.227844
0.223692
0.267813
0.265284
0.255784
0.239269
0.232399
0.234058
0.231781
0.247715
0.233028
0.252659
0.230774
0.259428
0.220192
0.263081
0.233261
0.230549
0.259167
0.255792
0.238507
0.244168
0.211339
0.23195
0.234632
0.220719
0.236182
0.251249
0.27002
0.261888
0.261338
0.242065
0.239629
0.231737
0.228093
0.243803
0.246882
0.275956
0.242668
0.245385
0.255568
0.225888
0.234228
0.2745
0.269966
0.283739
0.2568
0.210477
0.224088
0.283671
0.249819
0.230427
0.25388
0.274056
0.280205
0.236472
0.234837
0.251436
0.220551
0.208171
0.258258
0.211308
0.259972
0.232414
0.221393
0.246322
0.230721
0.259721
0.259535
0.217695
0.216982
0.249454
0.224552
0.236861
0.219334
0.228616
0.237589
0.261368
0.225225
0.241053
0.266351
0.242212
0.23836
0.224453
0.249685
0.241418
0.239211
0.224976
0.235298
0.246098
0.251372
0.235904
0.266671
0.234812
0.255096
0.216259
0.23675
0.228507
0.261541
0.241484
0.257737
0.275181
0.238326
0.264278
0.256618
0.242613
0.249675
0.224977
0.231116
0.244094
0.2399
0.254691
0.237446
0.225746
0.249967
0.231884
0.227054
0.2154
0.236273
0.237465
0.261053
0.217875
0.241972
0.254729
0.219636
0.22224
0.261718
0.223618
0.238701
0.237092
0.236842
0.20966
0.215805
0.23569
0.228697
0.246561
0.234545
0.243594
0.218619
0.243938
0.249036
0.236295
0.223808
0.240254
0.266693
0.240551
0.238453
0.260824
0.209955
0.215223
0.243211
0.206977
0.274102
0.247055
0.239066
0.247588
0.23948
0.222255
0.270136
0.255279
0.216391
0.258054
0.248617
0.23453
0.236406
0.229222
0.224648
0.233104
0.252758
0.271158
0.221105
0.2497
0.241424
0.222012
0.279373
0.225671
0.217647
0.21832
0.232294
0.235013
0.234264
0.245107
0.247996
0.249829
0.227236
0.228757
0.221486
0.261173
0.227912
0.207346
0.226849
0.226265
0.219471
0.245087
0.228586
0.252258
0.256077
0.239964
0.260784
0.241032
0.251713
0.245751
0.238633
0.2701
0.253871
0.223162
0.219697
0.243488
0.213156
0.20642
0.21695
0.248862
0.211701
0.209302
0.236531
0.250363
0.249407
0.252326
0.223325
0.212559
0.235772
0.232208
0.222015
0.251805
0.227236
0.255616
0.218274
0.212232
0.221769
0.220147
0.277583
0.232448
0.247481
0.248286
0.243409
0.234965
0.225401
0.24666
0.220056
0.231053
0.25487
0.223202
0.252259
0.210369
0.209548
0.240923
0.229381
0.2317
0.22717
0.245087
0.244848
0.268248
0.281075
0.261415
0.215285
0.209518
0.228461
0.231126
0.210814
0.208944
0.215739
0.226311
0.244077
0.256979
0.243363
0.236605
0.25482
0.208577
0.227055
0.231951
0.249067
0.247196
0.219018
0.23304
0.233501
0.248965
0.260306
0.224238
0.225718
0.25282
0.27013
0.258642
0.227573
0.254688
0.24482
0.244864
0.259141