/*--------------------------------*- C++ -*----------------------------------*\
| =========                 |                                                 |
| \\      /  F ield         | OpenFOAM: The Open Source CFD Toolbox           |
|  \\    /   O peration     | Version:  2212                                  |
|   \\  /    A nd           | Website:  www.openfoam.com                      |
|    \\/     M anipulation  |                                                 |
\*---------------------------------------------------------------------------*/
FoamFile
{
    version     2.0;
    format      ascii;
    arch        "LSB;label=32;scalar=64";
    class       volScalarField;
    location    "0.054";
    object      k;
}
// * * * * * * * * * * * * * * * * * * * * * * * * * * * * * * * * * * * * * //

dimensions      [0 2 -2 0 0 0 0];

internalField   nonuniform List<scalar> 
31639
(
0.00969054
0.0095367
0.0096405
0.00996236
0.00961993
0.00947641
0.00945482
0.00976436
0.00964896
0.00983883
0.00981653
0.00982897
0.00959955
0.00988154
0.00939374
0.00931644
0.00975335
0.00948813
0.00923466
0.00964112
0.00880322
0.0098806
0.0098873
0.00924376
0.00921279
0.00961288
0.00959365
0.0079426
0.00944392
0.00994202
0.00984033
0.00938925
0.00988679
0.00920227
0.00902614
0.00991804
0.00855636
0.0100582
0.00989243
0.00853609
0.00894315
0.00902845
0.00978414
0.00986269
0.00981786
0.00984509
0.0094357
0.00946578
0.00973611
0.00993174
0.00983576
0.00856469
0.00993491
0.00877669
0.00939139
0.00968996
0.00883417
0.00961579
0.00949783
0.00883527
0.00958967
0.00986533
0.00928464
0.0095915
0.00965158
0.00994681
0.0095467
0.00957529
0.00917583
0.0099226
0.00983643
0.00922321
0.00974933
0.00961142
0.00984961
0.00906209
0.00978451
0.0094627
0.00938598
0.00973496
0.00926493
0.00847198
0.00989249
0.00966469
0.00964478
0.00981431
0.00990399
0.00986868
0.0091025
0.00995705
0.00964362
0.00966913
0.00887372
0.00944399
0.00908921
0.00948396
0.00944711
0.00958727
0.00962389
0.00888307
0.0098824
0.00978147
0.00942726
0.00877038
0.00882742
0.0098662
0.00880523
0.00866316
0.00909988
0.00878981
0.00974669
0.00891131
0.00949518
0.00935927
0.00957614
0.00874553
0.00955149
0.00959911
0.00974572
0.00950622
0.00981883
0.00980077
0.0097815
0.00964656
0.00966827
0.0098873
0.00959217
0.00914703
0.0090219
0.00974597
0.00981356
0.00978606
0.00985186
0.00946645
0.00980554
0.00956723
0.00883488
0.00868512
0.0097831
0.00958541
0.00957699
0.00980928
0.00984031
0.00871645
0.00859881
0.00988027
0.00974176
0.00895694
0.00894205
0.00981371
0.00924419
0.0098024
0.00925972
0.00974187
0.00913263
0.00994068
0.00958082
0.00910807
0.0090486
0.00925423
0.009879
0.0091744
0.00926303
0.00883833
0.00896034
0.00948002
0.00910746
0.00995842
0.00982198
0.00872677
0.00936994
0.0093145
0.00899364
0.00956843
0.00995967
0.00970929
0.00963239
0.00995853
0.00957978
0.00955945
0.00941935
0.00948653
0.00934058
0.00858807
0.00966987
0.0100087
0.00952257
0.00993066
0.00895978
0.00894545
0.0101824
0.00980915
0.00976736
0.00952437
0.00960407
0.00946736
0.00945068
0.0097541
0.00879629
0.00942389
0.00989811
0.00998336
0.00974804
0.00969854
0.00959732
0.0095023
0.0094849
0.00932983
0.00987957
0.00859908
0.00953906
0.00948115
0.00970881
0.00983692
0.00990296
0.0098799
0.00900571
0.0092942
0.00988135
0.00974488
0.0096762
0.00956602
0.00879747
0.00954621
0.00884795
0.00947228
0.00980507
0.00935204
0.00898401
0.00974789
0.00968094
0.00999175
0.00909919
0.00896854
0.00972164
0.00974065
0.00879389
0.00991476
0.00927877
0.00879207
0.00943338
0.00972246
0.00954797
0.00938423
0.00933782
0.0097834
0.00941435
0.00936156
0.00899059
0.00950103
0.0093758
0.00906578
0.00939787
0.00995605
0.00979683
0.00940779
0.00905771
0.00974065
0.00976635
0.00974157
0.00993687
0.00985692
0.00960663
0.00987103
0.00941982
0.00951357
0.00868076
0.00922627
0.00984695
0.00936405
0.00947596
0.00937381
0.00963048
0.0100961
0.00996635
0.00974259
0.00889285
0.0095069
0.0092202
0.00985592
0.00954846
0.00995708
0.00993356
0.00945251
0.0089485
0.00929952
0.0090864
0.00889851
0.0098409
0.00912372
0.00983504
0.0094684
0.00931921
0.00906773
0.010044
0.00941407
0.00952087
0.00987395
0.00967428
0.00932286
0.00947171
0.00916034
0.00957655
0.00945734
0.00900454
0.00938098
0.00935686
0.00840444
0.00866536
0.00984736
0.00988415
0.0095328
0.00879365
0.00914504
0.009749
0.00914028
0.00901886
0.00990537
0.0100775
0.00946366
0.00984805
0.00992049
0.00902561
0.00980636
0.00877518
0.00880364
0.00996928
0.00984566
0.00985842
0.0099545
0.00979518
0.00906549
0.00951311
0.0094757
0.0098984
0.0100145
0.00999916
0.00948042
0.00934292
0.0097938
0.00973308
0.00964193
0.00942631
0.00948847
0.00941057
0.00956951
0.0096776
0.00945088
0.00902404
0.00970344
0.0099477
0.00941534
0.00986935
0.00990109
0.00953478
0.00900743
0.00951879
0.00950085
0.00878416
0.0101001
0.00914898
0.00968609
0.00967188
0.00873054
0.00955196
0.00953488
0.00888202
0.00961179
0.00905651
0.00957318
0.00993748
0.00977177
0.00866883
0.00964808
0.00906798
0.00966436
0.00984429
0.00992934
0.00991051
0.00914799
0.00978724
0.0088119
0.00942654
0.00881733
0.0099057
0.00977523
0.00985857
0.00980869
0.00913438
0.00999244
0.00950931
0.00976931
0.00948766
0.00928288
0.00952894
0.00972994
0.00970147
0.00975211
0.0096209
0.00976013
0.00949386
0.00906251
0.00957501
0.00969384
0.00970879
0.00870126
0.00986197
0.00983466
0.00950086
0.0096396
0.00969772
0.00966131
0.0099249
0.00865588
0.0096778
0.00987002
0.00870155
0.00957009
0.00968673
0.00908364
0.0088715
0.00886424
0.00940323
0.00889934
0.00950348
0.00927528
0.009383
0.00995573
0.00895442
0.00979243
0.00989455
0.00954322
0.00981904
0.00941655
0.00989708
0.00952702
0.00971293
0.00994907
0.00950254
0.00893645
0.00957168
0.00987128
0.00982624
0.00975937
0.00989169
0.00943135
0.00964376
0.00983781
0.00997689
0.00988969
0.00903123
0.00950442
0.00855392
0.00964604
0.00945331
0.00898066
0.00892546
0.00938899
0.00977523
0.00981445
0.00888241
0.00977325
0.00935336
0.00949778
0.00979996
0.00788156
0.00946992
0.00881245
0.0093883
0.00984176
0.00994618
0.00978222
0.00955522
0.00869615
0.00975559
0.00956625
0.00969175
0.00883824
0.00905354
0.00950026
0.00891448
0.00904772
0.00960816
0.00880304
0.00943723
0.00862587
0.00976412
0.00896844
0.00993394
0.0098246
0.00979283
0.00986756
0.00936008
0.00977041
0.00985834
0.00959504
0.00982919
0.00956182
0.00978648
0.00999717
0.00936485
0.00985729
0.00988605
0.00950613
0.00921974
0.0099545
0.00956608
0.00868063
0.00879805
0.00955787
0.00998446
0.0098906
0.00955455
0.0101256
0.0100557
0.00972537
0.00961188
0.00947394
0.0094097
0.00905019
0.00953779
0.00973854
0.00992691
0.00929341
0.00917199
0.00911927
0.00939749
0.00946841
0.00858781
0.00973851
0.00934652
0.00971795
0.00956355
0.00982531
0.0095645
0.00906942
0.00971088
0.00987213
0.00919865
0.00981572
0.00982217
0.00929156
0.00951211
0.0079611
0.00915637
0.00951065
0.00956359
0.00908625
0.00901556
0.00957719
0.00888733
0.00972252
0.00929021
0.00947954
0.00986555
0.00952534
0.00878003
0.00940884
0.00957796
0.00989141
0.0089618
0.00851467
0.00984352
0.0088397
0.00961669
0.00999643
0.00901421
0.00951464
0.00990276
0.00963303
0.00895652
0.0098266
0.0096343
0.008871
0.00977799
0.00960534
0.00947938
0.00969339
0.00869446
0.00923677
0.00970937
0.00940452
0.00957272
0.00961811
0.00998667
0.00979686
0.00968306
0.00985919
0.00987654
0.00977543
0.0092016
0.00977664
0.00990499
0.0099954
0.00918876
0.00958436
0.00962179
0.01012
0.00910792
0.00865634
0.00989975
0.00905808
0.0100389
0.00942695
0.00901081
0.0096163
0.00984734
0.00974307
0.0096845
0.00870286
0.00972171
0.00956489
0.0087626
0.00989313
0.00982125
0.00801002
0.00897328
0.00921088
0.00938438
0.00963932
0.00961214
0.00954488
0.0095512
0.0098486
0.00954884
0.00952508
0.00902229
0.00995743
0.00883532
0.00951162
0.00949122
0.00923244
0.00996041
0.00951472
0.00921333
0.008825
0.0089848
0.00946313
0.00985022
0.00912473
0.00994983
0.00965228
0.00982149
0.00901746
0.00940729
0.00976174
0.0099652
0.00990825
0.00975523
0.00956129
0.00960135
0.0099439
0.00995356
0.00987625
0.00926934
0.00983249
0.00899598
0.0099093
0.00977951
0.00953112
0.00911959
0.00945482
0.00848565
0.00989616
0.0096963
0.0100155
0.00947741
0.0092757
0.00890508
0.00962413
0.00881395
0.00870941
0.00908446
0.00938709
0.00898134
0.00953637
0.00890405
0.00977567
0.0097061
0.00868415
0.00995228
0.00909544
0.00916155
0.00939335
0.00930444
0.00976595
0.00990357
0.00995465
0.0098384
0.00954151
0.00960215
0.0094493
0.00942883
0.00884307
0.00718856
0.00992541
0.00946304
0.00976272
0.00983572
0.00890493
0.0098732
0.00989113
0.00976915
0.00978717
0.00973229
0.00964042
0.00996602
0.00998804
0.00961205
0.00984432
0.00983302
0.00911318
0.00985481
0.00930278
0.00969076
0.00930143
0.00946493
0.00924872
0.0100069
0.00949726
0.00958893
0.00955136
0.00915256
0.00996513
0.00964792
0.00940668
0.00909019
0.00975134
0.00876086
0.00982859
0.00977577
0.00928395
0.00991771
0.0100196
0.00990754
0.00885948
0.00960824
0.00957615
0.00965829
0.00907394
0.00982097
0.00984587
0.00936598
0.00957038
0.0093451
0.0097694
0.00935959
0.00948573
0.00878288
0.0097659
0.00967498
0.00975247
0.009374
0.00952355
0.00967311
0.00956783
0.00935561
0.00977043
0.00978128
0.00947645
0.00876477
0.00874925
0.00949739
0.00855613
0.00889152
0.00963772
0.00964194
0.00981369
0.00873003
0.00945863
0.00989573
0.00916028
0.00881185
0.00957977
0.00904929
0.00977118
0.00921801
0.00985807
0.00923981
0.0093432
0.00996624
0.00874338
0.00937653
0.00945039
0.00981538
0.0099307
0.0098681
0.00911445
0.00969103
0.00991142
0.00934957
0.00993586
0.00984195
0.00969358
0.00968748
0.00957801
0.00998357
0.0100247
0.00998494
0.00971559
0.00932669
0.0097023
0.00953468
0.00878389
0.00940961
0.00982201
0.00985671
0.00997911
0.00953089
0.00990568
0.00986242
0.00935109
0.00985739
0.00982258
0.00969905
0.00984592
0.00894541
0.0094005
0.00972467
0.00867851
0.00962625
0.00948744
0.00953601
0.00945438
0.00995853
0.00975226
0.00981894
0.00942483
0.00975965
0.00957763
0.00992001
0.00962703
0.00947502
0.00906468
0.00985318
0.00919962
0.0094275
0.00954332
0.00943608
0.00965786
0.00992534
0.00899808
0.0098956
0.00904855
0.00967461
0.0094534
0.00942823
0.00949955
0.00988672
0.00890261
0.00970815
0.00986269
0.00995314
0.00967577
0.00955145
0.00858428
0.00979963
0.0098366
0.00966505
0.00974575
0.00983798
0.00963403
0.00983793
0.00952448
0.00910086
0.00949484
0.00992515
0.00875998
0.00912951
0.0100947
0.00980343
0.00929124
0.00947216
0.00962938
0.00925602
0.00949833
0.00917468
0.009827
0.00993145
0.00866267
0.00965143
0.00987356
0.0098679
0.0100791
0.00944503
0.00983918
0.00913211
0.00911004
0.00989104
0.0098194
0.00953874
0.00914514
0.00980021
0.00982395
0.00930452
0.00995323
0.0098608
0.0098819
0.00973125
0.00978905
0.00967096
0.00963117
0.00944447
0.0092967
0.00889574
0.00961831
0.00958389
0.00908647
0.00987397
0.00887167
0.00941992
0.00951636
0.0090352
0.00948601
0.00934999
0.00963141
0.00957777
0.00982869
0.00902979
0.00902753
0.00945255
0.00890443
0.00930234
0.00982106
0.00948725
0.00985998
0.00969201
0.00945705
0.00995421
0.00937281
0.00967725
0.00946233
0.00947204
0.00966886
0.00912773
0.00958695
0.00980314
0.00988857
0.00996865
0.0090901
0.00889279
0.00957646
0.00983766
0.00913281
0.0093901
0.00980928
0.00949077
0.0101201
0.00948705
0.00942128
0.0098297
0.00897279
0.00983687
0.0100304
0.00908119
0.00927889
0.00951863
0.00938837
0.00995018
0.00997417
0.00980186
0.0091556
0.00981263
0.00893785
0.00945293
0.00990622
0.00944324
0.010109
0.00874904
0.00958437
0.00969772
0.00963399
0.0088429
0.00887533
0.00979326
0.00997258
0.00939624
0.00992363
0.00972038
0.00952202
0.00898073
0.00929547
0.00971693
0.00952434
0.00954769
0.00998827
0.00989599
0.0100533
0.00992971
0.00969681
0.00969312
0.00974628
0.00915374
0.0098757
0.00972694
0.00963971
0.00968115
0.00996881
0.00955
0.00991807
0.0094526
0.00863747
0.0100069
0.00932679
0.0098254
0.00932043
0.00985166
0.00915686
0.00971749
0.0100285
0.00949176
0.00955028
0.00882964
0.0097831
0.00984382
0.00964211
0.00891314
0.0100628
0.00951323
0.00962204
0.00989611
0.00991174
0.00980011
0.00950039
0.00962801
0.0100575
0.009148
0.00921529
0.0090783
0.00920211
0.00965418
0.00889767
0.00994137
0.00988999
0.0100708
0.00944015
0.00940099
0.00958191
0.00980865
0.00958403
0.00965797
0.00989687
0.00996983
0.00963014
0.00985792
0.00964052
0.00941078
0.00967255
0.00933737
0.0099534
0.00991912
0.00997049
0.010041
0.00985298
0.00929253
0.0100336
0.00966453
0.00961405
0.00942369
0.00969514
0.00991847
0.00953274
0.0098111
0.00942089
0.00956345
0.00971169
0.00919042
0.00889832
0.00939769
0.0095011
0.00997681
0.00931726
0.00886973
0.00965832
0.00985102
0.00929837
0.00933177
0.00958352
0.00995035
0.00983337
0.00943328
0.00937701
0.00957796
0.00988814
0.00938108
0.00953876
0.0095725
0.00887184
0.00942048
0.00946141
0.00977599
0.00985095
0.00953412
0.00989293
0.00978354
0.00952325
0.00958657
0.00897676
0.00917872
0.00889798
0.00992442
0.00969349
0.0100354
0.0102345
0.0097005
0.00887657
0.0098849
0.00939224
0.00971198
0.00970813
0.00982513
0.00891418
0.00989932
0.00904247
0.00959994
0.00958551
0.00955198
0.0100949
0.00947363
0.00979176
0.00914449
0.00946975
0.00955586
0.00992257
0.00924018
0.00933436
0.00974836
0.00982551
0.0097693
0.00976275
0.00992283
0.00909515
0.00960566
0.00944119
0.0093128
0.00976393
0.0100099
0.00995408
0.00982891
0.0100055
0.00908636
0.00906308
0.00910776
0.00991814
0.00891135
0.00982679
0.00970382
0.00900449
0.00938915
0.00979553
0.00989501
0.00928552
0.00936866
0.00936186
0.0096537
0.0099852
0.00953606
0.00903221
0.00962743
0.0100603
0.00984192
0.0100814
0.00994057
0.0101541
0.0099643
0.00991281
0.00919352
0.00889293
0.00959979
0.00927862
0.00998703
0.00907036
0.00968278
0.00949981
0.00998374
0.00924113
0.0098215
0.00979139
0.00969923
0.00952606
0.00904474
0.00987904
0.00941509
0.0100481
0.00957073
0.00998561
0.00994966
0.00961226
0.00890731
0.00901447
0.00949454
0.0097815
0.00926393
0.0101408
0.00912126
0.00976295
0.009763
0.00938106
0.00972014
0.00976281
0.00994882
0.00993813
0.00992347
0.00964472
0.00968202
0.00888195
0.00931057
0.00998559
0.00919908
0.00976853
0.00950795
0.00911516
0.00950551
0.00925797
0.00951074
0.00971776
0.00982432
0.00914512
0.0094956
0.00961886
0.00908167
0.00930982
0.00953371
0.00962584
0.00976835
0.00903573
0.00900041
0.00954253
0.00944888
0.0100022
0.0100637
0.00994257
0.00935498
0.0094298
0.0096437
0.00930824
0.00978168
0.00896967
0.00958474
0.00953069
0.0100023
0.00984006
0.00959849
0.00969414
0.00995236
0.00904443
0.00967598
0.00999408
0.00938664
0.00850573
0.00955464
0.00914913
0.00963631
0.00881926
0.00992441
0.0100708
0.00997771
0.00961995
0.00898059
0.00899924
0.00986425
0.00996218
0.00994112
0.00964846
0.0096322
0.00974225
0.00996623
0.00983507
0.00880558
0.00956772
0.00974625
0.00970931
0.00931884
0.00973273
0.00878986
0.00997828
0.00986518
0.0095689
0.00965365
0.00975602
0.00953591
0.0100034
0.00976641
0.00912389
0.00947972
0.00985115
0.00945017
0.00957176
0.00972942
0.00884168
0.00906894
0.00993962
0.0100395
0.00991798
0.010046
0.00970537
0.0098718
0.00966364
0.00967213
0.00971334
0.00989111
0.00936483
0.00955529
0.00933182
0.00955075
0.00985516
0.00873025
0.00964623
0.00884605
0.00987633
0.00887915
0.00881466
0.00947477
0.00876908
0.00971229
0.00966823
0.00985621
0.00989727
0.0093478
0.00922156
0.0100183
0.00939655
0.00908583
0.00962253
0.00924078
0.00994932
0.00975981
0.0096582
0.00909778
0.00984885
0.00980146
0.00993455
0.00889984
0.00935219
0.00968502
0.0097588
0.0101134
0.00902513
0.00896868
0.00988833
0.00974035
0.00997096
0.00957385
0.00872307
0.00972616
0.00985319
0.00891443
0.00881643
0.00990091
0.0090982
0.00910987
0.00988164
0.0100339
0.00979348
0.0100927
0.00951573
0.00945299
0.00993748
0.00923117
0.0099206
0.00935389
0.00958603
0.0098797
0.0094866
0.00892024
0.00981654
0.00982629
0.00938004
0.00953496
0.00959346
0.00929946
0.00867884
0.00961825
0.00970219
0.00984718
0.00938632
0.00961687
0.00893507
0.00979672
0.010019
0.00881344
0.00978992
0.00967845
0.00860903
0.00893001
0.00962979
0.00954195
0.00985411
0.00945708
0.00911234
0.00981792
0.00996683
0.00989576
0.00974005
0.00993886
0.00899013
0.00994866
0.00957172
0.00906683
0.00898368
0.00849219
0.00903955
0.00967708
0.00949196
0.00972852
0.00954394
0.00914839
0.00928436
0.00881209
0.00877491
0.0100357
0.0100023
0.00915804
0.00995767
0.00995647
0.00911603
0.00955532
0.00965738
0.00930637
0.00937182
0.00991457
0.0092666
0.00875248
0.00993051
0.00996772
0.00939056
0.00998222
0.00941453
0.00919337
0.00909491
0.00943847
0.00884884
0.00909347
0.00969241
0.00967078
0.00947682
0.00992097
0.0099599
0.00953162
0.00980713
0.00676861
0.00945751
0.00898016
0.00946898
0.00987926
0.00950727
0.00927999
0.00947068
0.00910985
0.00969913
0.00951851
0.00928182
0.00900297
0.00867079
0.00869343
0.009445
0.00902907
0.00952094
0.00901062
0.00943175
0.00989209
0.00962203
0.0094372
0.00960548
0.00977693
0.0095493
0.00978727
0.00884359
0.00962629
0.00991524
0.00994993
0.00942456
0.0100817
0.00923118
0.00978251
0.00950205
0.0089056
0.00990227
0.00992862
0.00970526
0.00963315
0.00983729
0.00967858
0.00867475
0.00875228
0.00944427
0.0100036
0.00959994
0.00987472
0.00934902
0.00945764
0.00915126
0.00894633
0.00896234
0.00891953
0.00973969
0.0096686
0.0098393
0.0093742
0.00937624
0.0100927
0.00907135
0.00952315
0.0100228
0.00987269
0.00924133
0.00945912
0.00978362
0.0098972
0.00990798
0.00824347
0.00972529
0.00985346
0.00960902
0.00952367
0.00998369
0.00980094
0.00993329
0.00967697
0.00926085
0.00962988
0.00992077
0.00970556
0.0094554
0.00901809
0.00989429
0.00990446
0.009843
0.00983684
0.00877599
0.00852596
0.0094458
0.00978168
0.00947025
0.00966773
0.00978115
0.0098147
0.00982051
0.00938719
0.00981477
0.00958329
0.00986172
0.0091146
0.00909983
0.0094422
0.0100223
0.00908751
0.00982806
0.00901805
0.00949032
0.00957565
0.010061
0.00954995
0.00987209
0.0100182
0.00983917
0.00963206
0.00982514
0.00955645
0.00937108
0.00872548
0.0100371
0.00843492
0.00897537
0.00832048
0.008712
0.00883222
0.00946967
0.00967176
0.00904133
0.00933409
0.00857267
0.00908925
0.00924533
0.00996755
0.00886429
0.00893225
0.00978928
0.00887635
0.00937927
0.00966483
0.00980695
0.00940821
0.00896909
0.00872516
0.00928408
0.0100561
0.00922291
0.00886136
0.00974787
0.00934724
0.00964001
0.00953422
0.00909786
0.00987171
0.0087036
0.00892205
0.00943993
0.00989216
0.00938696
0.00948986
0.0095198
0.00954004
0.00866493
0.00914595
0.00942688
0.00979416
0.00978994
0.00894476
0.00857347
0.00944302
0.00999248
0.00949167
0.00958536
0.00917166
0.00943705
0.00953053
0.0089403
0.00992601
0.00931536
0.00890731
0.00858478
0.00973941
0.00955249
0.0099292
0.00959274
0.009854
0.00898695
0.00943992
0.0087215
0.00859536
0.00987831
0.00909886
0.00956508
0.00958545
0.00920559
0.00891586
0.00994006
0.00983274
0.0099723
0.00967876
0.00838332
0.00950965
0.00867227
0.0099302
0.00906086
0.00989629
0.00857318
0.00973456
0.0097866
0.0093073
0.0093449
0.00870566
0.00925683
0.00952671
0.00976278
0.00971935
0.00997542
0.00981849
0.00906122
0.00995772
0.00865303
0.00964053
0.00972802
0.00988866
0.00986183
0.00931575
0.00999568
0.00949883
0.00932877
0.00929482
0.00960703
0.00982658
0.00924805
0.00898767
0.00994063
0.00975898
0.00943145
0.00991745
0.00967911
0.00971853
0.00976909
0.00981106
0.0098335
0.00946296
0.00944687
0.00987136
0.00979979
0.00860776
0.00952843
0.00913678
0.00998176
0.0097137
0.00988633
0.00893689
0.00890684
0.00959409
0.00964654
0.00966414
0.00975357
0.00983473
0.00953098
0.00974556
0.00903786
0.00969998
0.00944635
0.00993305
0.00985032
0.00990798
0.00966701
0.00992772
0.0092664
0.00989458
0.00918067
0.00943387
0.00938327
0.00961312
0.00943697
0.0097471
0.00883042
0.00988322
0.00972976
0.00945696
0.00896037
0.0099195
0.0096734
0.00983668
0.00947274
0.00955473
0.00984922
0.0089116
0.00989583
0.00955444
0.00960285
0.00917795
0.00926741
0.00934374
0.00888806
0.00937916
0.0100589
0.00964546
0.00856648
0.00963765
0.00885229
0.00968043
0.00971349
0.0087447
0.00878525
0.00930548
0.00961696
0.00984237
0.00935579
0.00942037
0.00953331
0.00862917
0.00940259
0.0099037
0.00985565
0.00990082
0.00952393
0.00976019
0.00903778
0.00906114
0.0100437
0.00956281
0.009718
0.00975524
0.0100058
0.00960665
0.00958926
0.00873445
0.00963683
0.00986545
0.00929642
0.00986516
0.00978223
0.00966994
0.00907058
0.00968639
0.00942561
0.00850751
0.00965198
0.00919564
0.00895572
0.00968885
0.00958049
0.00983446
0.00982838
0.00965761
0.0100473
0.00850618
0.0093419
0.00986205
0.00995114
0.00870629
0.0097283
0.00905894
0.00920257
0.00994148
0.00919354
0.00969773
0.0100413
0.0097655
0.00866877
0.009764
0.0090366
0.00984909
0.0097211
0.00968278
0.00987982
0.00963885
0.00983148
0.00893369
0.00971083
0.00985887
0.00900916
0.00967453
0.00957303
0.00939085
0.00983588
0.00939109
0.00986605
0.00995946
0.00994355
0.00949714
0.00981691
0.00961608
0.00971656
0.00926622
0.00919351
0.00889105
0.00875661
0.00969925
0.00978426
0.00954632
0.00998726
0.00916469
0.00995816
0.00875036
0.0100391
0.00998786
0.00979105
0.00995605
0.009248
0.00871423
0.00948042
0.00898129
0.00988771
0.00953738
0.00877941
0.0094304
0.0100762
0.00971823
0.00889166
0.0092178
0.00870924
0.0100713
0.00891439
0.00984428
0.00914838
0.00911415
0.00992679
0.00992114
0.00990065
0.00972547
0.00875898
0.00959693
0.00993845
0.00905594
0.00999671
0.00950994
0.0100597
0.0085297
0.0096659
0.00921088
0.00960067
0.00930938
0.0094096
0.00937329
0.00923473
0.00946933
0.00949663
0.00953853
0.00939799
0.0100055
0.00900758
0.00951792
0.00951299
0.0097154
0.00997242
0.00909984
0.00979955
0.00898476
0.00946078
0.00987498
0.00980732
0.0094845
0.0097043
0.00972852
0.00920933
0.00951866
0.00945769
0.00885969
0.00884033
0.00974168
0.00979729
0.00907486
0.00943682
0.00979631
0.00900044
0.00964523
0.00911682
0.00974808
0.00996277
0.00951953
0.00893775
0.00980922
0.00877729
0.00968266
0.0100045
0.00847886
0.0101292
0.00901593
0.00939561
0.00928086
0.0089435
0.00942393
0.00929383
0.00874714
0.00992819
0.0098942
0.00842709
0.00936613
0.00955465
0.0095883
0.00972158
0.0100083
0.00984204
0.00927129
0.00918774
0.00874848
0.00864761
0.00804627
0.00996233
0.00961532
0.00970916
0.00977161
0.008922
0.00882709
0.00946781
0.00986975
0.00874433
0.00977228
0.00951782
0.0095378
0.00969395
0.00927631
0.00968839
0.00939255
0.00954437
0.00995047
0.00839425
0.00956442
0.00959263
0.0098574
0.00964762
0.00984049
0.00958879
0.00898584
0.0100039
0.01022
0.00955083
0.00944799
0.00898246
0.00935917
0.00969955
0.00989286
0.00944293
0.00944313
0.00934286
0.00869397
0.00931917
0.00993458
0.00940293
0.0101448
0.0095606
0.00937229
0.00993288
0.00892867
0.00974915
0.00889811
0.00994939
0.00971544
0.00935621
0.0101244
0.00932567
0.0095469
0.00992352
0.00943329
0.00973161
0.00939632
0.00976053
0.00893301
0.00954367
0.00950255
0.00906028
0.00980845
0.00932681
0.0092557
0.0099324
0.00901784
0.00993349
0.00945705
0.00985092
0.00918545
0.00964926
0.00897674
0.00897067
0.00988579
0.00901634
0.00945579
0.00979675
0.00871016
0.00945816
0.00976198
0.00935003
0.00887707
0.00925906
0.00949016
0.00936807
0.00964377
0.00950865
0.00978457
0.00931669
0.00984723
0.00860132
0.00880593
0.00995664
0.00930695
0.0087075
0.00887455
0.00955169
0.0078364
0.00886395
0.00953468
0.00951533
0.0100657
0.00906976
0.00985573
0.00986428
0.00991531
0.00987488
0.00999639
0.00941012
0.00929694
0.00982369
0.00935575
0.00930184
0.0097364
0.00937673
0.00860368
0.00887788
0.0094328
0.00824574
0.00974242
0.00976915
0.00933526
0.00980618
0.00985642
0.00957557
0.0101658
0.00921582
0.00880223
0.00937559
0.00943677
0.00972303
0.00931166
0.00961244
0.00992566
0.00941166
0.00926943
0.0095466
0.0100337
0.0098001
0.0101234
0.0098309
0.00949494
0.00959833
0.00917532
0.00926289
0.0100114
0.00925671
0.0100009
0.00932618
0.00981497
0.00843254
0.00970667
0.00952308
0.00961713
0.00918258
0.00973775
0.00949266
0.00982071
0.00848319
0.00922953
0.00952675
0.0093305
0.00959151
0.00954307
0.00957808
0.00987612
0.00958706
0.00873166
0.00920569
0.00891036
0.00958658
0.00952805
0.00895834
0.0101134
0.00961929
0.00958482
0.00985112
0.00915609
0.00897082
0.00997315
0.00894419
0.00877948
0.00864696
0.00871152
0.00856986
0.00932035
0.00998666
0.00988134
0.00947675
0.00956892
0.00973856
0.00928555
0.00973396
0.00876409
0.00988146
0.00675827
0.00972663
0.00885535
0.00872942
0.00977353
0.00888848
0.00965555
0.00973189
0.0098202
0.00903634
0.00965838
0.00947842
0.00953511
0.00889079
0.00983827
0.00965425
0.0098669
0.00965947
0.00895945
0.00954069
0.00953087
0.00930919
0.00863233
0.00916776
0.00912219
0.00877104
0.00888024
0.00954045
0.00926311
0.00888062
0.00926858
0.00980288
0.00987578
0.00996486
0.00695992
0.00879009
0.00984407
0.00885848
0.00971847
0.00870459
0.00997238
0.00973357
0.00979769
0.00894883
0.00951337
0.00992858
0.00991597
0.00965977
0.0098401
0.00954994
0.00954783
0.0095007
0.0088632
0.00958832
0.00928304
0.00926473
0.00927817
0.0086897
0.00949623
0.00987949
0.00905494
0.00921165
0.00887284
0.00975571
0.00971061
0.00867484
0.00940805
0.00953881
0.00967826
0.0089102
0.00954923
0.00961314
0.010174
0.00796889
0.0095936
0.00943738
0.00880976
0.00992895
0.0091527
0.00905055
0.0096741
0.00998763
0.00882617
0.00988106
0.00966373
0.00886643
0.00877565
0.00982635
0.00994077
0.00886703
0.00960377
0.00873876
0.00921689
0.00995658
0.00917379
0.00967372
0.00959947
0.0100321
0.00935703
0.00934075
0.00916503
0.00943871
0.00961479
0.00927818
0.00980525
0.00894889
0.00891383
0.00962337
0.00943511
0.00978935
0.0092989
0.0098078
0.00970758
0.00963366
0.00986278
0.00971329
0.00937484
0.00903306
0.00974963
0.00943624
0.00927273
0.00963165
0.0100044
0.00978921
0.0093341
0.00885399
0.00961279
0.00910565
0.00867049
0.00921982
0.00942755
0.00862547
0.00969523
0.00904742
0.00829089
0.00882323
0.00961587
0.00834911
0.00939334
0.00976457
0.00958043
0.00874197
0.00960204
0.0101628
0.00893312
0.00862306
0.00903139
0.0097422
0.0095103
0.00939449
0.00980084
0.00886838
0.00982057
0.00956306
0.00996842
0.00990315
0.00689868
0.00958656
0.00968093
0.00972239
0.0092515
0.00944333
0.00820525
0.00947034
0.00994081
0.00929686
0.00875608
0.00943715
0.00975432
0.00967706
0.00864157
0.00961654
0.00982239
0.00994938
0.00948694
0.00960738
0.00870668
0.00875284
0.00872815
0.0095463
0.00942457
0.00968112
0.010037
0.0097999
0.0084804
0.00987661
0.00983241
0.0098077
0.00934826
0.0098796
0.00904152
0.00906565
0.009345
0.00949337
0.00914275
0.00866858
0.00967308
0.00923182
0.00978429
0.00913465
0.00825886
0.00930224
0.00971408
0.00950523
0.00894817
0.00915301
0.00977259
0.00984972
0.00918692
0.00941875
0.00973515
0.00995763
0.00971462
0.0100009
0.00969035
0.00969528
0.00863827
0.00954763
0.00898893
0.0098121
0.00951211
0.00924584
0.00880614
0.00998357
0.00862912
0.0092888
0.00875457
0.00928508
0.00838853
0.00945455
0.00949084
0.00950196
0.00931556
0.00918183
0.00983374
0.00889537
0.00971324
0.00925871
0.00943158
0.00844591
0.00974192
0.0094427
0.00901295
0.00918214
0.00948245
0.00942638
0.00951385
0.00783248
0.00959999
0.00936898
0.0094216
0.00910438
0.00925894
0.00924107
0.00794247
0.00975898
0.00950728
0.00563924
0.00904592
0.00979338
0.00973663
0.00973385
0.00908634
0.00806294
0.00983685
0.00898695
0.00980487
0.0100069
0.00949533
0.0090998
0.00988595
0.00872048
0.00841251
0.00849552
0.00956307
0.00946059
0.00917109
0.0100017
0.00975627
0.00959988
0.00907985
0.00857511
0.0100459
0.00960891
0.0100843
0.00976578
0.00880213
0.00926761
0.0094572
0.00889295
0.00949032
0.00932825
0.00955829
0.0101942
0.00942914
0.00952112
0.00892895
0.00930931
0.00919814
0.00957956
0.00937688
0.00872194
0.00898867
0.00955924
0.00974045
0.0088599
0.00963175
0.00915582
0.009759
0.00891412
0.00892877
0.00794043
0.00988183
0.00984368
0.00967304
0.00971359
0.00929764
0.00887167
0.0087189
0.00811397
0.00944252
0.00873228
0.00936048
0.0092534
0.00975092
0.009296
0.00974806
0.00900241
0.00583979
0.00893736
0.00978589
0.00638533
0.00954429
0.0100614
0.00938695
0.0100047
0.00881842
0.00899925
0.00902686
0.00995639
0.00766902
0.00989312
0.0089587
0.00819917
0.00981042
0.00902593
0.00987383
0.0061377
0.00855228
0.00953238
0.00975221
0.00995413
0.0097004
0.00988692
0.00970296
0.00970645
0.00985788
0.00972266
0.0094916
0.00917175
0.00790196
0.00974121
0.00915662
0.00923226
0.00985287
0.0098442
0.00947925
0.0086665
0.00995235
0.00974561
0.00939463
0.0088382
0.00874988
0.00967737
0.0098175
0.00988119
0.00980172
0.00944393
0.0096108
0.00881159
0.00974269
0.00947645
0.00970803
0.00921255
0.00877535
0.0082102
0.00935988
0.0101219
0.00971174
0.00932025
0.0090398
0.00934015
0.00888214
0.00874157
0.00971063
0.00920327
0.00730303
0.00775856
0.00828418
0.00879947
0.00950532
0.00926327
0.00936391
0.00929356
0.00844468
0.00939366
0.00981388
0.00843229
0.0101317
0.00859816
0.00981994
0.00899499
0.00982114
0.00962335
0.00962436
0.00970611
0.00917158
0.00885668
0.0090727
0.00917786
0.00969296
0.00949888
0.00904807
0.00901126
0.00951317
0.00866544
0.00947896
0.00906954
0.00974312
0.00911832
0.00937383
0.00732779
0.00986132
0.00997137
0.00953546
0.0097573
0.0093922
0.00939856
0.00958463
0.00964999
0.00965807
0.00987771
0.00964939
0.00864346
0.0085722
0.0101411
0.00882746
0.00862311
0.00856561
0.00947154
0.00986475
0.00938892
0.010023
0.0101047
0.00983198
0.00976031
0.00929955
0.00878897
0.00932546
0.00817773
0.00963765
0.00940869
0.00929154
0.00931835
0.00908894
0.00933829
0.00993268
0.00846265
0.00907223
0.00936167
0.00853024
0.00978256
0.00814957
0.00839901
0.00865802
0.00955173
0.00899461
0.00871032
0.00902434
0.00872255
0.00940518
0.00793142
0.00792109
0.00935986
0.00878103
0.00844395
0.00941093
0.00879188
0.00917727
0.00930974
0.00905644
0.00868631
0.00939907
0.00892613
0.00906316
0.00866455
0.00918996
0.00912448
0.00814797
0.00979722
0.0093219
0.00938399
0.00900729
0.00891617
0.00865532
0.00942304
0.00938352
0.00985085
0.00952962
0.00959708
0.00922648
0.0095461
0.00977791
0.00962719
0.00757935
0.00784189
0.00851775
0.00972055
0.00860632
0.00958029
0.00773253
0.00911314
0.00952749
0.0090334
0.00923232
0.00917793
0.0091733
0.00921583
0.00996317
0.00896964
0.00915302
0.00992714
0.00845253
0.00920512
0.00876727
0.00976829
0.00908301
0.00858792
0.00933587
0.00871604
0.00796101
0.00812792