/*--------------------------------*- C++ -*----------------------------------*\
| =========                 |                                                 |
| \\      /  F ield         | OpenFOAM: The Open Source CFD Toolbox           |
|  \\    /   O peration     | Version:  2212                                  |
|   \\  /    A nd           | Website:  www.openfoam.com                      |
|    \\/     M anipulation  |                                                 |
\*---------------------------------------------------------------------------*/
FoamFile
{
    version     2.0;
    format      ascii;
    arch        "LSB;label=32;scalar=64";
    class       volScalarField;
    location    "0.054";
    object      nut;
}
// * * * * * * * * * * * * * * * * * * * * * * * * * * * * * * * * * * * * * //

dimensions      [0 2 -1 0 0 0 0];

internalField   nonuniform List<scalar> 
31639
(
3.27661e-05
3.16644e-05
3.21913e-05
3.52966e-05
3.14783e-05
3.06961e-05
2.97658e-05
3.30012e-05
3.21932e-05
3.42548e-05
3.37518e-05
3.41199e-05
3.23316e-05
3.47272e-05
3.0746e-05
2.86476e-05
3.29953e-05
3.03242e-05
2.86407e-05
3.2038e-05
2.43358e-05
3.42424e-05
3.46132e-05
2.8727e-05
2.80051e-05
3.18544e-05
3.18735e-05
2.67687e-05
2.99089e-05
3.47985e-05
3.43518e-05
2.94326e-05
3.483e-05
2.79865e-05
2.59541e-05
3.46488e-05
2.28279e-05
3.57265e-05
3.45588e-05
2.19474e-05
2.57897e-05
2.57526e-05
3.40517e-05
3.39292e-05
3.35489e-05
3.42963e-05
3.07717e-05
3.04837e-05
3.30578e-05
3.50206e-05
3.42024e-05
2.26055e-05
3.4778e-05
2.37126e-05
2.98613e-05
3.22707e-05
2.43895e-05
3.20291e-05
3.14634e-05
2.46059e-05
3.17938e-05
3.36972e-05
2.81564e-05
3.17305e-05
3.24588e-05
3.52128e-05
3.16544e-05
3.19856e-05
2.7007e-05
3.49963e-05
3.42062e-05
2.92755e-05
3.36377e-05
3.21507e-05
3.4208e-05
2.59991e-05
3.39924e-05
3.02825e-05
3.07258e-05
3.30977e-05
2.83228e-05
2.15851e-05
3.4681e-05
3.26612e-05
3.29183e-05
3.40642e-05
3.4853e-05
3.45861e-05
2.68476e-05
3.52396e-05
3.24242e-05
3.20687e-05
2.50212e-05
3.09964e-05
2.73531e-05
3.10413e-05
3.06765e-05
3.19775e-05
3.2307e-05
2.48559e-05
3.45169e-05
3.36946e-05
3.10591e-05
2.41872e-05
2.46775e-05
3.44702e-05
2.42318e-05
2.30617e-05
2.7351e-05
2.38662e-05
3.37405e-05
2.5056e-05
3.10313e-05
2.9492e-05
3.20758e-05
2.36618e-05
3.07479e-05
3.09711e-05
3.28908e-05
3.14078e-05
3.35943e-05
3.38732e-05
3.3828e-05
3.22658e-05
3.20025e-05
3.44335e-05
3.18792e-05
2.76702e-05
2.68201e-05
3.36959e-05
3.43275e-05
3.4041e-05
3.44083e-05
3.0015e-05
3.36711e-05
3.19773e-05
2.47489e-05
2.35255e-05
3.3829e-05
3.1975e-05
3.18792e-05
3.40319e-05
3.42276e-05
2.37094e-05
2.25634e-05
3.4602e-05
3.32898e-05
2.54588e-05
2.5482e-05
3.4076e-05
2.75579e-05
3.2867e-05
2.87663e-05
3.30983e-05
2.64465e-05
3.50834e-05
3.15272e-05
2.64772e-05
2.61789e-05
2.86007e-05
3.45718e-05
2.6554e-05
2.77538e-05
2.43525e-05
2.50285e-05
3.12014e-05
2.61684e-05
3.50254e-05
3.40426e-05
2.40825e-05
3.03168e-05
2.98623e-05
2.56501e-05
3.2077e-05
3.52579e-05
3.31153e-05
3.23744e-05
3.49637e-05
3.21397e-05
3.21087e-05
3.08279e-05
3.05617e-05
3.03692e-05
2.2466e-05
3.20227e-05
3.54775e-05
3.16054e-05
3.48846e-05
2.51015e-05
2.50036e-05
3.60801e-05
3.35795e-05
3.31895e-05
3.14732e-05
3.21054e-05
3.01857e-05
2.99044e-05
3.37384e-05
2.44075e-05
3.00566e-05
3.44769e-05
3.51967e-05
3.37211e-05
3.3358e-05
3.12607e-05
3.13329e-05
3.11416e-05
3.03836e-05
3.42509e-05
2.24362e-05
3.15346e-05
3.02981e-05
3.2831e-05
3.39261e-05
3.36394e-05
3.46938e-05
2.58349e-05
2.87079e-05
3.39683e-05
3.34281e-05
3.31242e-05
3.11085e-05
2.43811e-05
3.09005e-05
2.45775e-05
3.0213e-05
3.36909e-05
2.87126e-05
2.55826e-05
3.2956e-05
3.27216e-05
3.5279e-05
2.6556e-05
2.48922e-05
3.28564e-05
3.31825e-05
2.44527e-05
3.48879e-05
2.78368e-05
2.41825e-05
3.09248e-05
3.29045e-05
3.15573e-05
2.88809e-05
2.83613e-05
3.30852e-05
3.09104e-05
3.03379e-05
2.56786e-05
3.13901e-05
3.05651e-05
2.58672e-05
2.89513e-05
3.49414e-05
3.36352e-05
2.96062e-05
2.61129e-05
3.3514e-05
3.35535e-05
3.1685e-05
3.51288e-05
3.44395e-05
3.16952e-05
3.44713e-05
3.07572e-05
3.05946e-05
2.38144e-05
2.83431e-05
3.46016e-05
3.04863e-05
3.28116e-05
2.93146e-05
3.15888e-05
3.51187e-05
3.52889e-05
3.24545e-05
2.48843e-05
3.05257e-05
2.77502e-05
3.43438e-05
3.08634e-05
3.48767e-05
3.49409e-05
2.99422e-05
2.5538e-05
2.77311e-05
2.63368e-05
2.43511e-05
3.43261e-05
2.68933e-05
3.35181e-05
3.1174e-05
2.90239e-05
2.64213e-05
3.54925e-05
2.9631e-05
2.91961e-05
3.41916e-05
3.19586e-05
2.80172e-05
3.10786e-05
2.7104e-05
3.187e-05
3.10752e-05
2.56363e-05
2.9727e-05
3.03106e-05
2.15717e-05
2.32105e-05
3.4296e-05
3.47139e-05
3.3229e-05
2.42441e-05
2.65059e-05
3.3549e-05
2.70745e-05
2.68617e-05
3.45803e-05
3.54473e-05
3.0952e-05
3.41471e-05
3.49674e-05
2.59348e-05
3.42268e-05
2.37553e-05
2.3842e-05
3.46729e-05
3.42191e-05
3.44093e-05
3.51749e-05
3.34989e-05
2.64683e-05
3.161e-05
3.12444e-05
3.44976e-05
3.51778e-05
3.55356e-05
3.11605e-05
3.0183e-05
3.32258e-05
3.35216e-05
3.2566e-05
3.07727e-05
3.08685e-05
3.08635e-05
3.12332e-05
3.27516e-05
3.10906e-05
2.58487e-05
3.22615e-05
3.51236e-05
2.99635e-05
3.40167e-05
3.48747e-05
3.15408e-05
2.56132e-05
3.1423e-05
3.13175e-05
2.41724e-05
3.57409e-05
2.67643e-05
3.22023e-05
3.38025e-05
2.34028e-05
3.16779e-05
3.14633e-05
2.49652e-05
3.18877e-05
2.62091e-05
3.13084e-05
3.47131e-05
3.28518e-05
2.31625e-05
3.23641e-05
2.63311e-05
3.24659e-05
3.42599e-05
3.4611e-05
3.42413e-05
2.67271e-05
3.38959e-05
2.44384e-05
3.08461e-05
2.39839e-05
3.48342e-05
3.38711e-05
3.44785e-05
3.41614e-05
2.78109e-05
3.47992e-05
3.14483e-05
3.31638e-05
3.12107e-05
2.69845e-05
3.11637e-05
3.3173e-05
3.31385e-05
3.34579e-05
3.18429e-05
3.34345e-05
3.06099e-05
2.59392e-05
3.09561e-05
3.2818e-05
3.31826e-05
2.32732e-05
3.44036e-05
3.42078e-05
3.12395e-05
3.28561e-05
3.32904e-05
3.17821e-05
3.4949e-05
2.45643e-05
3.25776e-05
3.43141e-05
2.34867e-05
3.15359e-05
3.267e-05
2.63502e-05
2.47957e-05
2.47887e-05
2.93409e-05
2.46562e-05
3.11467e-05
3.09284e-05
2.92913e-05
3.45851e-05
2.53467e-05
3.3868e-05
3.47555e-05
3.16109e-05
3.38011e-05
3.00344e-05
3.44479e-05
3.12598e-05
3.18538e-05
3.5169e-05
3.15189e-05
2.52054e-05
3.18226e-05
3.43205e-05
3.42062e-05
3.31462e-05
3.46798e-05
3.07658e-05
3.24274e-05
3.37932e-05
3.50826e-05
3.41107e-05
2.59304e-05
3.10966e-05
2.24117e-05
3.06959e-05
3.10202e-05
2.52926e-05
2.43711e-05
2.957e-05
3.34733e-05
3.38647e-05
2.49159e-05
3.32763e-05
2.88872e-05
3.13811e-05
3.34278e-05
2.38356e-05
3.11288e-05
2.384e-05
3.05786e-05
3.43247e-05
3.49945e-05
3.36897e-05
3.09012e-05
2.38881e-05
3.29804e-05
3.19885e-05
3.32493e-05
2.42458e-05
2.57638e-05
3.13157e-05
2.49733e-05
2.62827e-05
3.19831e-05
2.40474e-05
3.01166e-05
2.41924e-05
3.29743e-05
2.54425e-05
3.50487e-05
3.40627e-05
3.3922e-05
3.4422e-05
2.83589e-05
3.38405e-05
3.43455e-05
3.1832e-05
3.37589e-05
3.19104e-05
3.40013e-05
3.46844e-05
2.90544e-05
3.41603e-05
3.46516e-05
3.14571e-05
2.83881e-05
3.51634e-05
3.18293e-05
2.31717e-05
2.36833e-05
3.16729e-05
3.48201e-05
3.47418e-05
3.13657e-05
3.56045e-05
3.49067e-05
3.34557e-05
3.20302e-05
3.02028e-05
3.02861e-05
2.61701e-05
3.15288e-05
3.25682e-05
3.48257e-05
2.7644e-05
2.73343e-05
2.68746e-05
3.04168e-05
3.11772e-05
2.27531e-05
3.29092e-05
2.88477e-05
3.29486e-05
3.12144e-05
3.41742e-05
3.10324e-05
2.60916e-05
3.30166e-05
3.47461e-05
2.7389e-05
3.39249e-05
3.49249e-05
3.10411e-05
3.12793e-05
2.68147e-05
2.70643e-05
3.14626e-05
3.17653e-05
2.63438e-05
2.58233e-05
3.18887e-05
2.75165e-05
3.29616e-05
2.78618e-05
3.05171e-05
3.44148e-05
3.14771e-05
2.44551e-05
2.88506e-05
3.19082e-05
3.4679e-05
2.51958e-05
2.22104e-05
3.39856e-05
2.44476e-05
3.23224e-05
3.52528e-05
2.55177e-05
3.15619e-05
3.40218e-05
3.13365e-05
2.47861e-05
3.42341e-05
3.13367e-05
2.52386e-05
3.39491e-05
3.22654e-05
3.10512e-05
3.31388e-05
2.32798e-05
2.8442e-05
3.2388e-05
2.96868e-05
2.94446e-05
3.08836e-05
3.43073e-05
3.40852e-05
3.30023e-05
3.41663e-05
3.46228e-05
3.3626e-05
2.78616e-05
3.37817e-05
3.44349e-05
3.49937e-05
2.7443e-05
3.19543e-05
3.1809e-05
3.61588e-05
2.64306e-05
2.30459e-05
3.48512e-05
2.68321e-05
3.57985e-05
3.06114e-05
2.59151e-05
3.18101e-05
3.43049e-05
3.22336e-05
3.25518e-05
2.39494e-05
3.33838e-05
3.18122e-05
2.35967e-05
3.45997e-05
3.39415e-05
2.62589e-05
2.55126e-05
2.67905e-05
2.93964e-05
3.24301e-05
3.19944e-05
3.13746e-05
3.18094e-05
3.42294e-05
3.15861e-05
3.12556e-05
2.5702e-05
3.52952e-05
2.41592e-05
3.15468e-05
3.03745e-05
2.93157e-05
3.51927e-05
3.15865e-05
2.76578e-05
2.43572e-05
2.52804e-05
3.031e-05
3.43733e-05
2.72797e-05
3.51347e-05
3.12637e-05
3.4173e-05
2.57262e-05
3.05439e-05
3.3379e-05
3.53885e-05
3.47046e-05
3.38028e-05
3.19646e-05
3.14858e-05
3.50226e-05
3.49736e-05
3.43088e-05
2.78763e-05
3.41508e-05
2.57728e-05
3.45865e-05
3.254e-05
3.13599e-05
2.66439e-05
3.08841e-05
2.22171e-05
3.47283e-05
3.19475e-05
3.52659e-05
3.10838e-05
2.9713e-05
2.54201e-05
3.4193e-05
2.44468e-05
2.28695e-05
2.61229e-05
2.8105e-05
2.55889e-05
3.1203e-05
2.44779e-05
3.40108e-05
3.24954e-05
2.3019e-05
3.48495e-05
2.62283e-05
2.81477e-05
3.06444e-05
2.919e-05
3.31672e-05
3.48884e-05
3.54206e-05
3.39888e-05
3.10682e-05
3.23246e-05
2.98788e-05
3.00286e-05
2.44752e-05
1.84748e-05
3.48796e-05
3.10283e-05
3.33357e-05
3.41492e-05
2.50041e-05
3.43871e-05
3.44387e-05
3.36621e-05
3.38809e-05
3.34575e-05
3.24508e-05
3.51634e-05
3.5358e-05
3.18532e-05
3.40725e-05
3.40124e-05
2.65412e-05
3.42461e-05
2.90238e-05
3.24554e-05
3.00587e-05
3.1284e-05
2.84076e-05
3.52081e-05
3.11051e-05
3.1816e-05
3.07396e-05
2.65408e-05
3.52114e-05
3.2082e-05
2.94371e-05
2.58874e-05
3.36069e-05
2.40775e-05
3.44725e-05
3.32129e-05
2.98442e-05
3.40065e-05
3.55918e-05
3.42113e-05
2.45519e-05
3.22166e-05
3.06449e-05
3.18286e-05
2.6495e-05
3.4134e-05
3.41926e-05
3.0164e-05
3.16382e-05
3.02421e-05
3.30357e-05
2.93182e-05
3.07917e-05
2.39038e-05
3.37919e-05
3.24717e-05
3.3889e-05
2.83076e-05
3.16529e-05
3.2727e-05
3.15914e-05
2.8951e-05
3.33868e-05
3.38415e-05
3.09055e-05
2.40013e-05
2.37967e-05
3.12514e-05
2.28715e-05
2.58189e-05
3.20779e-05
3.23497e-05
3.42733e-05
2.37179e-05
3.11749e-05
3.47069e-05
2.70061e-05
2.45713e-05
3.22288e-05
2.63062e-05
3.26751e-05
2.72307e-05
3.3978e-05
2.79711e-05
2.90995e-05
3.50987e-05
2.38422e-05
3.04025e-05
3.08918e-05
3.39738e-05
3.46422e-05
3.47041e-05
2.62967e-05
3.32559e-05
3.43436e-05
2.9191e-05
3.50408e-05
3.40121e-05
3.24903e-05
3.40059e-05
3.20143e-05
3.50063e-05
3.55344e-05
3.506e-05
3.31851e-05
2.93898e-05
3.27294e-05
3.17104e-05
2.46379e-05
3.07382e-05
3.33446e-05
3.43515e-05
3.46216e-05
3.11584e-05
3.48222e-05
3.42498e-05
3.06114e-05
3.39496e-05
3.40893e-05
3.299e-05
3.35928e-05
2.52816e-05
3.00124e-05
3.3458e-05
2.29412e-05
3.17568e-05
3.10327e-05
3.06274e-05
3.07737e-05
3.51762e-05
3.34291e-05
3.42309e-05
3.05084e-05
3.32989e-05
3.18417e-05
3.43601e-05
3.2227e-05
3.00397e-05
2.59839e-05
3.42177e-05
2.64069e-05
3.04025e-05
3.08197e-05
3.06028e-05
3.23467e-05
3.50446e-05
2.5488e-05
3.44272e-05
2.61813e-05
3.27342e-05
2.96793e-05
3.07571e-05
3.11543e-05
3.47342e-05
2.50832e-05
3.3278e-05
3.43624e-05
3.42078e-05
3.22066e-05
3.12956e-05
2.27354e-05
3.39322e-05
3.38951e-05
3.25705e-05
3.37567e-05
3.43182e-05
3.24756e-05
3.2872e-05
3.19404e-05
2.6718e-05
3.05159e-05
3.48991e-05
2.43053e-05
2.71238e-05
3.57775e-05
3.41059e-05
2.88005e-05
3.02679e-05
3.16433e-05
2.839e-05
3.12826e-05
2.74988e-05
3.40089e-05
3.44719e-05
2.28219e-05
3.20681e-05
3.47706e-05
3.38436e-05
3.50237e-05
3.11583e-05
3.42436e-05
2.67469e-05
2.65912e-05
3.48338e-05
3.40462e-05
3.1815e-05
2.70414e-05
3.3853e-05
3.403e-05
2.79586e-05
3.46983e-05
3.43873e-05
3.45116e-05
3.27914e-05
3.3886e-05
3.21567e-05
3.26052e-05
3.11927e-05
2.90439e-05
2.50964e-05
3.21562e-05
3.20821e-05
2.67187e-05
3.46239e-05
2.44951e-05
3.0546e-05
3.08447e-05
2.5841e-05
3.08566e-05
2.93682e-05
3.25365e-05
3.14136e-05
3.37438e-05
2.55123e-05
2.54204e-05
3.03533e-05
2.5141e-05
2.98769e-05
3.4209e-05
3.11249e-05
3.43661e-05
3.14229e-05
3.11014e-05
3.4626e-05
2.94552e-05
3.18149e-05
3.12624e-05
3.10903e-05
3.21867e-05
2.65635e-05
3.17763e-05
3.35394e-05
3.48795e-05
3.52129e-05
2.56398e-05
2.49621e-05
3.1699e-05
3.43899e-05
2.73261e-05
3.03129e-05
3.29693e-05
3.13575e-05
3.60907e-05
3.05938e-05
3.07163e-05
3.31704e-05
2.55318e-05
3.42093e-05
3.47395e-05
2.62927e-05
2.8398e-05
3.16123e-05
2.94971e-05
3.48994e-05
3.49371e-05
3.28081e-05
2.66703e-05
3.40952e-05
2.53008e-05
3.05097e-05
3.39149e-05
2.92206e-05
3.55974e-05
2.38962e-05
3.18336e-05
3.27467e-05
3.19212e-05
2.40049e-05
2.48886e-05
3.41586e-05
3.49543e-05
2.95579e-05
3.50162e-05
3.26828e-05
3.15393e-05
2.52601e-05
2.76395e-05
3.24646e-05
3.11687e-05
3.14481e-05
3.51765e-05
3.4913e-05
3.5328e-05
3.50805e-05
3.24316e-05
3.22219e-05
3.35397e-05
2.61066e-05
3.39432e-05
3.32231e-05
3.2415e-05
3.232e-05
3.47457e-05
3.06221e-05
3.4914e-05
3.07406e-05
2.3063e-05
3.53984e-05
2.83993e-05
3.41059e-05
2.92038e-05
3.4528e-05
2.65151e-05
3.32363e-05
3.55744e-05
3.0942e-05
3.1766e-05
2.4273e-05
3.39662e-05
3.4143e-05
3.2926e-05
2.50861e-05
3.60488e-05
3.10192e-05
3.28553e-05
3.41645e-05
3.4464e-05
3.37857e-05
3.1378e-05
3.10034e-05
3.5291e-05
2.65318e-05
2.68412e-05
2.601e-05
2.7729e-05
3.23944e-05
2.4777e-05
3.4976e-05
3.44645e-05
3.50485e-05
3.05499e-05
3.05725e-05
3.17941e-05
3.38417e-05
3.18234e-05
3.12722e-05
3.45529e-05
3.40982e-05
3.07844e-05
3.45111e-05
3.24384e-05
3.05518e-05
3.2884e-05
2.897e-05
3.47141e-05
3.4614e-05
3.53287e-05
3.53186e-05
3.40773e-05
2.87401e-05
3.5515e-05
3.19504e-05
3.18836e-05
3.08486e-05
3.26698e-05
3.4982e-05
3.16102e-05
3.38878e-05
2.99383e-05
3.15349e-05
3.28601e-05
2.68832e-05
2.44856e-05
3.10347e-05
2.99173e-05
3.4623e-05
2.89834e-05
2.46528e-05
3.20981e-05
3.41342e-05
2.80824e-05
2.91433e-05
3.19904e-05
3.50817e-05
3.41319e-05
3.07235e-05
2.81841e-05
3.1753e-05
3.36234e-05
2.9581e-05
3.14617e-05
3.167e-05
2.42017e-05
2.93181e-05
2.96251e-05
3.29913e-05
3.38205e-05
3.13858e-05
3.41465e-05
3.31184e-05
3.1456e-05
3.16547e-05
2.61566e-05
2.7878e-05
2.41145e-05
3.39443e-05
3.25502e-05
3.52203e-05
3.68792e-05
3.33477e-05
2.48628e-05
3.3899e-05
2.96755e-05
3.24912e-05
3.27255e-05
3.40751e-05
2.48779e-05
3.49157e-05
2.59066e-05
3.21491e-05
3.16757e-05
3.11884e-05
3.55535e-05
3.03481e-05
3.31315e-05
2.712e-05
3.08589e-05
3.08499e-05
3.40579e-05
2.86707e-05
2.75834e-05
3.37201e-05
3.37875e-05
3.29569e-05
3.35848e-05
3.46051e-05
2.6312e-05
3.08481e-05
3.05214e-05
2.78897e-05
3.37011e-05
3.49637e-05
3.51374e-05
3.43729e-05
3.55098e-05
2.6132e-05
2.5676e-05
2.64635e-05
3.47752e-05
2.4701e-05
3.4163e-05
3.27038e-05
2.59735e-05
2.95756e-05
3.36596e-05
3.44874e-05
2.84803e-05
2.93823e-05
3.03229e-05
3.24005e-05
3.49445e-05
3.13043e-05
2.63768e-05
3.20636e-05
3.51749e-05
3.39002e-05
3.52643e-05
3.49575e-05
3.64038e-05
3.51311e-05
3.40033e-05
2.67222e-05
2.46029e-05
3.18829e-05
2.85848e-05
3.46523e-05
2.54051e-05
3.28017e-05
3.09504e-05
3.54149e-05
2.71294e-05
3.31798e-05
3.36273e-05
3.24321e-05
3.02654e-05
2.58802e-05
3.42678e-05
2.8861e-05
3.49472e-05
3.13831e-05
3.55025e-05
3.52443e-05
3.20809e-05
2.45645e-05
2.55216e-05
3.10939e-05
3.25536e-05
2.88093e-05
3.59026e-05
2.59143e-05
3.47421e-05
3.35549e-05
2.92733e-05
3.31858e-05
3.41335e-05
3.46191e-05
3.50562e-05
3.46333e-05
3.22646e-05
3.25682e-05
2.45264e-05
2.91012e-05
3.52457e-05
2.67477e-05
3.32705e-05
3.10352e-05
2.69692e-05
3.14526e-05
3.31435e-05
3.13379e-05
3.33424e-05
3.40195e-05
2.60911e-05
3.10757e-05
3.19987e-05
2.60322e-05
2.91186e-05
3.14842e-05
3.11622e-05
3.33536e-05
2.608e-05
2.58048e-05
3.14307e-05
3.00851e-05
3.56058e-05
3.57874e-05
3.50864e-05
3.04718e-05
3.08494e-05
3.24503e-05
3.02259e-05
3.37645e-05
2.60053e-05
3.19371e-05
3.09302e-05
3.52805e-05
3.35383e-05
3.0777e-05
3.19154e-05
3.45624e-05
2.57205e-05
3.2206e-05
3.50774e-05
3.01943e-05
2.17411e-05
3.13609e-05
2.6088e-05
3.22715e-05
2.38629e-05
3.44985e-05
3.57079e-05
3.45076e-05
3.22505e-05
2.60455e-05
2.57919e-05
3.42e-05
3.46649e-05
3.43207e-05
3.229e-05
3.10638e-05
3.367e-05
3.47865e-05
3.41132e-05
2.44461e-05
3.02606e-05
3.33999e-05
3.31586e-05
2.97153e-05
3.25715e-05
2.44254e-05
3.48838e-05
3.43775e-05
3.1993e-05
3.24629e-05
3.31408e-05
3.1579e-05
3.54158e-05
3.3455e-05
2.66051e-05
3.11965e-05
3.38342e-05
3.09702e-05
3.1588e-05
3.2891e-05
2.39424e-05
2.68987e-05
3.48608e-05
3.5117e-05
3.43636e-05
3.52912e-05
3.29795e-05
3.45451e-05
3.23977e-05
3.21912e-05
3.32069e-05
3.45357e-05
2.92008e-05
3.09043e-05
3.0202e-05
3.17051e-05
3.41899e-05
2.35879e-05
3.21398e-05
2.4737e-05
3.44203e-05
2.48367e-05
2.47604e-05
3.13329e-05
2.39232e-05
3.14197e-05
3.25592e-05
3.43883e-05
3.46459e-05
2.91419e-05
2.90541e-05
3.56392e-05
2.85941e-05
2.63761e-05
3.09248e-05
2.81435e-05
3.49628e-05
3.31429e-05
3.22089e-05
2.59097e-05
3.37957e-05
3.39573e-05
3.4956e-05
2.51735e-05
2.80583e-05
3.22102e-05
3.31132e-05
3.56249e-05
2.66914e-05
2.55378e-05
3.32921e-05
3.17363e-05
3.52252e-05
3.2139e-05
2.37102e-05
3.28614e-05
3.39797e-05
2.54389e-05
2.39341e-05
3.46288e-05
2.71085e-05
2.70492e-05
3.47675e-05
3.50866e-05
3.40386e-05
3.60586e-05
3.17477e-05
2.99821e-05
3.47865e-05
2.83298e-05
3.49321e-05
2.91166e-05
3.25534e-05
3.42432e-05
3.12843e-05
2.53777e-05
3.42858e-05
3.45306e-05
2.99835e-05
3.14559e-05
3.17513e-05
2.80845e-05
3.00842e-05
3.21662e-05
3.18258e-05
3.44529e-05
2.96987e-05
3.33287e-05
2.52331e-05
3.37408e-05
3.53382e-05
2.42382e-05
3.3654e-05
3.22929e-05
2.26332e-05
2.53263e-05
3.21981e-05
3.17452e-05
3.40801e-05
2.98636e-05
2.65235e-05
3.41044e-05
3.49037e-05
3.44146e-05
3.29167e-05
3.51795e-05
2.54679e-05
3.47863e-05
3.17028e-05
2.60414e-05
2.56426e-05
2.16595e-05
2.64339e-05
3.31781e-05
3.01359e-05
3.27314e-05
3.20014e-05
2.7819e-05
2.88328e-05
2.40508e-05
2.381e-05
3.55324e-05
3.53043e-05
2.6759e-05
3.47566e-05
3.4276e-05
2.6296e-05
3.13262e-05
3.17041e-05
2.78459e-05
2.98522e-05
3.51588e-05
2.75419e-05
2.36055e-05
3.50639e-05
3.49313e-05
2.88237e-05
3.47801e-05
2.93206e-05
2.75218e-05
2.62547e-05
3.10787e-05
2.51653e-05
2.59616e-05
3.24683e-05
3.32603e-05
3.09041e-05
3.39406e-05
3.48267e-05
3.13286e-05
3.42637e-05
1.84204e-05
3.11102e-05
2.57048e-05
3.18734e-05
3.41661e-05
3.14478e-05
2.8788e-05
3.13148e-05
2.67549e-05
3.3006e-05
3.13991e-05
2.90582e-05
2.54567e-05
2.35204e-05
2.30515e-05
2.98774e-05
2.57734e-05
3.09147e-05
2.61943e-05
3.00391e-05
3.46528e-05
3.23524e-05
3.00585e-05
3.20986e-05
3.31364e-05
3.134e-05
3.39063e-05
2.43056e-05
3.2072e-05
3.48993e-05
3.51583e-05
3.08069e-05
3.60646e-05
2.77065e-05
3.29874e-05
3.11622e-05
2.49753e-05
3.38845e-05
3.5078e-05
3.32534e-05
3.34838e-05
3.39169e-05
3.23012e-05
2.31724e-05
2.41603e-05
3.08723e-05
3.54327e-05
3.17257e-05
3.45684e-05
2.91652e-05
3.02413e-05
2.69969e-05
2.49865e-05
2.51293e-05
2.45356e-05
3.32613e-05
3.2502e-05
3.4765e-05
3.04599e-05
2.96323e-05
3.57928e-05
2.52164e-05
3.19405e-05
3.49715e-05
3.42905e-05
2.95168e-05
3.08603e-05
3.38112e-05
3.46615e-05
3.4426e-05
2.63955e-05
3.21982e-05
3.40289e-05
3.26689e-05
3.18788e-05
3.50693e-05
3.34473e-05
3.49318e-05
3.28263e-05
2.83794e-05
3.25393e-05
3.43239e-05
3.32678e-05
3.14396e-05
2.5433e-05
3.47462e-05
3.4433e-05
3.37362e-05
3.43491e-05
2.44758e-05
2.22753e-05
3.09286e-05
3.34911e-05
2.98253e-05
3.29754e-05
3.39882e-05
3.43233e-05
3.44271e-05
2.95082e-05
3.35268e-05
3.16001e-05
3.40874e-05
2.57091e-05
2.56335e-05
3.05389e-05
3.47183e-05
2.6543e-05
3.41305e-05
2.58239e-05
3.0586e-05
3.17104e-05
3.50019e-05
3.07565e-05
3.47771e-05
3.45759e-05
3.36715e-05
3.22854e-05
3.35634e-05
3.18138e-05
2.93679e-05
2.34476e-05
3.55586e-05
2.14497e-05
2.43964e-05
2.71086e-05
2.41281e-05
2.42734e-05
3.0592e-05
3.23029e-05
2.60302e-05
2.91564e-05
2.22523e-05
2.64014e-05
2.99764e-05
3.46688e-05
2.45652e-05
2.49265e-05
3.39214e-05
2.46423e-05
3.05553e-05
3.29884e-05
3.26918e-05
3.12609e-05
2.58456e-05
2.41373e-05
2.93756e-05
3.54357e-05
2.75159e-05
2.49992e-05
3.2325e-05
2.89421e-05
3.22568e-05
3.16033e-05
2.59834e-05
3.42453e-05
2.36713e-05
2.47781e-05
3.00668e-05
3.41964e-05
2.92231e-05
3.02744e-05
3.05392e-05
3.21847e-05
2.32035e-05
2.6945e-05
3.06222e-05
3.47973e-05
3.35533e-05
2.47378e-05
2.24746e-05
3.0163e-05
3.56649e-05
3.1366e-05
3.16188e-05
2.88067e-05
3.11456e-05
3.17344e-05
2.55794e-05
3.49461e-05
2.88684e-05
2.5249e-05
2.25767e-05
3.36673e-05
3.17429e-05
3.486e-05
3.21333e-05
3.42374e-05
2.55365e-05
3.01608e-05
2.35204e-05
2.20318e-05
3.35312e-05
2.62314e-05
3.0384e-05
3.19271e-05
3.2504e-05
2.51756e-05
3.4966e-05
3.40438e-05
3.52753e-05
3.26231e-05
2.08267e-05
3.1541e-05
2.37306e-05
3.4704e-05
2.57147e-05
3.4655e-05
2.24388e-05
3.27828e-05
3.2659e-05
2.86676e-05
2.93401e-05
2.32563e-05
2.83002e-05
3.16445e-05
3.36411e-05
3.30309e-05
3.49137e-05
3.38902e-05
2.58603e-05
3.50263e-05
3.04122e-05
3.23601e-05
3.3012e-05
3.43763e-05
3.37955e-05
3.16602e-05
3.49817e-05
3.05413e-05
2.90285e-05
2.88251e-05
3.24869e-05
3.39874e-05
2.85284e-05
2.64755e-05
3.43426e-05
3.24527e-05
3.12739e-05
3.54217e-05
3.26475e-05
3.22954e-05
3.27474e-05
3.41943e-05
3.40348e-05
3.16287e-05
3.06178e-05
3.41901e-05
3.3278e-05
2.76308e-05
3.16852e-05
2.7943e-05
3.48562e-05
3.24717e-05
3.48038e-05
2.56608e-05
2.55629e-05
3.19247e-05
3.35972e-05
3.33564e-05
3.47896e-05
3.42132e-05
3.1526e-05
3.3318e-05
2.62614e-05
3.13384e-05
3.14925e-05
3.4694e-05
3.42793e-05
3.48369e-05
3.12646e-05
3.51593e-05
2.7273e-05
3.47456e-05
2.82069e-05
3.09993e-05
2.97644e-05
3.20582e-05
3.11475e-05
3.35717e-05
2.47632e-05
3.43936e-05
3.37427e-05
3.05801e-05
2.57519e-05
3.47391e-05
3.31842e-05
3.40958e-05
3.12429e-05
3.17809e-05
3.37079e-05
2.51628e-05
3.48111e-05
3.06969e-05
3.19915e-05
2.77294e-05
2.8515e-05
2.81078e-05
2.46658e-05
2.93774e-05
3.56574e-05
3.20163e-05
2.36082e-05
3.16479e-05
2.47164e-05
3.21854e-05
3.25731e-05
2.3493e-05
2.4594e-05
2.85346e-05
3.18906e-05
3.36824e-05
2.94382e-05
3.37437e-05
3.08297e-05
2.85038e-05
2.89643e-05
3.48988e-05
3.43878e-05
3.44386e-05
3.36653e-05
3.2815e-05
2.53773e-05
2.64106e-05
3.52123e-05
3.03517e-05
3.19165e-05
3.3547e-05
3.55078e-05
3.21388e-05
3.30324e-05
2.3765e-05
3.38396e-05
3.44782e-05
2.92666e-05
3.47247e-05
3.43166e-05
3.25053e-05
2.96662e-05
3.31948e-05
2.96762e-05
2.31838e-05
3.21196e-05
2.64375e-05
2.47224e-05
3.18965e-05
3.16823e-05
3.33069e-05
3.34117e-05
3.23798e-05
3.50047e-05
2.21039e-05
2.92387e-05
3.47569e-05
3.47021e-05
2.36768e-05
3.20292e-05
2.68812e-05
2.95434e-05
3.50094e-05
2.84172e-05
3.28465e-05
3.5397e-05
3.33212e-05
2.35249e-05
3.36282e-05
2.55739e-05
3.46253e-05
3.3514e-05
3.29155e-05
3.48712e-05
3.2422e-05
3.44806e-05
2.53254e-05
3.41203e-05
3.43919e-05
2.66921e-05
3.29098e-05
3.15921e-05
2.96129e-05
3.39221e-05
3.00738e-05
3.4293e-05
3.50064e-05
3.53781e-05
3.14218e-05
3.4129e-05
3.17517e-05
3.35033e-05
2.76219e-05
2.9305e-05
2.48923e-05
2.42875e-05
3.24236e-05
3.32177e-05
3.16151e-05
3.50036e-05
3.05864e-05
3.50605e-05
2.39857e-05
3.51452e-05
3.53113e-05
3.31887e-05
3.52532e-05
2.71426e-05
2.35296e-05
3.11292e-05
2.48756e-05
3.46872e-05
3.17329e-05
2.36727e-05
3.03671e-05
3.55007e-05
3.24346e-05
2.49042e-05
2.77385e-05
2.35384e-05
3.57276e-05
2.46162e-05
3.39796e-05
2.92069e-05
2.57589e-05
3.44265e-05
3.46014e-05
3.46264e-05
3.36619e-05
2.50342e-05
3.24928e-05
3.46714e-05
2.6621e-05
3.48357e-05
3.20044e-05
3.5023e-05
2.33524e-05
3.37468e-05
2.92151e-05
3.26011e-05
2.91e-05
3.10167e-05
2.97473e-05
2.87687e-05
3.00213e-05
3.0404e-05
3.31831e-05
3.11297e-05
3.52877e-05
2.65499e-05
3.13291e-05
3.15942e-05
3.36349e-05
3.46533e-05
2.54092e-05
3.4213e-05
2.62093e-05
3.13405e-05
3.46059e-05
3.43813e-05
3.01417e-05
3.27088e-05
3.30297e-05
2.93007e-05
3.17128e-05
3.04912e-05
2.48257e-05
2.49411e-05
3.28172e-05
3.3909e-05
3.12627e-05
2.97723e-05
3.40046e-05
2.58535e-05
3.24694e-05
2.60879e-05
3.33472e-05
3.50826e-05
3.18205e-05
2.52117e-05
3.39636e-05
2.44585e-05
3.26483e-05
3.46036e-05
2.36565e-05
3.56079e-05
2.64525e-05
2.93993e-05
3.00423e-05
2.53135e-05
2.95112e-05
2.99454e-05
2.33419e-05
3.40348e-05
3.44474e-05
2.17021e-05
2.91707e-05
3.32775e-05
3.14031e-05
3.25996e-05
3.54093e-05
3.39698e-05
3.07245e-05
2.79908e-05
2.39126e-05
2.3028e-05
2.74598e-05
3.52446e-05
3.41063e-05
3.3232e-05
3.35015e-05
2.55031e-05
2.49856e-05
3.11687e-05
3.3835e-05
2.3652e-05
3.32765e-05
3.18009e-05
3.03472e-05
3.33375e-05
2.96695e-05
3.36443e-05
2.85593e-05
3.09637e-05
3.47411e-05
2.12055e-05
3.26226e-05
3.39063e-05
3.42876e-05
3.29943e-05
3.42049e-05
3.18423e-05
2.52723e-05
3.52429e-05
3.62278e-05
3.19564e-05
3.15847e-05
2.94268e-05
3.13281e-05
3.30076e-05
3.38733e-05
3.17732e-05
3.08861e-05
3.06641e-05
2.40311e-05
2.96045e-05
3.50914e-05
3.28564e-05
3.62605e-05
3.16951e-05
3.02264e-05
3.48888e-05
2.53748e-05
3.3553e-05
2.51859e-05
3.46367e-05
3.29686e-05
2.97328e-05
3.58127e-05
2.92771e-05
3.11317e-05
3.48716e-05
3.0252e-05
3.48504e-05
3.34328e-05
3.34698e-05
2.48833e-05
3.16341e-05
3.13989e-05
2.71294e-05
3.41165e-05
3.03959e-05
3.03441e-05
3.49044e-05
2.55846e-05
3.48538e-05
3.15597e-05
3.44287e-05
2.89073e-05
3.22291e-05
2.49906e-05
2.59048e-05
3.53301e-05
2.57832e-05
3.14204e-05
3.36864e-05
2.45023e-05
3.06981e-05
3.40448e-05
2.90724e-05
2.60494e-05
2.81596e-05
3.03187e-05
2.99586e-05
3.36171e-05
3.03125e-05
3.4076e-05
3.20137e-05
3.41534e-05
2.30997e-05
2.72272e-05
3.49308e-05
3.08933e-05
2.42166e-05
2.60099e-05
3.13275e-05
2.59169e-05
2.51375e-05
3.16412e-05
3.11021e-05
3.56631e-05
3.00876e-05
3.42737e-05
3.40985e-05
3.36596e-05
3.4358e-05
3.44312e-05
2.99582e-05
2.91898e-05
3.42106e-05
3.0837e-05
3.00441e-05
3.43763e-05
3.14507e-05
2.40005e-05
2.48107e-05
3.05371e-05
2.69891e-05
3.28989e-05
3.38767e-05
3.05959e-05
3.43215e-05
3.41018e-05
3.35621e-05
3.60904e-05
3.04297e-05
2.51663e-05
3.01082e-05
3.0142e-05
3.38252e-05
3.04742e-05
3.30493e-05
3.45036e-05
3.04566e-05
2.92107e-05
3.19627e-05
3.49343e-05
3.33175e-05
3.62493e-05
3.34151e-05
3.0024e-05
3.07157e-05
2.70563e-05
2.90895e-05
3.49967e-05
2.74587e-05
3.53158e-05
2.99415e-05
3.41587e-05
2.47836e-05
3.31986e-05
3.17734e-05
3.38346e-05
3.11325e-05
3.28914e-05
3.13402e-05
3.42989e-05
2.42064e-05
2.66867e-05
3.17284e-05
2.95735e-05
3.2173e-05
3.15983e-05
3.18717e-05
3.4563e-05
3.17751e-05
2.37013e-05
2.815e-05
2.50479e-05
3.2058e-05
3.13062e-05
2.56724e-05
3.60848e-05
3.17162e-05
3.09085e-05
3.38142e-05
2.7467e-05
2.59205e-05
3.53279e-05
2.59477e-05
2.45654e-05
3.07996e-05
3.00073e-05
2.59197e-05
2.84447e-05
3.49737e-05
3.43604e-05
2.97128e-05
3.21068e-05
3.39828e-05
3.14224e-05
3.3489e-05
2.40448e-05
3.45719e-05
1.82754e-05
3.39283e-05
2.54906e-05
2.47809e-05
3.40267e-05
2.47e-05
3.11733e-05
3.23495e-05
3.40569e-05
2.92602e-05
3.33203e-05
3.04143e-05
3.13459e-05
2.99389e-05
3.33327e-05
3.22702e-05
3.43539e-05
3.18714e-05
2.5771e-05
3.33725e-05
3.15052e-05
3.11232e-05
3.1134e-05
2.70039e-05
2.89886e-05
2.41506e-05
2.50236e-05
3.16754e-05
3.04111e-05
2.64806e-05
2.93378e-05
3.38362e-05
3.49945e-05
3.45898e-05
1.81167e-05
2.38328e-05
3.4584e-05
2.46463e-05
3.31393e-05
2.40967e-05
3.45788e-05
3.37736e-05
3.40057e-05
2.55249e-05
3.06635e-05
3.48854e-05
3.47263e-05
3.22822e-05
3.47762e-05
3.13422e-05
3.19851e-05
3.12934e-05
2.50777e-05
3.18469e-05
2.86009e-05
3.14773e-05
3.11135e-05
2.67683e-05
3.09419e-05
3.47518e-05
2.79527e-05
2.84676e-05
2.49658e-05
3.39881e-05
3.37008e-05
2.31453e-05
3.11191e-05
3.15842e-05
3.25838e-05
2.53328e-05
3.17159e-05
3.12739e-05
3.5724e-05
2.46371e-05
3.096e-05
3.09997e-05
2.34501e-05
3.43929e-05
2.61525e-05
2.6131e-05
3.21846e-05
3.50649e-05
2.41182e-05
3.41423e-05
3.27109e-05
3.17828e-05
2.37305e-05
3.48291e-05
3.5062e-05
2.37927e-05
3.18155e-05
2.30679e-05
2.63474e-05
3.48211e-05
2.97251e-05
3.20609e-05
3.36961e-05
3.53538e-05
3.04813e-05
2.92901e-05
3.08236e-05
3.05136e-05
3.18691e-05
2.92845e-05
3.46862e-05
2.57101e-05
2.97633e-05
3.13774e-05
3.00421e-05
3.37388e-05
3.09346e-05
3.31433e-05
3.31704e-05
3.18789e-05
3.48611e-05
3.31983e-05
3.00199e-05
2.81252e-05
3.35446e-05
3.06554e-05
2.98086e-05
3.28975e-05
3.51169e-05
3.33671e-05
3.34349e-05
2.94059e-05
3.32583e-05
2.83409e-05
2.49555e-05
3.12541e-05
3.22936e-05
2.46238e-05
3.26745e-05
3.09199e-05
2.18862e-05
2.50015e-05
3.32745e-05
2.48807e-05
3.03711e-05
3.35133e-05
3.24009e-05
2.48616e-05
3.21875e-05
3.57296e-05
2.59082e-05
2.50754e-05
2.57488e-05
3.44674e-05
3.14781e-05
3.0743e-05
3.4142e-05
2.48572e-05
3.31999e-05
3.18656e-05
3.50481e-05
3.49894e-05
1.95552e-05
3.18483e-05
3.27666e-05
3.32008e-05
3.15781e-05
3.11758e-05
2.67375e-05
3.21326e-05
3.5241e-05
2.85114e-05
2.35607e-05
2.96431e-05
3.43301e-05
3.3021e-05
2.43164e-05
3.04857e-05
3.39293e-05
3.46944e-05
3.11774e-05
3.07934e-05
2.30363e-05
2.53084e-05
2.51773e-05
3.16249e-05
3.04817e-05
3.21995e-05
3.54519e-05
3.43294e-05
2.78967e-05
3.4288e-05
3.44612e-05
3.32398e-05
2.92602e-05
3.43232e-05
3.04739e-05
2.62965e-05
2.91749e-05
3.12825e-05
3.24922e-05
2.88367e-05
3.27027e-05
2.9353e-05
3.42528e-05
2.59817e-05
2.34329e-05
3.02944e-05
3.47729e-05
3.32732e-05
2.9086e-05
2.98171e-05
3.35602e-05
3.44638e-05
2.94105e-05
3.01523e-05
3.41943e-05
3.52263e-05
3.33369e-05
3.50749e-05
3.35949e-05
3.36816e-05
2.38919e-05
3.02529e-05
2.51034e-05
3.29694e-05
3.43986e-05
2.9078e-05
2.48996e-05
3.49048e-05
2.47414e-05
2.84016e-05
2.61591e-05
3.08865e-05
2.43335e-05
3.27235e-05
3.13467e-05
3.10062e-05
3.12573e-05
2.69921e-05
3.46909e-05
2.56501e-05
3.29766e-05
3.13445e-05
3.07176e-05
2.4729e-05
3.38015e-05
3.27103e-05
2.64962e-05
2.74714e-05
3.03561e-05
2.98608e-05
3.10657e-05
2.45731e-05
3.22599e-05
2.96813e-05
3.1794e-05
2.84016e-05
2.86286e-05
2.84233e-05
2.51033e-05
3.37036e-05
3.13349e-05
1.00764e-05
2.60159e-05
3.20392e-05
3.44687e-05
3.36919e-05
2.67043e-05
2.64467e-05
3.45982e-05
2.53685e-05
3.39476e-05
3.49763e-05
3.18176e-05
2.60098e-05
3.45557e-05
2.46104e-05
2.31809e-05
2.307e-05
3.28791e-05
3.09501e-05
2.88194e-05
3.51063e-05
3.32682e-05
3.20241e-05
2.62548e-05
2.2288e-05
3.54094e-05
3.17626e-05
3.54957e-05
3.44833e-05
2.49025e-05
3.07842e-05
3.00924e-05
3.03875e-05
3.12097e-05
2.90178e-05
3.02021e-05
3.64423e-05
3.18085e-05
2.97159e-05
2.56247e-05
3.22729e-05
3.08881e-05
3.28911e-05
2.96693e-05
2.46522e-05
2.57035e-05
3.24194e-05
3.30026e-05
2.91911e-05
3.35596e-05
2.8348e-05
3.32306e-05