/*--------------------------------*- C++ -*----------------------------------*\
| =========                 |                                                 |
| \\      /  F ield         | OpenFOAM: The Open Source CFD Toolbox           |
|  \\    /   O peration     | Version:  2212                                  |
|   \\  /    A nd           | Website:  www.openfoam.com                      |
|    \\/     M anipulation  |                                                 |
\*---------------------------------------------------------------------------*/
FoamFile
{
    version     2.0;
    format      ascii;
    arch        "LSB;label=32;scalar=64";
    class       volScalarField;
    location    "0.054";
    object      p;
}
// * * * * * * * * * * * * * * * * * * * * * * * * * * * * * * * * * * * * * //

dimensions      [0 2 -2 0 0 0 0];

internalField   nonuniform List<scalar> 
31639
(
0.011406
0.00793165
0.0130466
0.00580041
0.00801738
0.0111678
0.0125293
0.0119257
0.00847091
0.00723132
0.0124112
0.00807668
0.00839481
0.0109194
0.00950363
0.0133438
0.0154798
0.0158189
0.00259047
0.0121413
0.00884154
0.00682665
0.00928793
0.0057427
0.00996958
0.011799
0.0114757
0.0362641
0.0119982
0.0119711
0.00642065
0.0170891
0.00853254
0.0046139
0.020776
0.0119081
0.00684678
0.01245
0.0124305
0.0101671
0.00811919
0.011641
0.00909595
0.0126251
0.0130164
0.00542389
0.0081569
0.00643215
0.0139797
0.00585884
0.00540296
0.00432663
0.0211798
0.0129174
0.00422622
0.0157964
0.00693484
0.0115586
0.00794099
0.00553627
0.00607251
0.0116412
0.00966626
0.0119039
0.0209988
0.00342334
0.00209887
0.00665397
0.00825302
0.00515422
0.00732023
0.015595
0.00715025
0.00308741
0.0212794
0.0169243
0.00734247
0.00679565
0.00787164
0.00748213
0.0113692
0.0109189
0.0107546
0.00597779
0.0106327
0.00984725
0.00910289
0.00643478
0.00210806
0.00856112
0.00487021
0.0155272
0.00568012
0.00756913
0.00362878
0.0114843
0.00617458
0.00436839
0.00829962
0.0110113
0.0196187
0.019584
0.0100098
0.00760688
0.00421846
0.0052629
0.0111987
0.00556768
0.00647104
0.0100727
0.0124885
0.0108655
0.0116341
0.00684508
0.00304126
0.0121435
0.0208752
0.012886
0.0197239
0.00610754
0.01725
0.00527802
0.00274536
0.00582816
0.0111175
0.0109347
0.00784965
0.00592071
0.00722405
0.00874647
0.0206422
0.000910269
0.0132093
0.00310026
0.00372231
0.00662232
0.0069277
0.00757234
0.00544047
0.00606793
0.00600899
0.00894578
0.00975742
0.00558578
0.00814093
0.0106262
0.0198555
0.00692494
0.0102635
0.0211901
0.00620235
0.0142669
0.00443773
0.00399897
0.00518858
0.00395357
0.00291979
0.00727742
0.013867
0.00658045
0.00361597
0.0156461
0.00702844
0.0116116
0.0165744
0.0166476
0.0129691
0.014504
0.00456248
0.00318022
0.0150016
0.0109094
0.0147852
0.00848548
0.0105498
0.00708006
0.00955868
0.0171718
0.00664491
0.0100315
0.00829867
0.0137037
0.0116794
0.0121508
0.0121963
0.0119366
0.014268
0.010041
0.010926
0.0135561
0.013801
0.0071851
0.0140312
0.00425801
0.00486616
0.00505021
0.00486747
0.00772981
0.00496968
0.0123211
0.0103274
0.0156648
0.0137382
0.0146282
0.00707719
0.00587347
0.00245514
0.00415435
0.0174835
0.00476089
0.00476477
0.0101465
0.019706
0.0105441
0.0126975
0.0106401
0.0106476
0.0106199
0.0149129
0.00795996
0.00823485
0.0101581
0.0107457
0.0149176
0.0129703
0.00739246
0.0133681
0.0131012
0.00927227
0.0169627
0.004471
0.0123242
0.0156545
0.0135591
0.0138983
0.00234623
0.00215926
0.0141606
0.0116784
0.00421518
0.00597455
0.0127589
0.0148159
0.0139694
0.00616585
0.016002
0.00471029
0.0165195
0.0135227
0.00237955
0.000684962
0.00542156
0.0138567
0.0158863
0.00771654
0.00824815
0.0115736
0.00354307
0.0114257
0.0131951
0.00552238
0.00443438
0.00773166
0.0109219
0.00779552
0.0105908
0.00174007
0.0201004
0.0126247
0.011258
0.0257394
0.00527179
0.0114872
0.0142375
0.00683966
0.0133993
0.00488483
0.0149572
0.00664686
0.00543452
0.0167515
0.0172055
0.0170876
0.0227118
0.012257
0.0123207
0.0149692
0.0142716
0.00270564
0.0138309
0.0153969
0.00123341
0.00442697
0.00443045
0.0129859
0.00382816
0.0155544
0.00206827
0.00608134
0.00705096
0.00655154
0.0149363
0.00472656
0.00423039
0.00946433
0.00380471
0.0108074
0.00249802
0.00912409
0.0149809
0.00632234
0.0250822
0.0200592
0.00889451
0.00816166
0.0115023
0.00220446
0.0172741
0.0134364
0.0132217
0.0126813
0.00529454
0.0193761
0.00389905
0.0104375
0.0141312
0.0126994
0.0142873
0.00460362
0.00532181
0.00551797
0.0057917
0.0152474
0.00434008
0.015687
0.020846
0.021361
0.0066149
0.0144749
0.0163906
0.00369707
0.0018097
0.0159387
0.00332876
0.00476296
0.0147902
0.00400001
0.0130698
0.0129159
0.0194493
0.00732669
0.0149234
0.00727512
0.0137926
0.004204
0.00550028
0.00471307
0.00950825
0.00964356
0.0143896
0.0157141
0.00962999
0.0249916
0.0026884
0.00667777
0.00601354
0.00322155
0.00958867
0.0102658
0.0143009
0.0093066
0.0174708
0.010921
0.00514175
0.0034597
0.00576476
0.020112
0.0168199
0.014016
0.017636
0.0133004
0.00433266
0.00651405
0.0043116
0.0039902
0.00378561
0.00465747
0.00802702
0.000361789
0.0160485
0.00234846
0.0177682
0.00471777
0.0148618
0.00409497
0.0152381
0.0161863
0.0121681
0.00581438
0.0235628
0.0158334
0.0124611
0.0118869
0.0039462
0.0140262
0.00213526
0.00616952
0.00623441
0.00647814
0.0121928
0.0053325
0.00628414
0.0139753
0.025882
0.0127786
0.0140411
0.010288
0.0109808
0.00983104
0.00817151
0.00788848
0.0193894
0.00938405
0.000827953
0.013962
0.0254992
0.00903088
0.0189349
0.010923
0.0130738
0.00570033
0.00473096
0.0149101
0.00538085
0.0118622
0.0118797
0.0144757
0.00352672
0.00435052
0.0154957
0.00655609
0.00229911
0.00277628
0.0106857
0.0036995
0.00665377
0.00701548
0.0162919
0.0159262
0.0172177
0.0161927
0.0141021
0.00685921
0.0144776
0.00650889
0.0153883
0.0172881
0.00534545
0.0141429
0.00592664
0.0116245
0.0166067
0.0109973
0.00297823
0.0136264
0.0380972
0.00293857
0.00883595
0.00601083
0.0132509
0.00172378
0.00455756
0.00546055
0.00454569
0.0144365
0.00116394
0.00912541
0.0186442
0.0082287
0.00953778
0.00551316
0.0203598
0.00354432
0.00751892
0.0194069
0.0249552
0.0090357
0.0129587
0.0105322
0.00703509
0.00543094
0.00412825
0.0171115
0.00194428
0.0112101
0.0107926
0.0102242
0.00307227
0.00465571
0.0163801
0.0184934
0.00231551
0.00269331
0.0030329
0.0017717
0.0217941
0.00623736
0.00258003
0.0174002
0.0194267
0.017326
0.00363245
0.0156713
0.014524
0.016527
0.00186482
0.0194067
0.0194419
-0.000359861
0.0168428
0.0162831
0.0169504
0.0107653
0.0180658
0.000760633
0.0029368
0.0165199
0.00242066
0.00295419
0.00501982
0.0122268
0.00826748
0.0152053
0.00101206
0.00537284
0.00868777
0.0182101
0.00117311
0.014482
0.00222113
0.0252622
0.025518
0.00599963
0.0365477
0.00618113
0.00614472
0.0100089
0.010319
0.00715206
0.00978058
0.026246
0.00717102
0.0141602
0.000576657
0.00641454
0.0099576
0.00560452
0.0162141
0.00125604
0.00386454
0.00975327
0.00347707
0.00880596
0.00897938
0.00485161
0.0204744
0.00354974
0.00247787
0.000350044
0.011376
0.0186533
0.00279584
0.00056194
0.00344015
0.00379493
0.00298045
0.0173002
-5.78576e-05
0.00114224
0.000775657
0.0156006
0.00193554
0.0163042
0.0166498
0.0173629
0.00507369
3.87151e-05
0.000191016
0.00264134
0.00074733
0.0106691
0.000918198
0.0106651
0.0168969
0.00142236
0.00619111
0.00831167
0.0203773
0.0187951
0.0147398
0.00701483
0.00338202
0.0195575
0.0168195
0.00157231
0.00172913
0.00723808
0.0122913
0.00503933
0.00104604
7.65351e-05
0.000843536
0.0162161
0.0135996
0.00621524
0.0375139
0.0133413
0.010426
0.00717855
0.0112612
0.0144387
0.0143036
0.0100029
0.00637969
0.00798604
0.00826652
0.0135541
0.0031327
0.00972932
0.00114438
0.0105965
0.0247624
0.0172409
0.0159088
0.0118309
0.00931009
0.0224802
0.0104777
0.0125627
0.0055709
0.0199857
0.0188284
0.00273113
0.0103494
0.0117251
0.000198645
0.0229032
0.00631079
0.00106575
0.00307583
0.0017436
0.0203521
0.0185769
0.0189817
0.0028645
9.617e-05
0.0160703
0.0107968
0.016949
0.0174488
0.0175362
0.0011415
-1.14785e-05
0.0165692
0.014482
0.0149762
0.0175226
0.000975016
0.00624223
0.0257197
0.00362426
0.00206866
0.0179929
0.0102065
0.00427715
0.0163953
0.0161406
0.0131764
0.00757825
0.00506294
0.0119477
0.0068951
0.000328725
0.000649275
0.00132913
0.00507078
0.0019088
0.0203593
0.00721605
0.000544707
0.000635231
0.0155985
0.00549263
0.000662401
0.0378186
0.00511377
0.00608539
0.00820815
0.00926592
0.00784092
0.010039
0.00946778
0.00636735
0.00732056
0.0105492
0.00674018
0.00628722
0.0071282
0.00940967
0.0179507
0.0101689
0.00961177
0.0157537
0.0203771
0.0171518
0.00479709
0.0094632
0.00271185
0.0106892
0.0212117
0.00080469
0.00195857
0.00179045
0.00544168
0.00631247
0.015647
0.0150064
0.00444056
0.00181611
0.0122141
0.0202854
0.000486439
0.0166557
0.00663714
0.015418
0.0141124
0.0149434
0.0191868
0.0178192
0.0230688
0.0163635
0.0136704
0.0169717
0.0153486
0.0158734
0.00570907
0.0200056
0.00560665
0.00146739
0.00372808
0.0155533
5.97428e-05
0.0128338
0.00303458
0.00422173
0.0129069
0.00772407
0.0193218
0.00357834
0.0134964
0.00436367
0.0222076
0.00639819
0.000536362
0.000919321
0.0181154
0.0121151
0.000822867
0.00198081
0.00112749
0.00382533
0.000524848
0.000249209
0.0152552
0.0147836
0.000148086
0.0148207
0.0130982
0.0158628
0.00867433
0.0085683
0.00693116
0.0111334
0.0116863
0.00541047
0.000873657
0.0102182
0.0139825
0.0103422
0.0191158
0.0171512
0.0102453
0.0167256
0.00632082
0.0257595
0.00301241
0.0167957
0.0100557
6.53221e-05
0.0114459
0.00293051
0.00613853
0.0025219
0.00251875
0.0128444
0.0182514
0.00445875
0.0161122
0.000775998
0.00074861
0.000820707
0.0212318
0.0214052
0.020343
0.0218956
0.018029
0.0166551
0.00558742
0.00356648
0.00616829
0.00162776
0.0119028
0.00533098
0.0140174
0.00774885
0.00620359
0.00192013
-0.000120915
0.00453098
0.00241536
0.0189921
0.0082387
0.00444487
0.0042744
0.0079079
0.000755514
0.0133568
0.00431682
0.0166948
0.00319548
0.0021583
0.0109553
0.0109046
0.0170488
0.0202228
0.0176889
0.0134613
0.00755507
0.00820791
0.0160469
0.000103988
0.000896738
0.0157817
0.0161377
-0.000125191
0.000335301
0.0022562
0.0159006
0.00416011
0.00966212
0.0204631
0.0200354
0.0102152
0.0239545
0.00770592
0.00665545
0.00686674
0.00442821
0.00274575
0.0167856
0.00283508
0.0102253
0.0123946
0.0188986
0.00595428
0.00689326
0.00653796
0.0152282
0.0154307
0.0154393
0.0219384
0.00203575
0.0178136
0.0175224
0.0179115
0.00970628
0.000345134
0.02109
0.0217104
0.019988
0.0117911
0.0124915
0.0135999
0.0126937
0.0151743
0.011646
0.000482063
0.0159304
0.00740066
0.0050594
0.0162014
0.00122223
0.000714454
0.0028244
0.00265976
0.019382
0.0077921
0.00283812
0.00396412
0.00704755
0.0143572
0.00672212
0.00616767
0.0129463
0.00904375
0.000260307
0.0166884
0.010563
0.017553
0.00881535
0.00183271
0.013573
0.0135021
0.000669179
0.00778976
0.00724237
0.000516038
0.000642043
0.0165381
0.0189836
0.00764442
0.00991479
0.00113462
0.0175786
0.0219055
0.0183703
0.0126792
0.00591135
0.0172938
0.0130287
0.00685154
0.00957005
0.00530176
0.0053989
0.00853135
0.0162851
0.00292857
0.0106599
0.00671074
0.00605628
0.000190678
0.0182198
0.0071245
0.018791
0.00516539
0.0153913
0.0177648
0.00883344
0.00885202
0.018531
0.014996
0.0168773
0.00652429
0.00755982
0.0148923
0.0142059
0.0112797
0.0119706
0.0173364
0.0177723
0.0233986
0.0137444
0.0155189
0.000971993
0.000624556
0.0159182
0.0145276
0.00746637
0.0172755
0.00246815
0.012138
0.0135405
0.017013
0.00209198
0.017443
0.015847
0.0188763
0.0179636
0.0187696
0.00883711
0.0161437
0.00715788
0.0124325
0.0120395
0.0114422
0.0195373
0.0180937
0.0175255
0.014811
0.00801819
0.010449
0.0115338
0.0177796
0.0114064
3.21525e-05
0.0185111
0.0203928
0.0096176
0.00810145
0.00340175
0.00239607
0.00675947
0.0179544
0.00561223
0.00600406
0.0221497
0.00899902
0.00333221
0.00459653
0.000380919
0.00859429
0.00972261
0.00884521
0.0165994
0.000577957
0.0191851
0.00171291
0.0186331
0.0180075
0.0220055
0.00846406
0.00872333
0.00741387
0.01394
0.0123984
0.0144733
0.0223909
0.0162937
0.017246
0.0114305
0.0138981
0.00821673
0.0146042
0.0126694
0.0027784
0.00252479
0.0101948
0.000798352
0.00725797
0.0193482
0.0203908
0.00369057
0.0187158
0.0121443
0.0196614
0.0108067
0.0110661
0.00147812
0.000814455
0.0142842
0.0129181
0.00621695
0.00818729
0.00773863
0.0119932
0.00828745
0.0162191
0.0173724
0.022286
0.0171392
0.0184842
0.0111923
0.00787359
0.00920068
0.000816637
0.00158042
0.00301679
0.0081005
0.00731515
0.0128493
0.00756402
0.0135285
0.0153498
0.0170069
0.00782706
0.00486327
0.022714
0.0118935
0.0203599
0.0201324
0.00893536
0.0205513
0.00207378
0.0173785
0.00518279
0.009738
0.00386791
0.00756177
0.00848285
0.0194627
0.0198235
0.00062725
0.0178197
0.0213032
0.0243229
0.00790119
0.0150083
0.0171985
0.0174587
0.00703378
0.00758526
0.0162299
0.0245333
0.0161491
0.00297649
0.0142576
0.0239887
0.013907
0.0136532
0.0132722
0.00660837
0.0201236
0.0174149
0.0202953
0.0017537
0.0145707
0.0011625
0.0119887
0.0170116
0.00363995
0.0171816
0.00530747
0.0162886
0.022156
0.00957079
0.000464918
0.0108557
0.0115889
0.00066915
0.00717671
0.00725727
0.0114281
0.0083728
0.0232051
0.0186783
0.00734555
0.00724404
0.0180615
0.0101632
0.0171865
0.0225195
0.0174773
0.000589594
0.000577151
0.0185113
0.0160843
0.0112495
0.0125497
0.0143833
0.0119184
0.0123898
0.0202831
0.0177585
0.0213202
0.0160183
0.0140283
0.00196847
0.0205161
0.00270688
0.00775551
0.0191691
0.020533
0.0165844
0.00866692
0.00775368
0.000415065
0.017961
0.0110856
0.0190421
0.0104512
0.0201655
0.0213223
0.0134617
0.0143797
0.0085787
0.00417801
0.0232842
0.011091
0.0142432
0.0110783
0.0102177
0.0148468
0.0235552
0.0136486
0.0127593
0.0252891
0.00219538
0.0199215
0.012289
0.0244983
0.0127021
0.0102103
0.0197676
0.0202682
0.00362675
0.00755002
0.00419962
0.00519083
0.0175176
0.00927174
0.0100767
0.000401648
0.00805051
0.0292795
0.00827357
0.00865245
0.0119488
0.0123292
0.0116501
0.0184211
0.0189462
0.0136778
0.00732573
0.0187037
0.0104988
0.0193834
0.0173299
0.0174968
0.0193055
0.0197292
0.0180896
0.00690105
0.000532009
0.0207691
0.0062621
0.021785
0.0242912
0.0227857
0.00828166
0.0207951
0.0139582
0.00219568
0.00179967
0.00303058
0.0185376
0.0192201
0.0190999
0.0177039
0.0212631
0.00869574
0.00716439
0.0194633
0.0215495
0.0102548
0.0191478
0.0205728
0.0136389
0.0078922
0.0233988
0.0209146
0.0179742
0.0145622
0.018624
0.0152806
0.0200533
0.00166029
0.0152832
0.0180189
0.0205634
0.0146439
0.0195758
0.00978719
0.0246254
0.0153634
0.00202436
0.0186506
0.00446156
0.000117811
0.00421555
0.0146821
0.0124978
0.0145273
0.0186992
0.020291
0.00764453
0.0160264
0.00913732
0.0124448
0.011799
0.0116102
0.00714914
0.0190826
0.0127802
0.0132935
0.0189046
0.0132602
0.00658673
0.00632592
0.0133131
0.0139958
0.0127272
0.0177474
0.0181739
0.00104119
0.01256
0.0189241
0.0180254
0.0130227
0.0133241
0.0109626
0.0136275
0.0237927
0.00118245
0.00652121
0.0198486
0.00305371
0.00874643
0.00946774
0.00901987
0.0220864
0.0233922
0.00292383
0.0239558
0.0213214
0.0153003
0.0152471
0.02164
0.0158115
0.0200175
0.0187909
0.00372749
0.00834032
0.0227585
0.000410184
0.000674963
0.0218007
0.0203303
0.00357076
0.021585
0.0158675
0.0138444
0.00901952
0.0204807
0.0199704
0.00723856
0.0189353
0.0175539
0.0154518
0.0138123
0.000827579
0.001441
0.00105595
0.0159265
0.018279
0.011767
0.0207443
0.0234482
0.0113767
0.0100995
0.00705925
0.00422733
0.0251957
0.000101359
0.00289001
0.00904893
0.00108942
0.000233931
0.000435254
0.00967718
0.00707983
0.000856427
0.0312522
0.0198145
0.0149343
0.0231542
0.0129309
0.0248954
0.00405592
0.00800111
0.00836144
0.0240016
0.0240299
0.0130069
0.00680057
0.0136116
0.0122893
0.016072
0.0149265
0.0155273
0.0182253
0.00134806
0.0194475
0.019635
0.0197839
0.0192163
0.016123
0.0158835
0.0122369
0.01127
0.0206528
0.0179296
0.00576177
0.00450075
0.012138
0.0174196
0.0231254
0.00560847
0.00651914
0.00674129
0.0173276
0.0218929
0.0229568
0.0228465
0.00180792
0.00106712
0.0215406
0.000689254
0.0212146
0.0220755
0.00444967
0.00619162
0.00278423
0.0206043
0.0078298
0.0181058
0.0141966
0.0142562
0.0222127
0.0226916
0.0101942
0.0249098
0.0246676
0.0168
0.0154182
4.36925e-05
0.000599873
0.0171406
0.0155047
0.0187088
0.0243504
0.0372458
0.0248181
0.0195683
0.024839
0.0197101
0.0024216
0.0181196
0.0208982
0.00281245
0.0197107
0.00478851
0.000510142
0.0193065
0.00066339
0.00895022
0.0097252
0.00962917
0.0088615
0.000413636
0.00189575
0.00608137
0.0235801
0.0220542
0.0159347
0.00945364
0.0119788
0.00756137
0.00948461
0.0070311
0.00920105
0.00903018
0.00812543
0.0168723
0.0144672
0.0193782
0.0143233
0.0194297
0.00132888
0.018989
0.000962536
0.0250958
0.0195838
0.0128282
0.0161224
0.00780283
0.0102561
0.00357509
0.00260812
0.00628453
0.00421937
0.0115736
0.0190215
0.00887688
0.0148788
0.01358
0.00531374
0.0133454
0.0235318
0.0013687
0.00302743
0.00125959
0.0155043
0.0221313
0.0178915
0.0057871
0.00451972
0.0218853
0.00278507
0.0218807
0.0206601
0.037818
0.021961
0.0217075
0.0247822
0.0232949
0.0222571
0.0174298
0.00446606
0.0180195
0.00427037
0.0184571
0.0190939
-1.88685e-05
0.0233746
0.0109102
0.00217976
0.018302
0.0221221
0.0180056
0.020695
0.0180478
0.0091365
0.0111704
0.0173946
0.0196242
0.0214783
0.0230495
0.000689814
0.00303107
0.0146841
0.0194854
0.0183005
0.0162038
0.0171207
0.00126008
0.0162003
0.00872805
0.00912196
0.00892038
0.00778664
0.0102845
0.0124458
0.000518362
0.0198497
0.0207147
0.0174755
0.00115942
0.0205793
0.0124971
0.0131494
0.0148297
0.0155133
0.0180991
0.0141226
0.0318218
0.00361461
0.0129027
0.0200916
0.0154788
0.0154665
0.00299502
0.0140449
0.022089
0.024569
0.0181425
0.00831355
0.0213783
0.00760525
0.0142885
0.0227874
0.0240077
0.014256
0.0242825
0.0240643
0.0239095
0.0222626
0.015091
0.0231771
0.0219542
0.0192612
0.00859659
0.0173078
0.00681651
0.00187298
0.017717
0.00561438
0.0226211
0.0230567
0.0224235
0.0208646
0.0132171
0.0210218
0.0238029
0.007385
0.00520546
0.0102664
0.0254477
0.0173167
0.0166967
0.00426698
0.00370989
0.0200455
0.00127287
0.012148
0.0249288
0.0214252
0.018205
0.0188427
0.0112961
0.00999174
0.00261013
0.0194105
0.000282654
0.00707471
0.0217508
0.000921364
0.00269409
0.00421406
0.005501
0.00323285
0.0152913
0.0172622
0.0200663
0.0131497
0.0080834
0.0290095
0.00804889
0.00928079
0.00992573
0.0209447
0.0188683
0.0237628
0.0213776
0.00667286
0.0119139
0.0115539
0.0115471
0.0134747
0.016395
0.0164358
0.0191321
0.0181698
0.0170635
0.0125192
0.00928327
0.00941363
0.00228157
0.0179907
0.0214306
0.00765727
0.00316062
0.0320843
0.0121029
0.0218873
0.014784
0.022259
0.0266598
0.017276
0.00773602
0.00656534
0.0141985
0.0235116
0.022481
0.00584415
0.0250887
0.000203458
-0.000229156
0.0216984
0.0241702
0.0120578
0.00998387
0.0202557
0.0051517
0.0226009
0.0244606
0.0098492
0.0199972
0.0207569
0.0308284
0.00558701
0.023419
0.013701
0.0143076
0.0196843
0.0235069
0.00260125
0.0183038
0.0251125
0.0244391
0.026152
0.00558306
0.0204998
0.0200004
0.00288265
0.0162247
0.023501
0.0167527
0.00233445
0.00727728
0.015404
0.00505118
0.0169939
0.00716772
0.000608977
0.00079187
0.0103221
0.00296713
0.0222845
0.0130328
0.00569063
0.00994101
0.0231183
0.0231624
0.0205073
0.0214917
0.0227987
0.0131431
0.00235924
0.00491006
0.0113725
0.019456
0.0195243
0.020058
0.0202795
0.0138153
0.0135674
0.0122771
0.0168744
0.0149565
0.0150751
0.0162633
0.0245926
0.0177196
0.0195391
0.0166457
0.0184629
0.0182453
0.00920663
0.0179163
0.013994
0.00864481
0.0125769
0.0283816
0.0141797
0.0316318
0.0187832
0.00542031
0.0083983
0.0165204
0.0269007
0.0151343
0.0142816
0.00640182
0.0188394
0.000575771
0.00159565
0.000307352
0.0233128
0.0230412
0.0235598
0.0121192
0.0254499
0.00452682
0.0241289
0.0244918
0.0235458
0.00242585
0.0268473
0.0237465
0.00179612
0.025153
0.0143151
0.0150292
0.0140774
0.0196189
0.0212906
0.0174981
0.0183819
0.0194772
0.0120358
0.0115966
0.0029925
0.0244468
0.0192575
0.0219927
0.0168521
0.0214093
0.0239121
0.0088796
0.0230576
0.00235453
0.0172094
0.00816753
0.000923944
0.000147119
0.0103556
0.0215466
0.0081217
0.019675
0.020036
0.0067546
0.0210811
0.00783835
0.0252577
0.0200263
0.024924
0.0187745
0.0101798
0.0197946
0.0207381
0.0229916
0.00529177
0.0204124
0.0204184
0.0213871
0.0229411
0.0163938
0.0216899
0.017478
0.00234702
0.0208131
0.00522052
0.0155047
0.0163769
0.0112335
0.0179569
0.0271388
0.0136883
0.0126388
0.013358
0.00925802
0.0174145
0.00645816
0.0115572
0.0213268
0.0100889
0.0201485
0.00603103
0.0215148
0.0179608
0.00559466
0.0152233
0.0223132
0.00590259
0.0176552
0.0116125
0.00156989
0.000110381
0.00157835
0.0225243
0.0147957
0.0168743
0.0128581
0.0125857
0.0225858
0.0244831
0.0237285
0.0179686
0.0233622
0.0191209
0.0247082
0.0130054
0.0251666
0.0249949
0.0250074
0.0242403
0.023529
0.00284342
0.0197849
0.0236132
0.0179717
0.0162687
0.0262707
0.0236751
0.011893
0.024552
0.00246724
0.0222971
0.0233609
0.0162955
0.0155762
0.0210825
0.0220912
0.0210357
0.00104133
0.0245619
0.0185788
0.00700871
0.000353765
0.0243268
0.00746776
0.00311967
0.00203288
0.000268823
0.017454
0.00553084
0.0292387
0.00889127
0.0209861
0.0112109
0.00852083
0.0122559
0.0205206
0.00877061
0.0243563
0.0202661
0.0118931
0.0227516
0.0203619
0.0174586
0.0272528
0.0184362
0.0234344
0.0150462
0.0252606
0.0149797
0.0149
0.00316328
0.0190319
0.017928
0.0190082
0.0219106
0.0160302
0.0253305
0.0189714
0.0184455
0.00256514
0.00564568
0.0254297
0.0133768
0.00495658
0.0134618
0.0335398
0.00813909
0.0262769
0.0060985
0.00120257
0.0101244
0.0105095
0.00931282
0.0173964
0.00533758
0.0162263
0.0203733
0.0144825
0.0048168
0.00521094
0.0238397
0.00146773
0.0177493
0.0165065
0.0109327
0.0222411
0.026531
0.0115275
0.0222136
0.0208069
0.0183754
0.000364
0.0179499
0.020066
0.0237429
0.0242266
0.0273287
0.0254176
0.00314943
0.00208034
0.025655
0.00304054
0.0229917
0.0246015
0.0228464
0.0049507
0.0280668
0.0107841
0.0203564
0.0244655
0.022085
0.0227751
0.0218569
0.0208112
0.0190351
0.0111807
0.0208768
0.0158099
0.00184104
0.0103743
0.0229068
0.0208203
0.0269042
0.0283605
0.00144526
0.0148034
0.0024125
0.00462365
0.0239102
0.00455582
0.00390206
0.0251206
0.0057868
0.00982871
0.0144508
0.0243082
0.000254959
0.0237259
0.0204333
0.011224
0.0233179
0.0248244
0.0128645
0.0233985
0.0189478
0.0251043
0.0233441
0.0229767
0.0169767
0.0260344
0.0181103
0.00524739
0.00552564
0.0252701
0.0188447
0.0230937
0.028022
0.0208062
0.0221678
0.0276285
0.00551375
0.025083
0.0245144
0.0252157
0.0138065
0.0364413
0.00424642
0.00710655
0.0111618
0.0103187
0.0272696
0.00823474
0.019997
0.015877
0.0165808
0.0155053
0.00562153
0.0101415
0.00660412
0.0237369
0.00108799
0.0252673
0.0257615
0.026048
0.0123198
0.0216192
0.0322285
0.0200882
0.00179304
0.0231951
0.0077462
0.00971064
0.0265506
0.0124572
0.0262221
0.0266651
0.0178716
0.0028132
0.0236973
0.0227232
0.0235583
0.0175148
0.0232984
0.0233057
0.0224836
0.0198573
0.0204416
0.0210384
0.0211393
0.0173761
0.0161441
0.00162184
0.0241959
0.0146563
0.0157357
0.0171452
0.00871403
0.00730593
0.029208
0.0227641
0.0208493
0.0264828
0.0273935
0.010238
0.00418169
0.00707984
0.0286978
0.0147731
0.00752735
0.0245598
0.00637479
0.0214116
0.01226
0.00536098
0.00513334
0.0200581
0.011645
0.0219983
0.000911777
0.0193587
0.00201059
0.0209712
0.0119898
0.0175148
0.0179756
0.0170661
0.0220831
0.0213983
0.0241276
0.00742094
0.0328916
0.0317426
0.0279544
0.01928
0.0190313
0.0148059
0.0201575
0.022492
0.0236655
0.0270073
7.18786e-05
0.0105056
0.0116125
0.0357646
0.0242141
0.00299551
0.0249372
0.00303609
0.0142083
0.0163065
0.00994509
0.00724289
0.0280916
0.0228563
0.00773589
0.0153219
0.0289733
0.00986579
0.00606487
0.000498612
0.0141491
0.00210097
0.0260745
0.00617963
0.0276742
0.0328253
0.00846067
0.0230789
0.000307883
0.00033064
0.00801204
0.0267006
0.0266977
0.025409
0.0225922
0.00167456
0.0174525
0.0375238
0.0166908
0.0224887
0.0214298
0.0222636
0.0225499
0.0178806
0.0247081
0.0219474
0.00767826
0.00188064
0.00213314
0.0021523
0.0210366
0.0235169
0.0131568
0.0234708
0.00551388
0.00572075
0.00650775
0.0202443
0.0273849
0.0269893
0.0283376
0.0160484
0.00794265
0.0248861
0.00752766
0.020153
0.0218594
0.0226057
0.0123329
0.0248404
0.011237
0.0206084
0.0214075
0.0204609
0.0108055
0.0153264
0.0380235
0.00955864
0.00243384
0.0195273
0.0166867
0.0208561
0.0134207
0.015676
0.0169382
0.0180855
0.0149476
0.0218132
0.0315079
0.0161866
0.0244871
0.0112631
0.0201155
0.0152774
0.0194031
0.0210907
0.019864
0.0267536
0.00373902
0.0262675
0.0174216
0.000817261
0.0113995
0.0275472
0.0247023
0.0145735
0.00347464
0.0223542
0.00806576
0.0283208
0.00812097
0.0231112
0.0218996
0.025677
0.0195464
0.0237147
0.0162376
0.0027135
0.021291
0.00240175
0.0258557
0.000249013
0.000893397
0.00537654
0.00193857
0.017682
0.000905967
0.0285774
0.0287857
0.0241913
0.0249238
0.0270777
0.0271399
0.0262179
0.0265598
0.0074136
0.0289276
0.0261733
0.00574558
0.0247971
0.0304883
0.0170551
9.52449e-05
0.0239007
0.0259323
0.0223355
0.0208364
0.0234895
0.0278994
0.00263651
0.0245526
0.00121385
0.000646549
4.54501e-05
0.0214011
0.0151531
0.00660768
0.0124135
0.0242615
0.0359426
0.0170785
0.0222688
0.0228418
0.0277245
0.00227171
0.0378683
0.0256183
0.00743734
0.018192
0.00882664
0.0191325
0.0234603
0.00898132
0.0252621
0.0196528
0.0106577
0.0167695
0.0102672
0.0207536
0.0166571
0.0266076
0.0273679
0.00777685
0.0142082
0.0172695
0.0168382
0.0228218
0.0320816
0.0116472
0.0227187
0.0174236
0.011457
0.0147513
0.0289975
0.0163351
0.0149407
-0.000163979
0.030822
0.0301467
0.000984403
0.02488
0.00188436
0.0187326
0.0284531
0.00421805
0.026438
0.0263547
0.0280735
0.0269425
0.0216609
0.0222671
0.024238
0.00659051
0.0234537
0.00820544
0.00217262
0.0124035
0.00332797
0.0222707
0.0241189
0.0102675
0.0102288
0.012517
0.0281699
0.00316166
0.0240967
0.0143383
0.0278474
0.0197521
0.0272051
0.0262581
0.0293479
0.0260687
0.00122157
0.017346
0.025939
0.0181379
0.0236472
0.0228073
0.00478962
0.0273787
0.0207739
0.0286594
2.96663e-05
0.0260964
0.00661354
0.0140551
0.00188116
0.0222707
0.0215467
0.0337201
0.0206306
0.00689701
0.0255375
0.0243511
0.000750343
0.000528608
0.0331957
0.0227989
0.00791844
0.0369561
0.00911103
0.0143637
0.0249062
0.000319488
0.00287318
0.0379033
0.00724351
0.0109032
0.0107532
0.0177393
0.0243419
0.0140271
0.0101988
0.024932
0.0279964
0.0258611
0.0241501
0.0141988
0.0243477
0.0171335
0.0105134
0.0214813
0.0211238
0.0171671
0.0194247
0.0140973
0.0132378
0.0245902
0.0252187
0.0256268
0.0213268
0.0302751
0.0206082
0.0213778
0.0201139
0.0210936
0.0255165
0.018341
0.0040852
0.0277552
0.0268591
0.0250853
0.00425064
0.023865
0.0208319
0.0233006
0.021238
0.0284212
0.0249407
0.00325495
0.0100481
0.028125
0.0283364
0.0306012
0.00276198
0.0137059
0.00962816
0.0262351
0.0254049
0.027185
0.0303845
0.0306961
0.0263982
0.0301561
0.0259814
0.0255328
0.016435
0.0272331
0.0230352
0.0300851
0.0363599
0.0228277
0.0213241
0.0376203
0.0188199
0.0134057
0.0280279
0.0154846
0.0301399
0.000851147
0.0233974
0.0144863
0.0346338
0.0226094
0.0215725
0.028683
0.0137908
0.000909052
0.0126649
0.0349335
0.000210594
-0.000166639
0.0231194
0.00899255
0.00972273
0.00957039
0.00687053
0.00582924
0.00651754
0.00524089
0.0102923
0.0267626
0.029944
0.00301919
0.0270197
0.023949
0.00236688
0.0227415
0.0276997
0.0280603
0.0158476
0.0195322
0.0148832
0.027543
0.0155203
0.0238638
0.0213013
0.0158332
0.0220564
0.0268892
0.0152514
0.0149162
0.021874
0.0215025
0.0182501
0.0292986
0.00341737
0.0308335
0.018804
0.0160635
0.0176582
0.0277479
0.0121159
0.00934209
0.0278533
0.0247147
0.0254019
0.0270949
0.034607
0.0312776
0.0279657
0.0253156
0.0275902
0.0290438
0.0281503
0.0174654
0.0296012
0.0282449
0.00823746
0.0252806
0.0187354
0.0295208
0.024531
0.0290672
0.0146043
0.0261772
0.0185006
0.0215201
0.0272017
0.0294094
0.0079298
0.0240186
0.0191456
0.0184582
0.0195265
0.0300544
0.0246545
0.0259722
0.000504164
0.0220812
4.08958e-05
0.0258343
0.00213375
0.0355296
0.00895028
0.0183839
0.00720252
0.00693844
0.00626357
0.0238746
0.0259434
0.01781
0.0182533
0.0238159
0.0162518
0.0271888
0.027953
0.0203136
0.0306232
0.026536
0.0308059
0.0266759
0.0249518
0.0286966
0.0162326
0.0210496
0.0217066
0.0172529
0.00384834
0.028925
0.028369
0.0336615
0.00878992
0.0265745
0.0237105
0.00941968
0.0216137
0.0263759
0.0230619
0.029993
0.0284487
0.0271892
0.029631
0.022069
0.0283288
0.0295557
0.0286069
0.0280558
0.0234673
0.0262616
0.0207736
0.0303219
0.0254482
0.0378954
0.0372413
0.0245451
0.030022
0.0241018
0.0237108
0.0230792
0.0197655
0.0278311
0.0246829
0.0266257
0.027764
0.0304075
0.0267771
0.022809
0.0254107
0.0254778
0.0296641
0.0246293
0.0262486
0.0279217
0.0290149
0.00205567
0.0268766
0.00284171
0.00325706
0.00361366
0.00183564
0.0264475
0.00563472
0.000655596
0.0194898
0.0261982
0.0358647
0.0365324
0.0302675
0.0242699
0.0296938
0.0161581
0.0334411
0.021444
0.023581
0.0256537
0.0277455
0.0182276
0.0274206
0.028678
0.0207863
0.0223114
0.0285164
0.022481
0.032856
0.0286509
0.0318179
0.00984007
0.00180964
0.0265545
0.0263396
0.0259044
0.0319833
0.0271496
0.0325683
0.0272377
0.0292934
0.0171391
0.0304381
0.0219896
0.0293402
0.0233456
0.0296963
0.0305738
0.0186413
0.0270372
0.0200608
0.0280098
0.0200435
0.0283138
0.02459
0.023693
0.0282448
0.0273636
0.0245682
0.0274072
0.0187072
0.0326095
0.0255185
0.0270379
0.0279266
0.029116
0.0079462
0.0197509
0.029514
0.00290686
0.00381626
0.0300351
0.02648
0.000453392
0.0359354
0.0239347
0.0331231
0.0260653
0.0227156
0.0226931
0.0313101
0.0262413
0.0225258
0.0237392
0.0255449
0.0261645
0.0259258
0.0336654
0.0287913
0.0289179
0.0194822
0.0195381
0.0304365
0.0246339
0.0288227
0.0287839
0.0325161
0.0359521
0.0342051
0.0229317
0.0305014
0.0240969
0.0282712
0.0276977
0.0237029
0.0108104
0.0299689
0.0362602
0.0294076
0.0226229
0.0260811
0.0226285
0.0373104
0.0208873
0.0268184
0.0226941
0.0237506
0.0284133
0.0299831
0.0239375
0.028693
0.0281232
0.0255437
0.0291485
0.0283107
0.0282327
0.0253116
0.0304979
0.030614
0.0300911
0.0258234
0.0297113
0.0297708
0.0294641
0.00945572
0.0301662
0.0214181
0.0221547
0.0272069
0.0324897
0.0216015
0.0263216
0.0305045
0.0258197
0.0264238
0.0228685
0.0341691
0.0254709
0.0298891
0.0216547
0.0217525
0.0261665
0.030242
0.0215739
0.0257409
0.0255733
0.0297415
0.0302138
0.0258017
0.0260624
0.0324143
0.0322943
0.0266383
0.0319253
0.0312685
0.0281566
0.0321687
0.0131477
0.0320091
0.0302593
0.0297999
0.0300743
0.0286847
0.0300137
0.0331611
0.0271216
0.0298406
0.0239477
0.0273681
0.0246569
0.0282775
0.0282644
0.0342653
0.0287151
0.0340548
0.0341463