/*--------------------------------*- C++ -*----------------------------------*\
| =========                 |                                                 |
| \\      /  F ield         | OpenFOAM: The Open Source CFD Toolbox           |
|  \\    /   O peration     | Version:  2212                                  |
|   \\  /    A nd           | Website:  www.openfoam.com                      |
|    \\/     M anipulation  |                                                 |
\*---------------------------------------------------------------------------*/
FoamFile
{
    version     2.0;
    format      ascii;
    arch        "LSB;label=32;scalar=64";
    class       surfaceScalarField;
    location    "0.054";
    object      phi;
}
// * * * * * * * * * * * * * * * * * * * * * * * * * * * * * * * * * * * * * //

dimensions      [0 3 -1 0 0 0 0];

oriented        oriented;

internalField   nonuniform List<scalar> 
68568
(
-1.52208e-07
1.57005e-07
-2.95954e-08
2.47989e-08
1.46299e-07
-7.47941e-08
-7.75582e-08
6.05326e-09
1.77367e-07
-1.3545e-07
-6.00599e-08
1.81428e-08
-4.54157e-09
2.2122e-09
-1.70271e-07
1.72601e-07
-1.29017e-09
1.42706e-07
1.02078e-09
-1.42437e-07
1.40178e-07
-4.58615e-10
-1.29084e-07
-1.0635e-08
8.41641e-08
-8.92471e-08
1.31236e-07
-1.26153e-07
-3.98625e-08
-2.7309e-08
1.51336e-07
1.32256e-07
-1.58066e-08
-1.11521e-07
-4.92862e-09
1.50294e-07
5.40047e-08
-5.79995e-08
1.01607e-07
1.38449e-07
-6.26895e-08
-6.45918e-08
-2.03631e-07
1.93429e-07
-1.41018e-07
6.9155e-08
-5.69499e-09
1.84553e-07
-1.90042e-07
1.36647e-08
-8.17541e-09
-7.07141e-08
-5.18643e-08
1.21421e-07
1.1573e-09
1.29374e-07
8.86767e-08
-1.31802e-07
-8.62492e-08
-5.16294e-08
-7.95679e-08
1.16107e-07
1.50902e-08
1.13326e-07
-1.18557e-07
-4.63984e-08
1.12919e-07
-4.40936e-09
-6.86523e-10
-1.07823e-07
8.634e-08
-1.56355e-07
7.83677e-08
-8.353e-09
1.13964e-07
-4.34125e-10
-1.13468e-07
-6.19207e-11
-1.8131e-08
9.12477e-09
1.42387e-07
-1.33381e-07
-4.63736e-08
1.92134e-07
-2.77113e-08
-1.1805e-07
-7.86089e-10
-5.32597e-10
-1.37877e-07
1.39195e-07
-7.56574e-08
-4.94169e-08
1.18046e-07
7.02782e-09
-9.856e-08
-4.05587e-08
-1.30895e-08
-6.58936e-08
1.43634e-07
8.5995e-09
7.84618e-08
4.60624e-08
-3.13375e-08
-9.31867e-08
-6.94099e-08
-1.00881e-07
1.30429e-07
4.97098e-08
-1.22439e-07
3.31943e-09
1.55903e-07
-8.29652e-08
-1.46834e-07
7.38965e-08
-1.34187e-08
2.49535e-09
1.18899e-07
-1.07976e-07
1.59317e-07
-3.32896e-08
-1.14046e-08
-1.14623e-07
1.21414e-07
-9.30555e-08
-5.98712e-08
3.15129e-08
-6.21795e-10
1.11161e-07
-1.10604e-07
6.48004e-11
1.24008e-07
8.63437e-08
-8.64848e-08
6.17656e-10
-4.76505e-10
4.39258e-08
-1.62641e-07
9.46413e-08
2.40744e-08
-1.64579e-07
1.43037e-07
6.54684e-08
-7.516e-08
-1.79557e-10
-3.17877e-10
-8.65591e-10
1.15948e-07
-1.11836e-09
1.14851e-07
-1.14384e-07
-6.46137e-10
1.79066e-10
-2.6923e-08
-1.60469e-07
1.22035e-07
1.97801e-07
-1.50475e-07
-1.69361e-07
-6.30669e-08
-1.05767e-07
2.98208e-07
-1.49107e-07
1.66561e-07
-1.39823e-07
1.22369e-07
-1.26005e-07
6.67777e-08
-5.36478e-09
1.17412e-07
-1.14631e-07
-3.66035e-09
8.79019e-10
9.99046e-08
2.56723e-08
1.19815e-08
-1.37558e-07
2.25361e-09
-1.55023e-07
1.50338e-07
3.46069e-08
-2.99219e-08
-8.73815e-09
-9.5237e-08
1.03647e-07
3.27916e-10
-1.26688e-07
1.40414e-07
1.78179e-07
-1.89433e-07
-3.87616e-10
-1.82728e-10
2.12263e-09
-1.68125e-09
1.11091e-07
-1.11532e-07
4.01463e-08
-1.17715e-07
-1.99895e-09
9.35135e-08
-9.99006e-08
3.77834e-09
2.60872e-09
-8.73287e-08
1.44786e-07
-6.36233e-08
6.16556e-09
1.49681e-07
-7.75116e-08
-7.56163e-08
3.4466e-09
9.23355e-08
-9.26205e-08
-5.01135e-10
-1.1436e-07
-1.74556e-09
1.18317e-07
7.75282e-08
7.30228e-08
-7.87896e-09
-1.42672e-07
-6.13903e-09
1.38232e-07
-1.32959e-07
8.65351e-10
9.03015e-08
-1.53145e-07
-3.05039e-09
1.10519e-07
-1.80665e-08
3.4311e-08
-1.26763e-07
1.5284e-07
-2.3949e-08
-1.73253e-07
4.43621e-08
4.14688e-08
8.38499e-08
-1.23999e-08
6.5661e-08
-1.30118e-07
7.1296e-08
-6.83942e-09
1.3734e-07
-1.38484e-07
-1.458e-10
-1.02661e-07
1.46567e-07
-3.24166e-08
-1.14895e-08
-2.09398e-07
-1.53431e-07
2.93319e-07
6.95103e-08
-1.26324e-07
-1.51514e-09
1.32124e-07
-6.46007e-09
1.37433e-07
-1.45837e-07
-5.49509e-08
6.33553e-08
-1.28167e-07
6.62037e-08
6.79389e-08
-5.97593e-09
-1.24596e-08
-5.50209e-08
-4.96125e-08
-1.02796e-07
1.02964e-07
-4.85459e-10
3.17557e-10
4.08822e-08
1.77282e-07
-6.84827e-08
1.06868e-07
-6.45266e-08
5.11722e-08
-7.44182e-08
-8.14529e-08
1.51926e-07
3.94534e-09
-5.85537e-10
-2.23607e-07
-4.94624e-10
2.24687e-07
7.55965e-08
-4.75206e-08
8.67752e-08
-2.73234e-10
6.58152e-08
-6.56162e-08
7.42387e-11
-1.96324e-08
1.42736e-07
6.88798e-08
-1.91984e-07
1.73594e-07
-8.7739e-08
-9.1019e-08
5.1639e-09
1.21525e-07
3.87405e-08
-3.69732e-08
-1.23293e-07
1.66934e-07
-7.85589e-08
7.77983e-08
-1.66174e-07
3.59205e-08
1.35502e-08
1.17463e-07
-9.01579e-08
8.57529e-08
-1.65866e-07
1.2664e-07
1.08601e-09
-1.23948e-07
-3.77868e-09
-4.04408e-08
-2.85077e-07
1.99513e-07
8.5283e-08
8.79895e-08
-6.71154e-09
-3.82254e-10
5.14453e-10
9.55953e-08
-9.57275e-08
-1.26007e-07
1.2587e-07
-3.95826e-10
-6.08517e-08
1.21504e-07
6.12494e-09
7.5133e-09
8.92569e-08
-5.11015e-09
-9.166e-08
-1.30449e-07
5.76771e-08
9.11356e-08
-1.83632e-08
-4.4951e-08
-8.2638e-08
-1.02878e-08
-8.48533e-08
1.64585e-07
5.55089e-09
7.36032e-08
7.66715e-08
-1.45035e-07
-5.23914e-09
1.1565e-07
1.08377e-09
-1.16594e-07
-1.39305e-10
-5.95029e-09
-2.20054e-07
-1.46213e-08
2.30183e-07
-7.25668e-09
1.26327e-07
-1.27042e-07
5.84528e-08
-7.64171e-09
9.9233e-08
-4.1127e-10
-9.77556e-08
-1.06605e-09
1.24363e-07
-8.26206e-10
1.38283e-07
-4.72429e-08
8.25539e-08
1.63269e-10
-1.05576e-07
-3.43623e-09
1.13409e-07
-4.39763e-09
9.24649e-08
-5.10722e-08
-9.16149e-08
-7.3905e-11
9.15875e-08
1.01303e-10
-3.56049e-08
-1.38684e-07
1.47343e-07
2.6945e-08
-2.25817e-09
1.32896e-07
-1.3021e-07
-4.27335e-10
-8.99265e-08
-3.73843e-08
1.27448e-07
-1.36892e-10
-4.26551e-09
2.08948e-09
-1.12184e-07
-1.66469e-07
8.86718e-08
8.30037e-08
-5.20668e-09
3.43011e-10
-1.02425e-07
1.02374e-07
-2.92007e-10
1.40618e-07
-8.25557e-10
-3.20764e-10
-1.12927e-07
2.93204e-10
1.12954e-07
-1.25089e-08
2.20547e-08
-2.27029e-09
1.3388e-07
-7.32261e-08
5.00738e-09
1.43457e-07
-1.42653e-07
-1.42232e-08
-1.25868e-07
1.42273e-07
1.93446e-08
-3.57494e-08
7.33289e-08
-7.46943e-08
1.54206e-07
3.92043e-09
1.15745e-07
1.55441e-07
-1.29421e-09
-1.56405e-07
7.00952e-08
-1.46124e-07
-4.6005e-09
8.06292e-08
1.45909e-07
-8.02695e-08
7.96385e-09
1.01635e-07
-9.94596e-08
-1.14442e-07
5.93634e-08
-3.14067e-08
-1.52742e-07
1.45607e-07
-1.96197e-08
2.67553e-08
1.6041e-07
4.79503e-08
-5.50746e-08
-1.51692e-07
-7.51664e-08
-3.10577e-08
8.21912e-08
2.4033e-08
-1.33032e-07
7.00367e-08
-5.56861e-08
1.18681e-07
-1.55504e-07
-3.41305e-09
1.62008e-07
-3.09116e-09
-1.11389e-07
2.11296e-08
-6.52451e-08
-1.66737e-07
-6.38623e-09
9.63491e-08
-1.38161e-09
-1.14433e-07
-5.93682e-10
-1.11324e-07
1.42543e-07
-7.53522e-08
6.08189e-09
1.5889e-07
-8.4884e-08
-8.04377e-08
6.43145e-09
-1.37192e-07
1.84113e-07
-4.74045e-08
4.8385e-10
8.3849e-08
-8.46203e-08
-1.36421e-07
9.65045e-08
7.4722e-09
-2.34214e-09
6.98539e-10
1.06442e-07
-1.0594e-07
-1.20092e-09
1.94076e-07
-4.92348e-08
-1.06101e-07
-1.10974e-07
5.42241e-08
1.17023e-07
-1.1238e-07
-2.55414e-09
-1.87001e-09
1.0356e-07
-1.0204e-07
3.49843e-10
-1.00477e-08
-1.37681e-07
1.34868e-07
1.2861e-08
-1.41855e-07
1.58807e-07
-1.00291e-08
-6.92276e-09
1.23315e-07
-9.28225e-08
-2.51307e-08
3.34784e-09
-8.21545e-09
-9.98935e-08
9.93708e-08
3.36544e-08
-6.96546e-09
-1.38078e-07
-2.04286e-08
1.12501e-07
-8.58621e-08
-6.21031e-09
1.63947e-07
-6.99878e-09
-1.40811e-08
-1.42867e-07
1.60268e-07
2.0779e-10
-2.78132e-09
-1.57694e-07
1.38849e-07
-1.37828e-09
-1.30403e-10
1.3152e-07
-1.31828e-07
3.44772e-10
-3.65661e-11
-1.28108e-07
-8.30839e-08
1.28554e-07
2.16135e-08
-1.73729e-07
-1.12601e-07
1.12321e-07
1.50141e-10
1.29968e-10
-1.36491e-07
-7.27448e-09
1.9108e-09
-1.03826e-07
3.19971e-12
1.03782e-07
4.08084e-11
-1.2431e-07
-2.59068e-10
1.24768e-07
-1.99297e-10
-7.24598e-09
1.19032e-07
-1.04143e-07
-7.26871e-09
-1.04827e-07
1.04263e-07
2.43048e-10
1.1315e-08
2.91121e-08
9.12423e-08
-1.29789e-07
7.40283e-08
-7.43703e-08
1.47233e-07
-1.46891e-07
1.05076e-07
-8.26129e-08
-2.46159e-08
2.15312e-09
1.41626e-07
-4.34488e-08
-1.11314e-07
1.51344e-08
5.62599e-09
-1.10683e-07
1.25123e-07
-2.00658e-08
-5.96174e-10
1.03932e-07
-1.02823e-07
-5.126e-10
-1.43419e-07
-8.51053e-09
1.6851e-07
2.10118e-07
-8.94247e-08
1.8967e-07
1.55824e-07
-7.76194e-08
5.64441e-09
-2.45892e-08
2.62489e-08
-1.09179e-07
1.10676e-07
8.98367e-08
9.49627e-08
-7.51749e-09
9.46018e-08
7.34954e-08
-1.61969e-07
-6.12778e-09
8.31492e-08
8.05006e-08
-7.82578e-09
1.23311e-07
-7.65356e-08
8.47448e-08
7.4708e-08
-1.26742e-07
6.04717e-08
-8.43725e-09
6.5386e-10
-1.00331e-07
-1.20456e-09
2.49254e-10
-3.15992e-07
1.88862e-07
2.14638e-07
-1.3105e-07
5.1023e-08
9.67322e-09
4.42484e-08
4.61405e-08
-1.00062e-07
-1.30167e-07
2.02926e-09
1.2929e-07
-1.15235e-09
-9.95962e-08
9.91011e-08
-4.34562e-12
4.99447e-10
1.30965e-07
-1.69537e-07
2.00404e-07
-1.61833e-07
1.57736e-08
-1.34753e-09
1.2828e-07
-3.19903e-08
7.52299e-09
-7.47419e-08
9.92092e-08
-7.28299e-08
1.41638e-07
5.22069e-09
-1.47986e-07
7.70423e-08
7.61808e-08
-5.23671e-09
-1.12514e-07
-2.51622e-08
1.17248e-07
5.40654e-10
7.81862e-08
-1.43074e-10
-7.85838e-08
1.48266e-07
-6.71638e-08
7.8215e-08
1.38821e-09
-1.20701e-10
9.96828e-11
-9.83167e-08
1.8094e-07
-4.82565e-08
-3.00667e-08
-1.02617e-07
-5.12334e-09
3.03073e-08
-1.03155e-07
8.22553e-08
-3.40288e-08
2.29266e-08
2.20166e-07
-4.23662e-08
1.68557e-07
-1.73158e-07
-6.33127e-08
-6.78851e-08
5.32989e-09
1.33253e-07
6.27946e-09
-7.15761e-08
-7.28202e-08
1.37108e-07
7.28848e-09
1.4393e-08
1.17632e-07
-1.57355e-07
-1.79314e-10
7.08011e-08
-6.88848e-09
-6.6857e-10
-1.36607e-07
1.40618e-10
1.37134e-07
-1.41848e-07
1.73429e-07
-4.50125e-08
1.12885e-08
-9.75901e-09
5.19414e-08
1.13259e-07
-1.30848e-07
7.64262e-08
-2.75068e-08
8.19286e-08
-1.4333e-07
9.6598e-08
-1.30407e-07
1.2891e-07
2.0365e-10
9.41299e-08
2.218e-08
-1.69268e-07
-2.19961e-08
1.69084e-07
-1.85809e-07
1.01874e-07
-1.39672e-07
-1.72453e-09
1.68365e-07
2.44044e-08
6.73879e-08
-9.6513e-08
4.72076e-09
4.70492e-08
-1.36712e-08
9.00145e-10
-1.01369e-07
6.51043e-10
-2.38498e-07
2.38575e-07
-5.71013e-10
-9.68339e-08
-1.01683e-07
-9.45836e-08
1.03058e-07
-1.13302e-07
8.52835e-08
-1.08153e-07
1.73901e-08
5.47979e-09
1.27794e-07
-9.2132e-08
-9.41267e-09
-1.57744e-07
-1.10181e-08
2.12692e-08
1.47493e-07
-3.15479e-07
-2.6347e-10
-1.3333e-07
1.32493e-07
4.55276e-10
-9.49064e-08
-2.19469e-11
3.44731e-10
-1.44166e-08
-9.6041e-08
1.5384e-07
-4.33826e-08
1.10401e-07
5.44213e-09
4.44246e-08
-1.36987e-07
1.36191e-07
-3.61345e-09
-5.34962e-08
1.40406e-07
-1.00001e-07
2.54007e-10
-1.30222e-07
-1.98788e-10
9.31844e-08
-9.51052e-08
2.39541e-10
-6.73518e-08
-6.69243e-08
1.26438e-07
7.83786e-09
1.15319e-07
1.78562e-08
-9.87884e-08
-3.43863e-08
7.8056e-08
1.54957e-07
-2.1319e-07
-2.14002e-08
-1.1181e-07
-1.97767e-08
1.29529e-07
5.5307e-11
-1.29949e-07
3.65616e-10
2.45295e-08
7.91724e-09
5.53279e-08
-8.77746e-08
-1.43801e-07
7.74842e-08
-5.2592e-09
-1.20316e-07
1.18127e-07
-6.75989e-09
-4.16457e-10
1.23404e-07
3.23494e-10
-8.13669e-08
-7.31733e-08
1.4744e-07
7.10003e-09
1.3142e-07
-7.07503e-08
-6.76435e-08
6.97398e-09
1.31938e-07
-2.4099e-09
8.38426e-13
-1.02932e-07
-9.34403e-08
1.01465e-07
-1.34573e-07
-4.79602e-08
1.3492e-08
1.70629e-07
-1.08035e-07
3.01819e-08
-1.31545e-07
2.85585e-10
-1.07622e-07
7.06516e-10
-6.85176e-10
1.36886e-07
2.61638e-08
-2.79819e-08
-1.35068e-07
4.69148e-08
-1.32568e-07
-2.00519e-12
1.19178e-10
3.97612e-08
-1.98329e-07
-7.9811e-08
1.35158e-07
9.12195e-08
2.11689e-08
-1.48774e-07
-1.88021e-08
1.46408e-07
-8.29142e-08
6.1544e-09
1.35602e-07
-1.3417e-07
9.33036e-08
4.23482e-08
-1.48191e-09
-6.83042e-10
2.2718e-10
-9.9207e-08
6.81128e-08
-4.51074e-09
-1.66976e-09
-3.12744e-09
-2.38382e-09
9.76729e-08
-9.21617e-08
8.41289e-08
1.06755e-07
-1.0566e-07
-8.52237e-08
1.52296e-07
-1.70035e-07
3.25696e-10
1.72956e-10
1.60585e-07
-1.03559e-08
-1.41104e-07
-4.35359e-08
1.55767e-07
1.10842e-08
1.21023e-07
-1.14133e-07
-5.96105e-09
-9.28807e-10
-1.14303e-09
1.16654e-07
1.67416e-07
-5.81872e-08
-2.36035e-09
9.6069e-08
-8.51652e-08
-5.28622e-10
1.75805e-10
1.4381e-07
-1.64405e-07
8.27311e-09
1.52127e-07
1.44983e-09
-1.20733e-08
1.80111e-07
-2.26018e-07
4.90806e-08
9.98293e-10
9.25502e-08
-8.88562e-10
-9.26599e-08
-1.19494e-07
1.19771e-07
-1.76529e-10
1.18633e-09
-1.72708e-10
-1.13895e-07
1.12798e-07
-4.56582e-11
-1.11782e-07
-2.3991e-10
2.11718e-10
7.28122e-08
-1.04963e-07
-7.79389e-08
1.1009e-07
2.33305e-11
-1.174e-07
1.17489e-07
-1.1287e-10
-3.4603e-08
5.29226e-08
1.24665e-08
-2.00362e-08
-1.43879e-07
7.48407e-08
-6.12775e-09
2.87353e-08
-1.62758e-08
1.08563e-07
-1.37959e-07
6.66223e-08
6.40786e-08
7.25864e-09
-1.62103e-07
-1.13465e-07
1.13626e-07
-1.28706e-07
-4.40867e-08
5.91668e-08
1.32398e-07
-1.33233e-07
2.59895e-10
5.75199e-10
-1.80053e-09
-1.88129e-07
1.5112e-10
1.89778e-07
-1.07873e-07
4.07313e-11
1.07887e-07
-1.30341e-07
-1.66465e-10
5.58396e-10
7.38283e-08
-1.30174e-07
-6.96729e-09
3.11931e-10
-1.32044e-07
-9.62197e-11
7.75477e-08
7.8391e-08
-5.60039e-09
-7.49629e-08
-7.52097e-08
1.43904e-07
6.26855e-09
-1.18869e-07
8.63712e-10
1.17793e-07
2.11832e-10
1.26642e-07
3.1375e-08
1.12794e-07
-1.60323e-08
1.10034e-07
-5.64456e-09
-1.00617e-07
4.74669e-08
4.5882e-08
7.26813e-09
6.82506e-09
1.3113e-07
-6.19893e-09
-1.27134e-07
7.50763e-08
-7.29786e-08
-1.34241e-07
-1.08387e-07
1.19152e-07
1.23476e-07
1.10593e-07
-1.15363e-10
1.17682e-07
-1.1918e-07
1.45483e-09
4.26449e-11
-1.33959e-07
-1.31113e-07
8.45274e-10
5.74741e-11
1.73326e-08
3.32742e-08
-1.55284e-07
1.52904e-08
-4.43608e-08
2.01229e-07
1.37408e-07
-1.34619e-07
-1.66695e-09
-2.50569e-10
1.97295e-08
-2.18317e-08
1.36119e-07
-3.37386e-08
-8.05488e-08
1.08075e-07
-7.21021e-10
-1.07136e-07
-2.18401e-10
-4.31102e-08
-1.47493e-07
2.93229e-07
-1.02625e-07
1.0613e-07
-8.10041e-08
-7.21805e-10
-4.20161e-11
1.04411e-07
-4.37237e-10
7.51796e-08
-7.57672e-08
1.40308e-07
-1.85128e-07
-1.33044e-07
8.09874e-08
1.29099e-07
-2.36776e-09
-3.07796e-08
-8.41025e-08
7.25507e-08
8.66804e-08
8.18441e-09
1.95637e-07
-1.28129e-07
5.78083e-09
1.50725e-07
-8.15416e-08
6.99755e-09
1.26266e-07
-1.68306e-07
1.25783e-07
-7.25631e-08
-3.66646e-08
-1.41247e-08
1.81093e-09
1.06672e-07
-1.1853e-07
6.94923e-08
-1.31567e-07
-5.27695e-09
1.51675e-07
1.83639e-09
-4.75088e-08
1.44331e-07
-9.80372e-08
-1.97842e-09
-2.5944e-08
1.42138e-07
-1.59641e-07
4.3447e-08
1.19069e-07
2.14491e-08
-5.66683e-08
-2.61881e-09
-1.49941e-07
1.50268e-07
-9.41975e-10
-3.06629e-08
2.31522e-08
-9.93252e-08
1.06836e-07
7.66911e-08
-1.44386e-07
-5.12535e-09
-1.38612e-07
1.39052e-07
-1.27285e-10
-7.76532e-08
1.60369e-07
-1.25826e-07
-7.35587e-08
-8.07387e-08
1.56139e-08
-1.02014e-07
-1.17399e-10
2.07009e-07
5.81564e-08
-1.59256e-07
-1.08562e-07
-7.51732e-08
1.34041e-07
2.34451e-07
-2.87739e-11
-9.14462e-08
-1.46858e-10
9.16218e-08
3.30601e-08
1.08639e-07
-7.09795e-10
1.52213e-07
6.32186e-09
9.8573e-08
5.75409e-08
2.69307e-09
7.4882e-08
-1.4423e-07
-5.61466e-09
-7.41521e-08
-8.35271e-08
1.4906e-07
8.61917e-09
-9.19943e-08
-4.49028e-09
-4.1325e-09
-9.71427e-08
-1.17488e-07
1.16817e-07
-5.45507e-11
-1.26793e-07
-3.40407e-09
1.24058e-07
-9.1898e-08
-1.39404e-07
9.9953e-08
1.31349e-07
-1.14143e-07
3.9636e-08
7.77629e-08
-3.25584e-09
7.18566e-08
7.1496e-08
-1.36417e-07
-6.93519e-09
-7.26869e-08
-7.00993e-08
1.36392e-07
6.39451e-09
5.2807e-08
4.88798e-08
-1.11705e-07
1.00187e-08
-6.88169e-08
1.14913e-07
-3.73732e-08
-8.72238e-09
1.07446e-07
-1.07937e-07
-1.77317e-10
-9.64186e-08
7.22357e-10
8.40275e-08
1.08607e-07
-2.90268e-08
-1.63607e-07
-3.19019e-08
9.11361e-08
3.92296e-08
-9.84638e-08
-9.97639e-08
-5.53107e-11
1.01578e-07
-1.75859e-09
-7.55835e-08
-4.35606e-08
9.73125e-08
1.26545e-07
-3.3162e-09
7.18377e-08
-1.33958e-07
6.71806e-08
-5.06013e-09
-6.21585e-08
4.60366e-08
-1.28211e-07
1.16236e-08
1.29364e-07
-1.06733e-07
-3.25e-08
5.13337e-08
8.50635e-08
-7.63503e-08
9.05428e-10
-1.25043e-07
-1.71976e-10
-3.17368e-09
1.03987e-08
1.05781e-07
-1.19712e-07
5.78867e-08
5.47025e-08
7.12319e-09
7.54362e-08
-4.92769e-09
4.03923e-08
6.47344e-08
7.3743e-09
9.02111e-09
1.30938e-07
-1.08602e-08
-6.72278e-09
-8.42361e-08
8.24171e-08
1.37938e-07
-7.62246e-08
-1.61126e-07
1.61735e-07
1.69601e-07
5.93588e-08
-5.69794e-08
-1.71981e-07
1.46732e-08
-1.32613e-07
1.42469e-07
-8.04625e-08
-7.29207e-08
1.46579e-07
6.80423e-09
-4.97127e-08
-1.19291e-07
2.04521e-09
6.95684e-08
-6.83605e-09
1.33147e-07
-6.787e-10
-7.04958e-11
2.29398e-08
-8.83797e-08
9.41752e-08
2.48388e-10
2.49796e-10
-1.39111e-07
-3.6922e-09
8.06432e-08
-7.76564e-08
1.16842e-08
-8.61725e-08
1.47344e-07
-7.28556e-08
-2.86899e-08
-1.38846e-07
1.16137e-09
1.66374e-07
9.59896e-08
-1.84471e-07
7.20971e-08
1.63846e-08
-1.25573e-07
9.2639e-08
-1.00396e-07
1.02929e-07
-6.81255e-10
-1.01999e-07
-2.49256e-10
-4.66092e-08
-1.31354e-07
4.72307e-08
1.30733e-07
-7.42444e-08
-1.26099e-07
1.52171e-07
4.8172e-08
-2.92813e-09
-1.45735e-07
1.4633e-07
2.33331e-09
-1.28244e-07
1.28088e-07
-1.64442e-09
-1.47822e-07
1.30631e-07
-6.56483e-08
1.41349e-07
7.23487e-08
-6.19258e-09
7.85442e-08
-1.39869e-07
-6.54174e-08
-1.29022e-07
9.02117e-08
-1.04991e-07
-1.37867e-08
1.46145e-07
-8.9999e-08
-3.551e-08
1.23164e-07
-1.21257e-07
-3.3403e-09
1.43332e-09
-1.00211e-07
-2.40319e-09
4.29722e-09
1.0232e-10
-1.53367e-07
1.50336e-07
-9.24976e-08
-2.4467e-10
7.47923e-10
-9.53288e-08
8.01314e-08
1.58471e-08
-6.4964e-10
-5.71121e-08
-1.36548e-07
1.83885e-07
9.77563e-09
1.18426e-07
-4.58667e-10
5.76072e-08
4.92586e-08
-1.15578e-07
8.71183e-09
-1.11201e-07
-5.32832e-10
1.11464e-07
2.69766e-10
-1.08728e-07
1.56783e-08
-2.61301e-08
6.47813e-08
-1.23529e-07
5.22359e-08
6.51141e-09
-4.82446e-09
-9.63193e-08
4.30994e-09
1.60677e-09
-1.37336e-07
1.48832e-09
5.48652e-08
7.66293e-08
-7.78391e-08
1.86128e-08
4.71292e-08
2.12184e-08
1.29928e-07
-1.30464e-07
6.4399e-10
-1.08442e-10
-2.11035e-07
1.98933e-07
8.74114e-08
-7.53092e-08
5.85128e-08
-1.50725e-07
1.15893e-07
-2.36804e-08
7.62034e-08
-6.76058e-09
-6.96824e-10
-1.26478e-10
5.90534e-08
-6.27993e-08
-1.18474e-07
1.69204e-07
-1.40656e-07
1.16333e-07
-1.52676e-08
6.86747e-10
-1.56172e-07
1.55443e-07
1.33782e-07
-1.62965e-07
-1.47979e-09
-8.92601e-08
-8.48705e-08
1.67208e-07
6.92301e-09
9.62941e-08
2.44647e-10
-9.65782e-08
3.94691e-11
-1.51019e-07
8.07917e-08
7.49378e-08
-4.71007e-09
-2.05098e-07
1.27379e-07
-1.42366e-07
2.20085e-07
-1.97793e-07
2.58365e-08
-4.66943e-08
-1.15749e-07
-1.68093e-07
1.03496e-07
3.86523e-08
-1.50276e-08
-1.314e-07
1.43148e-07
3.27951e-09
-3.41628e-09
-1.14804e-07
-9.88737e-09
1.11778e-07
-1.15519e-07
1.23025e-07
-3.96751e-08
1.68581e-07
1.60155e-07
1.04267e-07
-1.31134e-07
-1.26394e-07
4.16515e-10
1.21975e-07
-1.22428e-07
3.65447e-11
1.05679e-07
-1.14494e-07
3.99035e-09
-8.18508e-08
-6.15422e-10
7.21481e-08
1.07602e-07
-4.66034e-08
6.50029e-08
-1.25897e-07
-4.75414e-09
-4.09941e-10
1.18785e-07
-1.18468e-07
9.29975e-11
-1.2254e-07
-4.28617e-10
1.23621e-07
-6.52494e-10
-1.25215e-07
4.60604e-08
-3.49784e-08
-1.22258e-08
1.0349e-07
8.27059e-08
-1.27283e-09
-1.84924e-07
3.22502e-09
-5.97603e-11
-1.75891e-08
8.54347e-08
-1.53526e-07
8.56803e-08
-1.32667e-07
1.34641e-07
6.85556e-08
-6.36418e-09
2.88048e-08
-1.37428e-07
-3.88545e-08
1.47478e-07
4.26611e-08
1.18358e-08
3.48986e-08
-8.93955e-08
7.2085e-08
7.90322e-08
-1.44663e-07
-6.45452e-09
-1.0781e-07
1.06078e-07
1.74843e-09
-1.64149e-11
-7.12618e-08
7.24266e-09
5.8327e-08
-5.61185e-08
1.31847e-07
-1.34055e-07
-1.09917e-07
2.33261e-07
-4.88624e-08
-7.44808e-08
9.02852e-08
-7.52956e-08
-7.91289e-08
6.41393e-08
7.17029e-08
-5.8992e-08
-1.4265e-07
5.65497e-08
8.4468e-09
6.10249e-08
8.47412e-08
7.87831e-08
8.13936e-08
-1.54008e-07
-6.16863e-09
1.41417e-07
8.39323e-09
-6.51765e-09
-1.43293e-07
1.07717e-07
7.22652e-10
-3.64806e-10
1.01464e-07
-1.03482e-07
2.41005e-09
-3.91817e-10
-6.9049e-08
-8.12449e-08
1.43421e-07
6.87313e-09
-1.27123e-07
1.48897e-09
4.18965e-10
-1.11522e-07
-3.66254e-11
3.57792e-10
1.19312e-08
1.30534e-07
1.17425e-07
2.01506e-09
-1.01396e-09
1.33879e-10
-1.08814e-07
1.08147e-07
1.02373e-07
1.79908e-08
2.80113e-09
-1.27313e-08
3.83007e-08
-1.27e-07
1.01431e-07
1.31675e-07
-1.31406e-07
-1.21868e-10
-1.47941e-10
-3.13218e-08
-1.25385e-07
1.82544e-07
-1.2525e-07
-2.02437e-08
1.50954e-07
-5.46001e-09
1.62852e-07
-1.38078e-07
-2.38173e-08
-2.18307e-08
1.35933e-07
1.33326e-07
-1.34526e-07
4.6229e-10
7.38021e-10
1.58417e-07
-4.89533e-08
-1.56049e-07
4.65852e-08
1.31922e-07
-1.32027e-07
1.56051e-07
-1.55946e-07
9.55087e-09
-1.33187e-08
-1.04157e-07
1.07925e-07
2.82757e-08
-1.0877e-07
-4.61313e-08
1.26626e-07
9.17943e-08
8.3124e-08
-1.67651e-07
-7.26704e-09
2.1613e-07
-2.28699e-07
-1.42697e-07
-9.67046e-08
1.0832e-07
-1.38756e-08
1.3273e-08
-1.97637e-07
1.71517e-07
-9.11091e-08
1.42581e-07
-2.42122e-07
1.9065e-07
8.38187e-08
-1.6886e-07
-6.06749e-09
2.16259e-08
9.50006e-08
-1.63571e-08
-1.00269e-07
-1.62464e-09
1.19733e-07
-1.53031e-08
-9.8725e-08
-6.26337e-08
1.63057e-07
-1.13581e-07
1.31584e-08
-2.89616e-08
8.34954e-08
-4.70767e-08
-7.45713e-09
3.15372e-10
-1.05117e-07
1.05276e-07
-4.73585e-10
2.91536e-09
1.31895e-07
-1.33632e-07
-1.17781e-09
-1.69021e-08
-1.34376e-07
1.444e-07
1.33396e-08
-7.2356e-08
1.78356e-07
1.1229e-08
-5.08483e-08
-4.70389e-08
1.3377e-07
-2.33487e-07
-4.60561e-08
-1.60524e-07
1.26752e-07
-7.61458e-08
1.30699e-07
-1.27265e-07
-5.19263e-10
-1.04447e-07
1.52012e-09
-2.22319e-09
1.0515e-07
6.56246e-08
-2.0219e-07
-1.54166e-07
-2.71099e-11
1.33318e-07
-1.33031e-07
-2.6006e-10
-1.33213e-07
-4.68401e-08
1.70578e-07
6.12447e-09
-9.6762e-09
1.17499e-07
-1.05328e-07
-1.21919e-08
1.53664e-07
-1.22976e-07
5.75989e-10
-1.3925e-10
6.82221e-08
-1.61186e-07
8.77061e-08
5.25811e-09
-1.49099e-09
-1.30509e-07
-1.57931e-09
1.34533e-07
6.10808e-09
-1.10786e-07
5.6474e-08
5.24386e-08
1.87389e-09
-1.12947e-07
3.07431e-08
1.53907e-07
-7.04015e-11
1.43804e-07
-8.18933e-10
-1.42915e-07
7.87841e-09
1.26936e-07
-2.70486e-08
-1.07765e-07
1.52721e-07
-1.7404e-07
9.00083e-08
-6.86897e-08
4.80842e-08
1.21311e-07
-5.96252e-08
-6.82065e-09
8.90518e-08
1.07522e-07
-1.86531e-07
-1.35703e-08
-6.95345e-09
1.15923e-07
-1.40027e-07
1.22584e-07
3.78633e-10
-1.22997e-07
3.44837e-11
7.83753e-09
1.06567e-07
-4.00302e-09
8.44112e-08
-2.09689e-07
3.33794e-08
-1.39804e-07
2.0075e-09
-7.86981e-08
-6.71574e-08
1.3892e-07
6.93538e-09
-1.11701e-07
-5.09796e-08
3.43761e-08
1.28305e-07
-1.25858e-07
-6.09003e-10
-6.55628e-10
-7.38071e-08
1.55928e-07
-8.81742e-08
6.05366e-09
7.87999e-08
-1.56582e-07
8.16666e-08
-3.88479e-09
-1.18481e-07
-2.46604e-10
1.08036e-07
-1.11102e-07
4.94268e-09
-1.87702e-09
1.59776e-07
-8.95649e-08
8.58827e-09
-1.21113e-07
2.0545e-08
-2.06894e-08
6.278e-08
-1.03821e-07
-2.34859e-08
1.32394e-07
-1.315e-07
-2.07795e-10
7.18981e-08
6.45235e-08
-6.43142e-08
-7.21074e-08
8.45574e-08
1.57591e-07
-1.70292e-07
8.33717e-08
7.08815e-08
-1.48877e-07
-5.376e-09
-1.21931e-07
6.44161e-08
5.01468e-08
7.36794e-09
1.96663e-10
1.32686e-07
4.42742e-10
8.39423e-08
7.81898e-08
-1.56705e-07
-5.4275e-09
1.12285e-07
1.22919e-07
-1.01097e-08
-1.09178e-07
-3.63148e-09
1.0062e-07
7.7476e-11
1.55839e-07
-1.57331e-07
-8.64054e-08
8.78972e-08
5.2661e-08
6.29372e-08
7.32063e-09
-6.25403e-09
-2.63767e-07
1.98392e-08
1.73352e-07
-3.60847e-09
6.29845e-09
1.61515e-07
1.38598e-07
-2.35332e-07
-1.29922e-07
1.05441e-09
-1.68228e-09
1.3055e-07
7.20039e-10
1.04558e-07
-1.05224e-07
-5.45594e-11
-8.3894e-08
1.91301e-07
-1.87869e-07
5.4763e-08
1.30165e-07
-6.83819e-08
-1.16546e-07
4.84979e-08
6.14161e-08
-1.17491e-07
7.57709e-09
1.57386e-07
-1.21266e-08
2.1948e-08
-1.40535e-07
-5.55868e-09
5.47342e-08
-1.58382e-07
-1.93442e-08
-1.00627e-07
-1.174e-07
1.10674e-07
2.11413e-08
-5.17533e-09
-2.17588e-08
1.01593e-07
3.08401e-08
2.05266e-08
-8.41031e-08
-2.25734e-09
1.31931e-07
3.99477e-09
1.32272e-10
4.04829e-10
-2.15266e-07
-1.55954e-08
-5.38723e-10
8.96728e-08
1.50919e-08
-9.6625e-08
-1.56426e-08
2.88915e-07
-1.27065e-07
-1.46207e-07
-1.78532e-07
1.45943e-07
1.21307e-07
-1.53713e-07
-7.22633e-08
7.79507e-08
-7.99095e-08
7.42221e-08
1.25384e-07
-1.30016e-07
-3.92761e-09
8.56031e-09
-4.23846e-09
-6.72691e-08
8.42307e-08
-1.95493e-07
-8.50822e-08
6.86518e-08
-6.54977e-08
-1.25851e-07
2.84888e-07
-4.36526e-08
-1.03667e-07
-1.3867e-08
-8.09071e-08
1.63176e-07
2.28816e-09
-3.5167e-08
-7.54023e-08
9.44079e-08
1.61614e-08
4.22326e-08
-1.89256e-07
8.57229e-08
6.13002e-08
-1.12014e-07
1.11823e-07
-2.16075e-10
4.0745e-10
9.64312e-08
-1.65842e-10
1.47484e-08
1.3217e-07
1.1862e-07
-7.80996e-09
-8.76574e-08
-1.52524e-07
1.86996e-08
7.59471e-10
1.35358e-07
-1.10832e-07
1.63191e-07
-5.02647e-08
-6.01353e-09
3.08783e-09
1.31942e-07
-3.09966e-09
1.10741e-07
4.13063e-08
-1.61022e-07
-3.13037e-08
-1.32162e-07
-1.14598e-07
-8.94304e-08
4.62842e-08
-1.15921e-08
1.13785e-07
-8.88958e-09
-9.94376e-08
-1.14453e-07
-3.44212e-09
9.99062e-08
-1.28618e-07
1.0362e-07
-6.33575e-10
-1.02315e-07
-6.71565e-10
-2.71016e-08
-1.55128e-07
-1.86174e-07
1.85835e-07
1.17266e-07
-4.9468e-08
1.13367e-08
-7.91346e-08
1.18627e-07
-5.87648e-10
-1.17877e-07
-1.62937e-10
9.0294e-10
1.06979e-07
-1.08214e-07
3.32257e-10
3.03621e-08
1.25506e-07
-3.84433e-08
-8.13625e-08
-8.59708e-08
1.07515e-08
8.14597e-09
1.14562e-07
-1.18752e-07
-3.95662e-09
-1.30852e-07
1.41263e-07
-2.26539e-09
-1.39367e-07
-3.83396e-09
-1.56153e-07
1.58247e-07
-5.82357e-08
-8.94398e-08
1.53742e-07
-6.06635e-09
1.12529e-07
-1.49248e-08
7.28732e-10
-1.36207e-10
4.91443e-08
1.23747e-08
-9.85192e-10
-2.9707e-10
7.84946e-08
8.59918e-08
-6.06911e-09
-3.52478e-08
1.04503e-07
8.22811e-08
-2.98199e-07
-1.85705e-07
3.15226e-07
1.66857e-07
1.47051e-07
-6.14711e-08
-9.45488e-08
6.12463e-09
-7.34265e-10
-1.29352e-07
-3.76815e-10
5.66141e-08
6.52172e-08
-1.20787e-07
-1.04392e-09
-1.19296e-07
1.19147e-07
1.71169e-10
-2.23368e-11
1.09516e-07
3.37401e-08
-1.43465e-08
1.44253e-09
2.02114e-07
-4.624e-09
-5.51831e-08
-8.3827e-08
-3.63967e-09
-7.89167e-08
-2.42767e-08
6.61991e-10
1.1229e-07
-1.12229e-07
8.11645e-08
-1.9977e-07
1.11168e-07
-1.03427e-09
-6.17788e-10
7.24489e-08
6.75422e-08
-1.36164e-07
-3.82697e-09
-1.67587e-07
8.36965e-08
-2.37495e-08
-2.8035e-08
-3.86921e-08
1.32721e-07
-6.59942e-08
-3.06534e-08
7.35818e-08
3.20094e-08
-1.45816e-07
-9.24169e-08
9.77301e-08
1.40503e-07
7.92597e-08
-5.76765e-09
6.73325e-08
1.33647e-07
-5.48322e-08
-1.46148e-07
-3.80275e-09
1.2152e-07
1.53249e-08
-1.33042e-07
1.15842e-07
-9.83216e-08
-2.16062e-08
4.08628e-09
1.46899e-07
-1.98512e-07
1.83508e-07
1.46367e-07
-7.10283e-08
-6.84855e-08
-6.85352e-09
4.40538e-08
-1.756e-07
-1.2574e-07
-1.2513e-07
-2.58411e-11
-1.94489e-07
1.6381e-07
-1.69933e-07
2.00613e-07
8.36309e-08
-1.70617e-07
-2.6606e-08
1.23352e-07
-1.22274e-07
-4.5401e-10
-6.23946e-10
6.21944e-08
-1.24206e-07
-5.25741e-09
-7.10088e-09
7.69105e-08
-1.7509e-07
8.21177e-08
-1.40731e-07
4.0895e-11
1.90634e-10
1.40499e-07
-1.05015e-07
1.42905e-07
-1.75545e-07
-9.23819e-08
-2.73516e-08
-7.28178e-09
6.13363e-08
7.14326e-08
-6.01663e-09
-5.42782e-08
-6.17812e-08
-5.87141e-09
-3.84969e-09
-1.07665e-07
-1.03998e-07
-1.08014e-09
-5.70813e-09
7.15241e-08
-7.12262e-08
7.48788e-10
-1.04674e-09
1.10294e-07
-1.08129e-07
-1.34351e-09
-8.20918e-10
-1.29103e-09
1.31317e-07
-1.30135e-07
1.08408e-10
-1.36065e-07
1.4676e-08
1.15765e-07
5.62392e-09
1.31289e-07
-1.24632e-07
-4.63173e-09
-2.02521e-09
-1.10878e-07
-1.20887e-09
1.12752e-07
-6.6476e-10
-1.0725e-07
-6.55161e-08
1.00154e-07
3.51369e-08
-9.87926e-09
-1.25412e-07
7.78513e-08
-8.27663e-08
4.04879e-09
8.66249e-10
4.66843e-08
3.85416e-08
-1.31835e-07
1.12582e-07
-1.09572e-07
-7.42457e-09
4.41459e-09
-5.24444e-08
5.2913e-08
1.57313e-07
5.70088e-09
1.3298e-07
-9.93266e-08
1.24068e-08
-2.84015e-08
-1.21113e-08
-1.05303e-07
-3.03163e-08
2.01506e-07
6.05524e-09
-1.76455e-07
1.34481e-07
-3.4609e-08
-2.00698e-08
2.16938e-08
-8.28628e-08
6.23524e-09
-1.29301e-07
1.29136e-07
5.99932e-08
-7.24472e-08
-3.11066e-08
7.9375e-08
2.14822e-09
6.20335e-08
5.68967e-08
-7.62692e-08
-8.56916e-08
1.18179e-07
-1.3143e-08
-7.25681e-08
5.9858e-09
9.73523e-08
1.16902e-08
2.32133e-08
2.56588e-08
-1.09178e-08
5.29938e-08
6.13891e-08
6.92817e-09
-5.08887e-08
1.6656e-07
-1.72783e-07
-1.80683e-07
8.95813e-08
2.28236e-07
-1.53801e-07
1.09481e-07
-3.35568e-08
6.2927e-08
-1.38851e-07
-1.26849e-07
-4.38399e-08
-1.49057e-07
-5.65721e-09
-1.04896e-07
8.2363e-08
-9.08267e-08
1.13359e-07
8.92917e-09
-1.23776e-07
-1.45557e-07
-7.73753e-09
-4.03633e-09
-1.31382e-07
1.19011e-07
1.28213e-07
2.02055e-08
1.05639e-07
2.12533e-09
-1.36816e-07
1.26469e-07
-8.83946e-08
9.87415e-08
-1.0422e-07
1.378e-08
-2.10823e-08
-3.57373e-08
3.65182e-08
5.63633e-08
-4.61457e-08
-1.15032e-07
-4.50423e-08
1.25808e-08
-7.29614e-08
-8.75579e-08
7.77713e-09
-7.22385e-08
8.29129e-08
8.28142e-08
2.42613e-08
4.37162e-08
-1.50792e-07
3.13387e-08
5.46096e-08
-8.17262e-08
2.27297e-09
-8.22896e-08
-9.27239e-08
7.42641e-09
6.41959e-08
-7.48411e-08
-4.93629e-08
6.00081e-08
-5.01885e-08
-9.14416e-09
1.51735e-07
-1.91417e-07
4.02782e-08
-5.96152e-10
-8.59512e-09
2.82016e-08
8.17796e-08
-1.01386e-07
5.54359e-10
-9.69355e-08
-9.91021e-10
9.73722e-08
-1.0361e-07
1.02954e-07
3.43967e-10
3.12714e-10
1.34268e-07
-7.3493e-08
-1.35985e-07
-6.25632e-08
-3.92707e-08
1.03493e-07
-1.65959e-09
1.58341e-07
1.19568e-08
-1.20207e-07
6.13086e-09
-1.44144e-07
1.69388e-08
-5.09059e-10
-1.13257e-07
-1.16885e-07
1.17244e-07
-3.18434e-10
1.381e-07
2.17609e-08
-1.47777e-07
-1.05994e-08
-1.47573e-08
2.24506e-07
-7.771e-10
-5.10769e-08
-6.89767e-10
1.00106e-07
-9.9293e-08
1.85772e-10
-1.45357e-10
9.67714e-09
2.71249e-08
1.26006e-07
-2.95689e-08
1.21512e-07
-9.08478e-09
-3.35729e-09
1.31318e-07
-1.26558e-07
-1.40204e-09
-1.06395e-07
1.1049e-07
-5.46241e-09
1.25385e-07
5.62971e-09
-3.26683e-08
-9.8346e-08
1.22216e-07
1.80679e-09
-1.22002e-07
-2.0209e-09
-7.28428e-08
-5.53678e-08
7.30275e-08
9.16325e-08
1.51748e-09
1.6099e-07
1.99499e-08
-3.70355e-08
-1.50087e-08
3.66844e-09
-8.01059e-08
1.25625e-07