/*--------------------------------*- C++ -*----------------------------------*\
| =========                 |                                                 |
| \\      /  F ield         | OpenFOAM: The Open Source CFD Toolbox           |
|  \\    /   O peration     | Version:  2212                                  |
|   \\  /    A nd           | Website:  www.openfoam.com                      |
|    \\/     M anipulation  |                                                 |
\*---------------------------------------------------------------------------*/
FoamFile
{
    version     2.0;
    format      ascii;
    arch        "LSB;label=32;scalar=64";
    class       volVectorField;
    location    "0.054";
    object      U;
}
// * * * * * * * * * * * * * * * * * * * * * * * * * * * * * * * * * * * * * //

dimensions      [0 1 -1 0 0 0 0];

internalField   nonuniform List<vector> 
31639
(
(0.124401 0.000589867 -0.000622502)
(0.120906 -0.000474262 5.3765e-06)
(0.123012 -0.000287801 0.000887545)
(0.126761 3.85281e-05 -0.000270309)
(0.123071 -0.000787011 -0.000311471)
(0.12165 -0.000141628 -4.4532e-05)
(0.121209 -3.81889e-05 -0.000226735)
(0.124011 -0.000108624 2.18049e-05)
(0.12379 0.000253519 -0.000254608)
(0.124687 -0.000493524 -0.000472426)
(0.12552 0.000460874 -3.5129e-05)
(0.124506 -0.00057679 -0.000808654)
(0.12169 -0.000502652 3.97738e-05)
(0.124602 -2.30173e-05 0.000201983)
(0.120107 -0.000363546 0.000124009)
(0.121643 -0.000441076 0.000825501)
(0.12339 0.000453364 0.000135325)
(0.120517 6.2345e-05 0.000403672)
(0.121811 -5.4561e-05 -0.000384054)
(0.12258 -9.50673e-05 -0.000203293)
(0.115727 -0.000265285 -0.000416133)
(0.125687 -0.000338323 -0.000610706)
(0.125131 0.000712932 -0.000198262)
(0.121466 0.000196133 -0.000332314)
(0.119952 -0.000208067 -0.000155527)
(0.123345 -0.000292144 0.000103709)
(0.122286 -1.39124e-05 -0.00020355)
(0.124004 0.00150725 -0.000138206)
(0.120958 0.000396919 0.000707838)
(0.125164 -0.000186133 0.000646631)
(0.125442 -0.000172012 -7.20394e-05)
(0.120536 -2.24417e-05 -0.000227401)
(0.125355 0.000370056 -0.000483678)
(0.121361 -0.000179382 -5.54083e-05)
(0.117554 0.000163338 0.000290115)
(0.125569 0.000418242 0.000194868)
(0.114518 -0.000422004 -0.000114395)
(0.12641 -0.000585236 0.000295688)
(0.125027 -0.000394676 0.000262883)
(0.114434 3.64207e-05 -0.000153199)
(0.118505 -7.77429e-05 -0.000331439)
(0.1171 -0.000527621 2.61696e-05)
(0.124223 5.58818e-05 -1.03789e-05)
(0.126098 -0.000799975 -0.000897309)
(0.124748 -0.00072923 0.00075734)
(0.125916 -0.000882251 -0.000393392)
(0.118865 0.00034851 -0.000283992)
(0.122734 0.000529047 -0.000331049)
(0.12278 -5.75181e-05 0.0002343)
(0.126312 -0.000454928 -0.000212908)
(0.12553 -0.000272089 -0.000562531)
(0.116259 9.40842e-05 -0.000266967)
(0.124937 0.000679219 0.00023492)
(0.115471 -0.000331153 0.00049066)
(0.123126 -0.000455837 -0.000189873)
(0.122885 0.000194815 1.83313e-05)
(0.116761 -9.7939e-05 -0.000637342)
(0.122442 6.24238e-05 0.00033991)
(0.121804 0.000151241 0.000407532)
(0.117405 0.000303751 -0.000215432)
(0.12432 -0.000236756 -0.000514151)
(0.124939 0.000354296 -0.000226933)
(0.120497 -0.00030232 -0.000311345)
(0.121853 -7.72736e-05 -0.000244525)
(0.123718 0.000434059 0.000365494)
(0.126293 -0.000326205 -0.000524638)
(0.123778 6.4394e-06 -0.00103297)
(0.122164 -0.000310966 0.000137942)
(0.118711 3.9778e-05 -0.000434459)
(0.126281 0.000328993 -0.000195783)
(0.124074 0.000137797 0.000113749)
(0.118803 0.000426456 -0.00126069)
(0.124405 -0.000413569 -0.000844256)
(0.122663 -0.000259752 -0.000198348)
(0.123934 0.000665886 6.27665e-05)
(0.115738 0.000401553 -0.000592977)
(0.125502 -0.000645547 0.000309811)
(0.122038 0.000197244 -0.000660955)
(0.121019 -0.000274533 0.000420448)
(0.124316 0.000229597 3.35069e-05)
(0.120559 -4.48308e-05 6.79505e-05)
(0.112921 -0.000361647 2.02423e-05)
(0.125712 -0.000448645 0.00015606)
(0.122719 -0.000222113 -0.000307535)
(0.123079 -0.000124858 -0.000109053)
(0.125512 -0.000524681 -0.000329847)
(0.126405 -0.000119677 0.00013413)
(0.125659 -0.000206926 -0.000501423)
(0.116759 0.000881926 -0.00149804)
(0.124788 -0.000189204 -0.000508423)
(0.123009 -0.0004041 0.000242827)
(0.121786 -0.000525682 -0.000172698)
(0.117684 -0.000517285 -0.000499152)
(0.119896 0.000691953 -0.000833564)
(0.120638 -0.000866422 -0.000444766)
(0.121239 0.000879197 0.000488173)
(0.123131 0.000180355 -0.000534118)
(0.122452 -0.000239493 0.000134209)
(0.121826 0.000167175 0.000373348)
(0.116679 -0.00123627 -0.000176345)
(0.123893 0.000349022 3.18349e-05)
(0.123419 0.000281949 0.00102397)
(0.120444 -0.000359696 -0.000134164)
(0.116008 8.31689e-05 -0.000179484)
(0.117225 -5.85846e-05 -0.000388776)
(0.125948 -0.000663397 -0.000324914)
(0.115455 0.000347248 -0.00049006)
(0.116539 -0.00099159 -0.000909514)
(0.119261 0.00037708 -6.3494e-05)
(0.114748 -0.000508444 0.000689905)
(0.123752 -0.00146856 0.000411674)
(0.117791 -0.000108804 -0.00026643)
(0.121775 0.000160999 -0.000144748)
(0.121694 -0.000749851 -0.000664409)
(0.122034 0.000103624 -0.000963893)
(0.11556 -0.000530551 0.000280302)
(0.121728 0.000708484 9.57416e-05)
(0.121161 -0.000836082 -0.000204475)
(0.123656 0.000129676 0.000203214)
(0.121634 -0.000389691 3.7876e-05)
(0.123749 -0.000321614 -0.000223191)
(0.124212 -0.000465436 0.000300807)
(0.125144 -3.57111e-05 -0.000613555)
(0.124308 0.000376819 -0.000728126)
(0.124145 -0.000302769 -0.000872331)
(0.124981 -0.000451837 0.000158903)
(0.121594 -3.61348e-05 0.000452504)
(0.120528 0.000169772 -0.000277953)
(0.120274 -0.000667142 -0.000393331)
(0.12474 -0.000259536 0.000238402)
(0.124232 0.000251517 -0.000163916)
(0.124963 7.68558e-05 -0.000553119)
(0.123953 -0.000682515 -1.23524e-05)
(0.122894 -0.000175307 0.000112348)
(0.12537 -0.000130589 -0.000115758)
(0.122453 -0.000110156 6.84453e-05)
(0.117597 -0.000159702 -0.000288086)
(0.116557 -0.000760984 -0.000500629)
(0.125247 0.000385652 0.000618939)
(0.121892 -0.000492898 -0.000516355)
(0.12156 -0.000267744 -0.000416607)
(0.125962 0.000276335 0.00117205)
(0.124859 0.000416092 0.000312358)
(0.115974 -0.000366531 -0.000495372)
(0.116378 -0.000125326 -0.000705649)
(0.124636 -0.000277152 3.39596e-05)
(0.124284 -3.27208e-05 -0.000146517)
(0.117114 -0.000276301 -0.000438463)
(0.117697 -0.000100265 0.000204117)
(0.125168 -0.000504244 0.000174413)
(0.119867 -0.000123354 -0.00125142)
(0.121603 -0.000121541 0.000144378)
(0.12245 -0.000549472 -0.000901671)
(0.124943 -0.000101313 9.14174e-05)
(0.118141 0.000621321 -0.00130649)
(0.126777 9.16361e-07 -1.07558e-05)
(0.124121 -0.000405396 -0.000266117)
(0.118469 -0.00126996 -0.000210843)
(0.116885 -0.000755112 0.00105003)
(0.121331 -0.000397469 -0.000117169)
(0.125961 -0.000189592 -0.000472039)
(0.115657 0.000279159 6.40835e-05)
(0.117568 0.000278799 -0.00107929)
(0.116832 -0.000459629 0.000174843)
(0.115823 -0.00112163 4.45761e-05)
(0.120518 0.000475673 -0.000358904)
(0.116969 0.000338327 0.000201808)
(0.125605 -0.000670307 0.000194159)
(0.125425 -0.000497243 0.00024416)
(0.117023 0.000254654 -0.000858625)
(0.117955 -0.00091478 0.00033856)
(0.121165 0.000731723 -0.000548669)
(0.117357 -3.61481e-05 -3.30407e-05)
(0.122596 -0.000102877 0.000527083)
(0.126154 -0.000304029 -0.000213759)
(0.124067 -0.000707769 -0.000494811)
(0.122191 0.00062546 0.000254999)
(0.12474 0.000314049 0.000360137)
(0.122788 -0.000529446 -6.52497e-05)
(0.12089 -0.000506185 -6.5756e-05)
(0.12111 0.000147463 -5.00374e-05)
(0.12155 -0.000588154 0.000761851)
(0.120264 -2.69798e-05 0.000226034)
(0.114797 0.00103063 -0.000645932)
(0.12347 -0.000227198 9.48152e-05)
(0.125878 3.35891e-05 -0.000223087)
(0.121324 0.000243589 0.000774298)
(0.125246 0.000191185 -0.000157961)
(0.117772 -0.000268638 0.000102334)
(0.11528 -0.000151013 0.000440367)
(0.126324 -0.000231387 -5.49051e-05)
(0.124959 -0.000223725 -0.000315876)
(0.122574 -0.000329227 0.000484027)
(0.121428 -0.000121473 0.000285293)
(0.121976 -0.000235598 -0.000449518)
(0.122775 -0.000253936 -0.000759884)
(0.122458 0.000694477 0.000422435)
(0.124526 0.000492092 -0.000484733)
(0.117465 -0.000194114 -0.000342932)
(0.121204 0.000106928 -0.00023003)
(0.125919 -7.19424e-05 0.000296687)
(0.124517 -0.00024337 0.000225937)
(0.123902 -0.00017118 0.000276575)
(0.121852 -0.00162603 -0.000858406)
(0.12282 -0.000610204 -0.000459193)
(0.12035 9.15388e-05 -0.000378559)
(0.121867 -0.00031058 -0.000476661)
(0.120211 0.000604935 -0.000680751)
(0.125028 7.82964e-05 -0.000669121)
(0.115663 -0.000131621 6.92706e-07)
(0.121989 -9.30542e-05 -0.000180685)
(0.121714 0.000395994 2.03309e-05)
(0.123174 0.000117565 -0.000367512)
(0.125447 -0.000161375 -0.000531929)
(0.124798 -0.000599466 -0.000411169)
(0.125696 -0.000205079 -0.000302472)
(0.117452 -0.00111132 -0.000365072)
(0.120319 -0.000772395 0.000485508)
(0.124672 -0.000404314 -0.000264711)
(0.125453 -0.000218224 0.000334236)
(0.124228 3.28729e-05 0.000359275)
(0.122608 -0.000471576 -0.000561185)
(0.113879 -0.000376523 0.000611749)
(0.12167 -0.000458023 0.000474027)
(0.117092 -0.000776324 -0.000304674)
(0.120136 0.000380328 0.000116559)
(0.124808 -0.000487701 0.000513242)
(0.120554 5.52512e-05 0.000541689)
(0.116131 0.000446296 -0.000273726)
(0.122761 0.000169673 0.000197347)
(0.124339 0.000587286 -0.00027334)
(0.125984 -0.000584733 -1.38799e-05)
(0.11664 -0.000369308 -5.25501e-07)
(0.115805 -0.000816178 0.000352187)
(0.123406 -0.000280303 0.00042087)
(0.125238 -7.17812e-05 -0.000621396)
(0.116943 -4.14401e-05 0.000492257)
(0.125222 -0.000643658 0.000303663)
(0.120045 -4.30323e-05 -0.00050327)
(0.117662 -0.000511586 0.000191728)
(0.121188 0.000279641 -0.0004245)
(0.123757 -0.00036694 9.77195e-05)
(0.120387 -0.00102574 -0.000177788)
(0.119535 0.000214961 0.000994692)
(0.120863 0.000415754 0.000451688)
(0.122715 -0.000126065 -0.00018991)
(0.120641 0.000432868 -0.000568171)
(0.119754 0.00079681 -0.00111405)
(0.115747 -0.000456947 0.000580877)
(0.120717 0.0002316 -0.000739761)
(0.12119 8.75434e-05 -0.000718059)
(0.118878 -6.34517e-05 -6.92796e-06)
(0.120768 -0.00115657 0.000474077)
(0.125274 0.000242176 -0.000166624)
(0.125463 0.000575274 0.000213537)
(0.122789 0.000398221 -5.94299e-05)
(0.117657 0.000191982 3.36158e-05)
(0.124839 0.000315199 -0.000185724)
(0.12457 0.000325979 -0.000525396)
(0.122677 -0.00043376 -0.000282954)
(0.126351 0.000117293 0.000861449)
(0.125833 0.000122742 -0.000427991)
(0.123839 0.000189971 -0.000436646)
(0.125624 -0.000127314 5.66698e-05)
(0.120383 0.000449052 0.000273682)
(0.122495 -0.000322812 -0.000674607)
(0.116033 0.000264249 -0.00168308)
(0.120614 1.75343e-05 -4.93148e-05)
(0.124818 -0.00113102 0.000399515)
(0.1203 8.75405e-06 0.000409169)
(0.125078 0.000408334 -0.000181793)
(0.12178 0.00047743 -0.000699494)
(0.123212 -0.000239773 0.000159444)
(0.124038 0.000335798 0.000417257)
(0.125973 -7.71361e-05 -0.000724698)
(0.12263 0.000668843 0.000116144)
(0.116902 0.000312812 1.31451e-05)
(0.121662 0.000263758 0.000229702)
(0.118406 0.0017142 -0.000338501)
(0.125313 -0.000393438 -0.000997624)
(0.121819 -0.000618921 -0.000509367)
(0.125122 0.000198395 -0.000497278)
(0.123116 0.00028185 -2.20193e-05)
(0.120951 -0.000201698 -0.000459323)
(0.115747 -9.69466e-05 -1.44383e-05)
(0.118403 2.46596e-05 -0.000579676)
(0.117348 0.000378339 0.000321307)
(0.115622 -0.000364523 0.000112436)
(0.125646 -0.000342134 -0.000467884)
(0.116135 -0.000505592 -0.000647659)
(0.12312 -0.000428142 0.000337316)
(0.122443 0.000522494 -0.000294467)
(0.121818 6.68784e-05 -0.000223128)
(0.117782 -0.000247098 -0.000324991)
(0.125496 -0.000832498 -1.56215e-05)
(0.122001 0.000119938 -0.000800907)
(0.119755 0.000160395 0.000714512)
(0.12525 0.000107679 -0.000441215)
(0.123676 -0.000145996 -7.28305e-05)
(0.118364 0.000535284 0.000525746)
(0.120371 0.000179332 -4.4805e-05)
(0.11745 0.000193849 -4.53049e-05)
(0.122261 0.000281397 -0.000392956)
(0.120755 0.000374588 -0.000192814)
(0.11749 0.000424031 0.000947801)
(0.122389 -5.04996e-05 -0.00023888)
(0.120619 0.00112957 0.000700134)
(0.114906 6.46149e-05 -0.0013043)
(0.114849 0.000321391 0.000232435)
(0.12398 -0.000470692 0.000187718)
(0.125277 0.000130216 -8.5992e-05)
(0.126059 0.000332827 -0.000145102)
(0.116367 0.000380491 0.000323796)
(0.118003 -0.000107185 0.000603627)
(0.124442 0.000185099 0.000403799)
(0.119322 -0.000247703 -0.000276168)
(0.119538 0.000615211 -0.000885158)
(0.124368 0.000363005 0.000195971)
(0.125153 -0.000654917 -9.56682e-05)
(0.121834 -0.000860668 0.000217634)
(0.125126 -0.00110807 -0.000241038)
(0.12616 0.000137745 -0.000240536)
(0.117204 -0.000188938 -0.000254662)
(0.125835 -0.00130807 -0.000176751)
(0.114715 0.000197811 -0.000249234)
(0.116043 -4.03676e-05 -3.17957e-05)
(0.125564 -0.000452647 -0.000291886)
(0.1248 -0.000464928 -0.000183086)
(0.125681 4.01397e-05 -0.000805815)
(0.126078 0.000395395 -0.0011162)
(0.124935 -0.000239275 -0.000870111)
(0.11838 0.00134108 -0.000606813)
(0.120195 -0.00114646 0.00078016)
(0.120967 -0.000164593 -0.000322224)
(0.123799 -0.00100901 0.000178923)
(0.125719 0.00100043 0.000979638)
(0.126286 -0.000889596 0.000357308)
(0.121644 0.000198041 -0.00027346)
(0.11937 -0.00113058 0.000461403)
(0.121564 2.03121e-05 -0.000130861)
(0.124893 -0.000144848 -0.000154008)
(0.124637 -0.000165627 -0.001033)
(0.120725 9.35732e-05 -0.000228652)
(0.123431 -0.000216753 -2.12921e-05)
(0.121074 0.000641404 -0.000685599)
(0.121457 -0.000449515 -0.000415748)
(0.123783 -0.000450575 0.000454627)
(0.119681 -0.00120617 0.00108542)
(0.117232 -0.000143533 -4.70995e-05)
(0.122623 0.000891915 -0.000429154)
(0.123717 0.000110647 0.000625682)
(0.121065 0.00034993 -0.000185566)
(0.123988 0.000395363 0.000431524)
(0.125016 -0.000434319 0.000331218)
(0.122085 0.000130466 -0.000459205)
(0.117962 9.22042e-05 -0.000558199)
(0.121336 0.000491632 -0.000425244)
(0.120478 0.000494501 0.000545468)
(0.116109 0.000221475 -0.000484301)
(0.124756 -0.000813183 0.000286175)
(0.115828 0.000621409 0.000469138)
(0.12407 -0.000141734 -0.000476803)
(0.1258 -0.000771631 -0.000346373)
(0.116837 -0.000382201 0.000207797)
(0.122139 0.00037773 5.91825e-05)
(0.120656 0.000453736 0.000417267)
(0.116629 -0.000331042 1.01529e-05)
(0.123617 -0.000189738 -0.000273967)
(0.118078 5.92771e-05 -6.72323e-05)
(0.122003 2.33237e-05 0.00075751)
(0.125397 0.00031126 8.24575e-05)
(0.123839 0.000158339 0.000153052)
(0.115833 0.000348554 7.04588e-05)
(0.124155 0.000362263 4.88242e-05)
(0.117938 0.000141246 -0.000407518)
(0.124117 -4.28335e-05 3.0337e-06)
(0.124093 0.000237825 0.000209068)
(0.124617 -0.000126398 -0.000614814)
(0.125336 -0.000155727 -0.000568791)
(0.11681 2.21106e-05 -0.000750934)
(0.12391 -0.000762585 7.32633e-05)
(0.116103 7.90523e-05 -0.000570283)
(0.120824 5.7576e-05 -0.000482335)
(0.117038 5.37868e-05 -0.000469907)
(0.126442 -3.33306e-05 -0.000605502)
(0.125064 4.83649e-05 -0.000578105)
(0.126053 1.00195e-05 -9.96833e-07)
(0.125501 -0.000386775 -0.0005771)
(0.123165 -5.52308e-05 -0.000751437)
(0.124403 -5.12458e-05 0.000178215)
(0.121001 0.000275724 -0.000111437)
(0.122998 0.000308156 -0.000328525)
(0.12183 0.000110984 -0.000398498)
(0.118062 0.00016349 9.61583e-05)
(0.124523 2.8777e-05 -0.000480138)
(0.122561 -0.000383726 -7.37704e-05)
(0.122707 -0.000146574 -0.000316718)
(0.124842 0.000176721 0.000173028)
(0.124562 -8.22776e-05 -0.000475336)
(0.125103 1.93412e-05 0.000258623)
(0.121788 -0.000723857 0.000176646)
(0.116282 -0.000171477 0.000737307)
(0.121438 0.000198581 0.00013158)
(0.124014 0.000137052 0.000471162)
(0.123126 -0.000216074 9.92011e-05)
(0.116951 -0.000646106 -0.000458875)
(0.125133 0.000123991 -0.00035991)
(0.124905 -0.000197581 -0.000882786)
(0.119699 0.000354689 -0.000382748)
(0.123634 -0.00026731 -0.00051029)
(0.124225 -0.000399689 -0.00118762)
(0.12418 -0.000403369 -0.000655118)
(0.124137 -0.000402858 -0.000123704)
(0.116502 -9.13646e-05 -7.33968e-05)
(0.123478 -0.000476515 0.000100835)
(0.123884 -0.000566774 0.000250073)
(0.114713 0.000129947 8.0528e-05)
(0.123233 -0.000979395 -1.65181e-05)
(0.123398 -0.000332646 -0.000153782)
(0.119599 9.6896e-05 0.000358295)
(0.115643 -2.1801e-05 0.000199875)
(0.115377 -0.000417761 0.000660762)
(0.12121 -0.00099156 0.000246578)
(0.115087 0.000653993 -0.000591447)
(0.121458 5.52915e-05 0.000189725)
(0.122541 -2.73229e-05 -6.4559e-05)
(0.120201 0.000572245 0.000278078)
(0.124106 0.000437133 0.000202805)
(0.116372 -0.000304054 0.000151618)
(0.123448 0.000366139 6.82531e-05)
(0.126306 0.000258488 3.41576e-05)
(0.121249 -0.000134805 8.9451e-05)
(0.123973 -0.000141442 0.00065825)
(0.121537 0.000131555 4.54622e-05)
(0.125386 0.001014 -9.18726e-06)
(0.122828 0.000424144 6.95739e-05)
(0.12337 -0.000270512 -0.00067535)
(0.126392 9.39631e-05 -0.00044543)
(0.122003 7.6188e-05 -0.000444487)
(0.116791 0.000203476 0.000174037)
(0.121456 1.41964e-05 -0.00016307)
(0.125892 0.000218182 -0.00121261)
(0.124872 0.000265228 -0.000792572)
(0.12419 -0.000224089 0.000700679)
(0.125285 4.41046e-05 5.74612e-05)
(0.121629 -0.000722759 0.000630528)
(0.124609 -0.000223977 0.000235671)
(0.123252 0.000176082 0.000210859)
(0.124429 0.000271808 -0.000163762)
(0.124907 -0.000377231 -0.000490026)
(0.115492 -0.00048686 -0.000329896)
(0.121179 -0.000319501 0.000238334)
(0.114203 -0.000203352 0.000237695)
(0.121591 0.000579048 0.000759318)
(0.120205 -0.000130474 -0.000704503)
(0.116673 -0.00032726 0.000731089)
(0.115829 -0.000513881 -0.00031265)
(0.122499 0.000373166 -0.000257911)
(0.123456 -0.000430361 -0.000250502)
(0.125164 -1.28407e-05 -0.000614578)
(0.117261 -0.000220289 0.000693463)
(0.12411 -4.51752e-05 1.06073e-05)
(0.122074 -4.64304e-05 0.000297336)
(0.121669 -0.000201717 -0.000461406)
(0.123451 7.60608e-06 -0.000648454)
(0.115148 -0.000593326 0.00182923)
(0.121656 -9.99406e-05 -0.000498433)
(0.116273 0.000123778 0.000346262)
(0.11992 -0.00049388 -0.000441559)
(0.124272 -0.000161442 1.14534e-05)
(0.126688 0.00134539 0.000354026)
(0.124541 0.00022009 -0.00108199)
(0.123059 0.00053736 -0.000707185)
(0.115051 0.000239272 0.00140779)
(0.123979 -0.000141087 0.000135999)
(0.123063 -0.000168177 -0.000518634)
(0.124477 -0.000212488 -0.000371398)
(0.11579 -4.51503e-05 8.34461e-06)
(0.118251 -0.00017304 0.000625284)
(0.120598 0.000478518 0.000622879)
(0.118237 0.000414522 -0.000244398)
(0.114805 -0.000691697 -0.000191517)
(0.124493 -8.26376e-05 -0.000391513)
(0.117834 -0.000122435 0.00011119)
(0.120585 0.000859191 0.000141165)
(0.116528 -0.000365526 -0.00100471)
(0.123996 0.000362788 7.02063e-05)
(0.117173 0.0001334 -0.000329417)
(0.125412 -0.00020225 0.000623379)
(0.123944 0.000116448 -0.000462317)
(0.125519 -7.09952e-05 0.000540381)
(0.125623 -0.000134503 -0.00048526)
(0.117577 4.84472e-05 0.000239599)
(0.12468 5.90319e-05 0.000230895)
(0.125901 -0.000267931 -6.01535e-05)
(0.123061 -0.000470437 0.000453275)
(0.123947 0.000570285 -0.000220391)
(0.12305 -0.000465332 -0.000254232)
(0.125274 0.000428169 -0.0001343)
(0.124281 3.17133e-05 0.000283467)
(0.120174 5.11285e-05 -0.000412298)
(0.126741 -0.000226334 -5.13874e-05)
(0.126121 -0.000360398 -0.000346805)
(0.122245 -0.000282988 -0.000308183)
(0.121644 -0.000275817 -0.000790871)
(0.125301 -0.000394522 -0.000236515)
(0.122601 0.000393008 5.67309e-05)
(0.114918 0.000701781 -0.000208005)
(0.115199 0.000448146 -5.82685e-05)
(0.121771 2.6748e-05 5.39916e-05)
(0.124653 -4.23851e-05 0.000246098)
(0.126054 -0.000202068 -0.000233935)
(0.119973 -0.000201743 -0.000123679)
(0.124997 0.000580794 0.000245253)
(0.123792 -8.52247e-08 0.000120055)
(0.125188 0.000944443 0.00079223)
(0.122277 1.2201e-05 -0.000161843)
(0.122549 0.00054054 -0.000497626)
(0.123473 -0.00161668 0.000506194)
(0.11641 -7.06786e-06 -0.000280082)
(0.121464 0.000184895 1.94137e-05)
(0.123603 1.296e-05 -0.000355901)
(0.125482 1.1735e-06 3.65172e-05)
(0.117941 -0.000136344 8.57454e-05)
(0.118826 0.000673518 -0.000820895)
(0.119786 -9.40315e-05 -0.000333703)
(0.119548 -0.000323746 -7.37243e-05)
(0.12151 -0.000195281 -0.000549106)
(0.116132 -0.000119084 -0.000362168)
(0.124729 0.000139844 -0.000911373)
(0.120792 -1.53611e-05 -0.000258577)
(0.12404 0.00012649 0.00110193)
(0.121605 -0.000281153 -8.60781e-05)
(0.125968 -0.000255887 -0.000244934)
(0.122598 -0.000307419 -0.000937403)
(0.116507 0.000190452 0.000584928)
(0.123306 0.000800324 3.12608e-05)
(0.126237 -0.000326983 -0.00102425)
(0.117254 0.000411629 0.00118956)
(0.125112 -0.000186761 -0.000750957)
(0.127075 -0.000895649 -0.000684906)
(0.122432 -0.000198674 -7.8234e-05)
(0.120803 0.000230735 0.000178571)
(0.124251 0.000384398 -0.00120097)
(0.119945 -3.98706e-05 2.64586e-05)
(0.121947 -0.000465456 8.66858e-05)
(0.12169 0.000145412 0.000298805)
(0.117158 -0.000119168 -4.95262e-06)
(0.117577 -0.000175256 -0.00117648)
(0.120928 0.000193202 0.000503037)
(0.120076 0.000642297 0.000156698)
(0.124653 -0.000155821 -0.000300661)
(0.119802 -0.000429997 0.0002873)
(0.121457 0.000474639 0.00042118)
(0.125643 0.000235034 0.000398355)
(0.120776 0.000205239 -5.46944e-06)
(0.115554 0.000202491 0.00038737)
(0.120121 0.000347154 0.000240665)
(0.121989 0.000455664 -0.000333927)
(0.126044 -0.000184878 0.000282955)
(0.116284 0.000741905 0.000381408)
(0.115994 -0.000130458 0.000307274)
(0.125791 0.000324972 0.000934962)
(0.116416 0.000275985 -2.9286e-05)
(0.12302 -3.27015e-05 -0.000100781)
(0.124663 0.000197285 -0.000272713)
(0.117915 -0.000149495 -0.000874417)
(0.122011 4.66304e-05 -0.000429791)
(0.125434 0.000541971 -0.000812447)
(0.122032 -7.80044e-05 0.000621648)
(0.114694 7.21945e-05 0.000233832)
(0.124948 0.000267893 -0.000189)
(0.122157 -7.28339e-05 -0.000248522)
(0.115173 0.000550874 6.9877e-05)
(0.125374 0.000278384 -0.000245321)
(0.120238 -0.00016825 -0.000326868)
(0.121091 0.000604585 -0.000389102)
(0.123789 -2.92582e-05 -0.000151957)
(0.115428 0.000837867 -0.000457639)
(0.120968 -0.000111106 -0.0010578)
(0.120363 -0.000765597 -4.84528e-05)
(0.12227 -5.43281e-05 -0.000502118)
(0.117987 -0.000125597 0.000447135)
(0.119739 -7.61463e-05 -9.07595e-05)
(0.123989 0.000533109 0.000554573)
(0.126276 -0.000938208 -0.000658764)
(0.127534 -0.000344663 -9.52613e-05)
(0.126047 0.000549778 -0.000435818)
(0.125271 -0.000617873 -0.0002105)
(0.12437 6.93283e-05 -0.00129589)
(0.119406 -0.000259409 0.000481377)
(0.126671 0.000149258 -0.00113221)
(0.12447 -5.78999e-05 2.13509e-05)
(0.123371 0.000506258 9.76096e-05)
(0.118079 0.000809895 -0.000403285)
(0.122527 -0.000148483 -0.000216123)
(0.123787 0.000506587 0.000612743)
(0.12731 0.000923224 2.26698e-05)
(0.116222 -0.000106688 0.000338817)
(0.114914 -0.00040696 0.000424049)
(0.125323 0.000232224 -0.000642405)
(0.120072 9.60846e-06 -0.000338563)
(0.12546 0.000100947 -4.82303e-05)
(0.120783 0.000184143 -0.000520048)
(0.117909 -0.000365148 -0.000845481)
(0.123496 -0.000129905 -0.000905612)
(0.125105 0.00038645 -2.05563e-05)
(0.12309 0.000277854 0.000152085)
(0.124662 0.0010113 -0.000338665)
(0.116932 -1.58502e-05 -0.00179216)
(0.124738 0.000972784 0.000267787)
(0.124485 -0.000356903 -0.000501295)
(0.115574 0.0003852 -8.48061e-05)
(0.124084 -0.000225686 -0.000550504)
(0.12389 -0.000225525 2.93761e-05)
(0.121703 -0.000304003 0.00147035)
(0.117237 -0.00059343 -0.000954472)
(0.115737 0.000299296 -0.00084847)
(0.121648 0.000298484 -0.000277821)
(0.121462 -9.53375e-06 0.000977995)
(0.122204 -0.000170525 0.000192014)
(0.121397 0.000578645 0.00013511)
(0.120814 0.000510932 0.000770621)
(0.124888 0.000100629 0.000110809)
(0.122398 -4.91528e-05 0.000275854)
(0.122626 0.000464275 0.0003025)
(0.118128 -0.000273986 0.000715009)
(0.125946 -6.54856e-05 -0.00102627)
(0.116498 -0.000223703 4.77711e-05)
(0.121894 0.000672925 -2.33999e-05)
(0.121422 0.000290024 -0.000124616)
(0.121882 -0.00076618 -0.000766166)
(0.123539 0.000504145 -1.84115e-06)
(0.120067 -3.59984e-05 -0.00046975)
(0.116855 -0.000904171 -0.000543535)
(0.115672 -0.000221187 -0.000593258)
(0.117216 -0.000326948 -0.00030828)
(0.121609 -0.000530396 -0.000368987)
(0.123973 0.000702034 0.000222002)
(0.116419 0.000498306 0.00193049)
(0.124655 -0.000149324 -3.17767e-05)
(0.122179 -2.95873e-05 -0.000827033)
(0.125505 -0.000420329 -0.000392323)
(0.116164 6.92408e-05 -0.000764817)
(0.119826 0.000372266 0.00056423)
(0.124178 0.00027451 -0.000949791)
(0.12582 -0.00096585 -5.79576e-05)
(0.124071 0.000404086 -0.000405487)
(0.125188 -0.000228965 -0.000289652)
(0.122473 0.000165314 0.000166379)
(0.121731 0.000443928 0.000183893)
(0.126129 1.65738e-05 0.000222972)
(0.125823 0.000449087 -2.95135e-05)
(0.125521 0.000273129 6.50065e-05)
(0.118467 0.00100755 -0.000499132)
(0.125673 -0.000907403 -0.00074814)
(0.115679 -0.000283958 0.000466337)
(0.125774 0.000723176 9.73116e-05)
(0.12292 5.25264e-05 -0.000176877)
(0.121671 0.000238391 -0.000613446)
(0.117163 0.000962931 -2.10099e-05)
(0.121715 0.00115717 -0.000830691)
(0.11436 -0.000711568 -0.000885759)
(0.124801 0.000382825 -0.000660183)
(0.122234 0.000193998 -0.000278167)
(0.124898 -0.000182558 -0.000274119)
(0.121133 0.000413941 -0.000238777)
(0.120495 0.00121412 -0.000367036)
(0.116414 -0.00032337 0.000780906)
(0.126446 0.000293786 -0.000105789)
(0.117858 -0.000583518 0.00033289)
(0.114764 -0.000296147 -0.000324799)
(0.117659 -0.000186418 -8.25344e-06)
(0.117973 0.00047136 0.000222257)
(0.116952 0.000726946 -0.00011105)
(0.121841 -0.000342391 9.73544e-05)
(0.11672 0.00012237 -0.000116598)
(0.123735 -0.00122092 0.000580092)
(0.124341 2.97085e-05 -0.000441411)
(0.114685 -0.000105389 -6.97308e-05)
(0.123796 0.000249232 -0.000192445)
(0.116811 0.000289642 -0.000766483)
(0.121401 0.000618887 -0.000224944)
(0.122135 0.000305932 -0.000214079)
(0.121906 -0.000339771 -0.000984732)
(0.124504 0.0001469 -6.4475e-05)
(0.126451 0.000313438 -0.000897876)
(0.124613 -6.99629e-05 0.000302763)
(0.123668 4.17067e-05 -5.5342e-05)
(0.123383 -0.000239879 -0.00118242)
(0.124049 0.000322677 0.000150828)
(0.12107 0.000398337 -3.31146e-05)
(0.121626 0.000457804 0.000216479)
(0.115368 0.000539436 -0.00089896)
(0.111015 0.000351009 0.00353981)
(0.125085 7.88333e-05 2.80171e-05)
(0.121781 8.44209e-05 -0.000229194)
(0.124468 -0.000306386 -0.000119545)
(0.12417 -8.67206e-05 0.000269596)
(0.115922 -0.000585254 -5.42788e-05)
(0.125101 -0.000134874 -0.000264673)
(0.125403 0.000608877 0.000117772)
(0.125106 4.76837e-05 0.000157746)
(0.125023 0.000372825 0.000542769)
(0.12333 0.000360966 0.000449015)
(0.122816 -0.000556943 -0.000172482)
(0.124944 -8.59792e-05 0.000158289)
(0.125975 -0.000162476 0.00061777)
(0.122995 0.000305719 0.0003277)
(0.125544 0.000332712 -0.000262302)
(0.125011 -0.000391784 -0.000438465)
(0.118483 -0.000337632 -0.000486167)
(0.125048 -0.000123325 0.000276554)
(0.119138 -0.000227394 0.000535145)
(0.122206 9.48729e-05 -0.000238717)
(0.122094 -0.000924757 0.000117829)
(0.12153 -0.000507991 0.000285431)
(0.121227 0.000722507 0.000128011)
(0.124139 0.000423182 -2.45999e-05)
(0.1216 6.44411e-05 7.02819e-05)
(0.122694 0.000529578 -0.000633755)
(0.121383 0.00124988 -0.000665761)
(0.11579 0.00139225 -0.000984848)
(0.126344 0.000518677 -0.000332708)
(0.124185 0.000673664 -0.000152412)
(0.121088 3.90569e-05 0.000787262)
(0.116466 -0.000399776 1.53635e-05)
(0.124338 -0.000366052 -6.04414e-05)
(0.116046 -0.000590119 -0.000547348)
(0.125287 -0.000326853 0.00013941)
(0.124919 -8.14597e-05 0.000287239)
(0.120368 0.00125974 -0.000595858)
(0.124118 -0.000308788 0.0001928)
(0.125791 0.000114763 -0.000433806)
(0.122936 -0.000496509 -0.00022181)
(0.115475 -5.38343e-05 0.000269057)
(0.121546 0.000148296 0.000342875)
(0.118922 0.000695989 -0.000371363)
(0.121858 0.000252737 -0.000290029)
(0.115942 -0.000509631 -0.000944972)
(0.124027 -9.67132e-05 -0.00040055)
(0.124463 -0.000465624 0.000671781)
(0.119722 0.000838881 -0.000779074)
(0.121633 0.000148416 4.66802e-05)
(0.118839 0.000203342 -0.000531998)
(0.124725 3.21261e-05 -0.000438077)
(0.121242 -0.000740372 7.65894e-05)
(0.122123 0.000531565 0.000538842)
(0.116452 -0.000181692 8.62268e-05)
(0.124841 7.29346e-06 3.62851e-05)
(0.123156 -0.000342176 -0.000115071)
(0.125054 -3.3878e-05 -0.000180517)
(0.119186 0.000477848 -0.000335218)
(0.121594 -5.18616e-05 -0.000318577)
(0.122706 0.000110445 -0.000296591)
(0.120468 -0.000221232 0.000254155)
(0.122952 -6.82683e-05 0.000389652)
(0.122477 -0.00029912 0.000619981)
(0.124481 -0.000406495 0.000123645)
(0.121818 -0.000141269 -0.000123093)
(0.11704 -2.04512e-05 -0.000194833)
(0.114955 -0.000166987 -0.000721664)
(0.123311 -0.000746821 0.0001874)
(0.115874 0.000523423 -0.00132023)
(0.120078 -0.000717694 -0.0014932)
(0.121842 0.00025946 -0.000295717)
(0.121977 0.000310279 0.00016012)
(0.12582 0.000405818 -0.000385512)
(0.115731 6.48465e-05 1.86037e-05)
(0.121057 -0.00012147 -0.000716693)
(0.126291 0.000120316 -0.00046232)
(0.117427 0.000801239 -0.00287526)
(0.117598 0.00134918 7.61028e-05)
(0.121124 0.000223029 -0.000856426)
(0.117383 0.000156185 2.63862e-05)
(0.123744 0.000902577 -0.00100546)
(0.1177 -0.000339265 6.48699e-05)
(0.125749 -0.000840164 -0.000393197)
(0.119542 0.00030328 0.000464071)
(0.12083 0.000607383 0.000501846)
(0.126799 0.00048831 0.00091597)
(0.114968 -0.000107827 0.000569246)
(0.119681 8.06227e-05 0.000382166)
(0.119755 3.22835e-05 0.000583753)
(0.124958 -3.93383e-05 -0.000778989)
(0.125088 2.80415e-05 0.000378501)
(0.125255 4.75548e-05 -0.000109991)
(0.116686 0.00078318 0.000327395)
(0.123901 0.000168488 -0.00023381)
(0.124791 6.57176e-05 0.00104355)
(0.119859 -0.000124044 -0.000291041)
(0.124942 0.000391003 -0.000119527)
(0.124397 0.000439569 0.000219752)
(0.124264 0.000390928 1.02141e-05)
(0.125494 8.90666e-05 -0.000654246)
(0.121749 8.16392e-05 -0.000136137)
(0.126434 -2.52443e-05 0.000467856)
(0.12594 0.000727383 0.000882858)
(0.125167 0.000100287 -0.000756958)
(0.122846 0.000476488 0.000283475)
(0.121044 -0.000258241 -0.000271332)
(0.121898 0.000446631 0.000123737)
(0.121584 0.000188615 -0.000300865)
(0.115226 -0.0009403 -0.000297132)
(0.120678 -0.000220837 0.00015151)
(0.123037 -0.000333471 0.0004291)
(0.124923 -0.000343228 -0.000285809)
(0.125764 -0.000265942 -0.000816701)
(0.120938 -0.000475349 -3.95503e-05)
(0.126343 0.00120299 -0.000261199)
(0.123992 -7.17876e-05 -7.34502e-05)
(0.119911 -0.000685613 0.000484878)
(0.124794 -0.00016894 -0.000426756)
(0.125214 2.67433e-06 -0.000214592)
(0.123925 0.000112936 -0.000633637)