/*--------------------------------*- C++ -*----------------------------------*\
| =========                 |                                                 |
| \\      /  F ield         | OpenFOAM: The Open Source CFD Toolbox           |
|  \\    /   O peration     | Version:  2212                                  |
|   \\  /    A nd           | Website:  www.openfoam.com                      |
|    \\/     M anipulation  |                                                 |
\*---------------------------------------------------------------------------*/
FoamFile
{
    version     2.0;
    format      ascii;
    arch        "LSB;label=32;scalar=64";
    class       surfaceVectorField;
    location    "0.054";
    object      Uf;
}
// * * * * * * * * * * * * * * * * * * * * * * * * * * * * * * * * * * * * * //

dimensions      [0 1 -1 0 0 0 0];

internalField   nonuniform List<vector> 
68568
(
(0.123555 0.000184739 -0.000140175)
(0.122765 0.000547274 -0.000225087)
(0.122438 0.000344502 -3.80535e-05)
(0.125156 0.000782803 -0.000395465)
(0.122653 -0.000470056 -0.00022665)
(0.122645 -0.000511411 -0.000488826)
(0.121315 -0.000482998 4.15344e-05)
(0.114727 -0.000255609 -0.000248756)
(0.124156 0.000205261 0.000341171)
(0.123883 -0.000506784 0.000758835)
(0.122278 -0.000265393 0.000106673)
(0.118142 -0.000687473 0.000790778)
(0.126525 -0.000194681 -0.000204805)
(0.125324 -7.41311e-05 -0.000469155)
(0.126291 -0.000139745 -0.000351093)
(0.126688 -0.000236713 -0.000370565)
(0.120895 -0.000206842 -0.000270319)
(0.124008 -0.000505281 -0.00031416)
(0.120224 -0.000229962 -0.000315821)
(0.123614 -0.00050424 -0.000364777)
(0.123344 -0.000215999 -2.49554e-05)
(0.12174 -0.000125329 0.000143097)
(0.123579 -0.000134388 0.000165079)
(0.116166 -0.000139047 -0.000294867)
(0.122534 -6.79927e-05 -0.000137837)
(0.117622 -0.000229634 0.000215022)
(0.119626 6.36977e-05 -0.000444808)
(0.122635 -0.000111137 -0.000214599)
(0.122397 0.000240282 0.000512951)
(0.124782 0.000110683 0.000108778)
(0.123446 -6.70584e-05 4.28292e-05)
(0.123909 -0.000162356 -0.000376138)
(0.12258 0.000131346 -0.000265944)
(0.122661 0.000340323 -0.000639083)
(0.124702 -0.000253521 -8.0352e-05)
(0.123228 -0.000598662 -0.000342002)
(0.125186 -0.000158144 -0.000561366)
(0.125369 -0.000566711 -0.000406013)
(0.125526 0.000458472 0.000105897)
(0.124108 0.000290229 -2.52501e-05)
(0.12538 0.000261807 -5.97271e-05)
(0.121366 -0.000119827 -0.000531905)
(0.125746 -0.000444799 -0.000765061)
(0.125281 -0.000594407 -0.000683161)
(0.122739 -0.000302825 7.95765e-05)
(0.121582 -0.000525724 -1.05007e-05)
(0.115215 -2.44801e-05 -0.000341365)
(0.125193 -0.000191232 -0.000111985)
(0.125029 -0.000167182 0.000301348)
(0.124078 -0.000209827 0.000221578)
(0.122106 -8.74066e-05 0.000207528)
(0.120294 -0.000344807 2.94091e-05)
(0.122141 -0.000288171 -9.74995e-05)
(0.121335 -0.000257335 1.0118e-06)
(0.114809 -0.000305123 -2.17828e-05)
(0.122768 -0.000464563 0.000850975)
(0.117784 -0.000416491 0.000585898)
(0.119661 -0.000421049 0.000796603)
(0.123127 -0.000344782 0.000288797)
(0.122025 0.000210587 0.000222665)
(0.123066 0.000392609 0.000235975)
(0.122531 0.000336183 0.000185717)
(0.12426 0.00015049 0.000136949)
(0.11789 0.000456715 0.000448115)
(0.118045 -0.000321944 0.000689408)
(0.122209 -5.15397e-05 0.000246355)
(0.122498 -6.04175e-05 -0.000606058)
(0.119681 -0.000487149 -3.17845e-05)
(0.118398 3.03096e-05 -0.00071645)
(0.122978 -0.000282238 -0.000347997)
(0.122459 9.69052e-06 -0.000188426)
(0.124124 -0.000313192 -7.14991e-05)
(0.123638 -0.000504166 7.0869e-06)
(0.117555 -0.00012439 -0.000115058)
(0.117174 -0.000215019 -0.000374586)
(0.119017 6.38629e-05 -0.000321878)
(0.117566 0.000258925 -0.000334404)
(0.10621 -0.00017029 -0.000466267)
(0.124281 -0.000470263 -0.000559789)
(0.125825 -0.000230408 -0.000652275)
(0.124862 -0.000348994 -0.000650548)
(0.12534 -0.000380554 -0.000756227)
(0.124651 0.000364679 -0.000223813)
(0.124763 0.000471685 -0.000113688)
(0.122315 0.000482457 1.59525e-05)
(0.12556 0.000541723 -0.000246393)
(0.119079 0.000326565 -0.000306222)
(0.119513 -0.000108568 -0.000305259)
(0.122394 0.000181412 -0.000457084)
(0.122855 7.05983e-05 -9.84722e-05)
(0.116835 -6.25223e-05 5.6165e-05)
(0.121446 -0.000177795 -0.000115631)
(0.118856 0.000201969 -0.000527243)
(0.121477 -0.000180036 0.00024919)
(0.122089 -6.39525e-05 -7.9518e-05)
(0.122103 -0.000505527 0.000180813)
(0.124313 -0.000353547 0.000797316)
(0.12212 -0.00012339 -0.000336738)
(0.123659 -0.000203463 -0.000206878)
(0.117111 -0.000154484 0.000253893)
(0.124549 0.00123458 0.000381777)
(0.12211 0.00144355 -0.000384633)
(0.124162 0.00145698 0.000201588)
(0.122299 0.00108664 -0.000752386)
(0.123451 0.000123724 0.000499119)
(0.116922 0.00039995 -0.00025366)
(0.118924 0.000487603 0.000189738)
(0.125278 6.05958e-06 0.000397443)
(0.124363 -0.000201864 0.000336924)
(0.125369 -0.000119173 0.000382465)
(0.125867 -0.00030531 -0.000180334)
(0.123868 -6.26427e-05 3.18958e-05)
(0.126034 -0.000244615 -0.00014404)
(0.123302 -0.000145647 -0.000166433)
(0.122033 -0.000159315 -0.000231688)
(0.122118 -8.78159e-05 -0.000378896)
(0.118172 0.000386666 -6.89952e-05)
(0.11766 -0.000275309 0.000337044)
(0.124783 0.00032634 -0.000471215)
(0.124013 3.58176e-05 -0.000271535)
(0.125057 2.39937e-05 -0.000434173)
(0.12542 3.40838e-06 -0.000255886)
(0.119225 -0.00012398 -0.00023118)
(0.117968 -0.000243612 0.000133091)
(0.122807 -0.000194466 5.4116e-05)
(0.123014 8.30683e-06 0.000151027)
(0.119451 0.000420299 0.000309749)
(0.116986 0.000284077 0.000312145)
(0.11695 0.000171891 -6.08225e-05)
(0.107141 0.000143133 0.000283097)
(0.12524 0.000456173 -3.16524e-05)
(0.116705 -6.53589e-05 -0.000110351)
(0.116986 -0.000540847 -0.000261412)
(0.114356 -0.000292004 6.73807e-05)
(0.106418 -0.000339756 -6.46501e-05)
(0.125799 -0.000508735 0.000275614)
(0.125824 -0.000658537 0.000152548)
(0.126015 -0.000243228 0.000426741)
(0.12528 -0.000647111 0.000267057)
(0.123437 -0.000308226 0.000330271)
(0.12353 -0.00036987 0.000565297)
(0.125201 -0.000421434 0.000609927)
(0.115504 0.000577638 -0.000529099)
(0.116863 -0.00034155 -9.389e-05)
(0.107497 4.75459e-05 -0.000143916)
(0.120622 -0.000101865 -8.41035e-05)
(0.117801 -0.000105564 -0.000380467)
(0.107552 0.000139264 -0.000501485)
(0.118877 -0.000275194 6.22398e-05)
(0.118897 -0.000564758 -0.000172126)
(0.11998 -0.000497901 -0.000159708)
(0.106834 -0.000372027 7.42332e-05)
(0.124946 -0.000256321 0.000188988)
(0.122649 -0.000240441 8.17137e-05)
(0.1244 -0.000359624 -0.000523434)
(0.125493 -0.000894353 -0.000440604)
(0.124057 -0.000797139 -0.000787076)
(0.125703 -0.000586131 -0.000919195)
(0.124792 -0.000605992 0.000623783)
(0.125264 -0.000780528 0.000229606)
(0.124599 -0.000375128 0.000333654)
(0.125987 -0.000680389 -0.000227112)
(0.124423 -0.000758071 -2.71479e-05)
(0.123751 -0.000446777 -0.000340559)
(0.125879 -0.000309182 -0.000517214)
(0.121456 5.17802e-05 -0.000349941)
(0.119443 0.000620172 -0.000511784)
(0.113619 -1.74851e-05 -0.000370877)
(0.123281 0.000393452 -0.000453731)
(0.123632 2.29255e-05 -0.000332929)
(0.120777 0.000253198 -0.000743781)
(0.119286 0.000138226 -0.000228156)
(0.121675 -0.000220166 0.000253433)
(0.121409 3.74196e-06 5.4576e-05)
(0.123758 1.33972e-05 -0.000269439)
(0.122554 -0.000210687 0.00013601)
(0.125191 -0.000134976 -0.000336636)
(0.123672 -0.000331731 -0.000582546)
(0.123931 9.62093e-06 -0.000487207)
(0.125829 8.62328e-05 -0.000899201)
(0.1263 -0.000151652 -0.000441065)
(0.119497 -0.000343859 -0.000607934)
(0.116946 -2.15641e-06 -0.000294389)
(0.117799 -2.04495e-05 -0.00019434)
(0.10581 -2.11509e-05 -0.000378862)
(0.12423 0.000748885 0.000208377)
(0.123473 0.000637024 0.000293811)
(0.125067 0.00071044 0.000247483)
(0.124635 0.000540348 0.00012742)
(0.116228 -0.000519963 0.000161247)
(0.107085 -0.000188455 0.000457193)
(0.120383 -0.00021942 -0.000280654)
(0.120251 -0.000493627 -1.13798e-05)
(0.123779 -0.000282678 -0.000315858)
(0.123828 -0.000393887 -8.01032e-05)
(0.121103 0.00028487 0.00015625)
(0.121799 0.000133574 0.00012298)
(0.123883 -8.35293e-05 -0.000125096)
(0.118955 -0.000104075 -0.000723798)
(0.117477 -9.38662e-05 -0.000319281)
(0.119186 0.000111499 -0.00011052)
(0.106893 0.000358768 -0.000228656)
(0.124111 0.000123768 0.000477549)
(0.123593 -0.000242966 0.000122276)
(0.122361 -1.92802e-05 0.000438918)
(0.11753 3.40987e-06 0.000364976)
(0.123696 -0.000258565 0.000191752)
(0.122241 8.68928e-05 0.000493828)
(0.123681 -6.42047e-05 -4.62005e-06)
(0.116376 9.34421e-05 0.000279849)
(0.11665 4.81043e-05 -0.000167226)
(0.11685 0.000532619 -0.000173513)
(0.107823 0.000214629 -0.000140262)
(0.122663 -0.000534735 -0.000557358)
(0.122325 -4.72695e-05 -0.000390876)
(0.122577 -0.000175005 -0.000223502)
(0.124695 0.000365905 7.39409e-05)
(0.123213 0.000443293 0.000133917)
(0.125474 0.000138579 -0.000177876)
(0.123917 0.000227805 -0.000243867)
(0.12239 -0.000209137 -0.000390011)
(0.119385 -0.000297987 -0.000518553)
(0.119427 -0.000282574 -0.000276642)
(0.107822 -0.000350976 -0.000180644)
(0.123568 -0.000158583 -0.000168294)
(0.123662 -2.56152e-05 5.95085e-05)
(0.115623 -4.26061e-05 -0.000284443)
(0.122087 0.000166947 0.000121596)
(0.122423 0.000437338 0.00026875)
(0.124032 0.000497002 0.000325861)
(0.122569 0.000464636 0.0004134)
(0.125784 -0.000181967 -0.000604481)
(0.126116 -0.00023933 -0.000497833)
(0.125991 -0.000377108 -0.000433901)
(0.125447 -0.000278343 -0.000359202)
(0.12173 0.000221224 -0.00109246)
(0.124161 9.243e-05 -0.00092885)
(0.12485 -0.000369514 -0.000745358)
(0.121969 -0.000484188 3.40708e-05)
(0.123481 -0.000283779 3.98459e-05)
(0.121911 -0.000132208 0.000256309)
(0.116679 -4.22333e-05 -0.000238296)
(0.11927 -0.000971986 -0.000545875)
(0.119951 0.000311408 -0.000455347)
(0.106956 -6.87014e-05 -0.000476274)
(0.12566 0.000289847 6.94737e-05)
(0.126074 0.000232328 -0.000315423)
(0.125703 2.40249e-05 -9.06871e-05)
(0.126301 6.49368e-05 -0.000475554)
(0.124684 0.000294268 0.000154332)
(0.122394 0.000301226 0.00025326)
(0.123743 0.000113829 0.000296966)
(0.123787 0.000185495 -5.42451e-05)
(0.1195 0.000198723 -0.00121418)
(0.118861 0.00030044 -0.000572177)
(0.120652 0.000168295 -0.000869955)
(0.110305 -0.000600618 -0.000865904)
(0.122713 -0.000279531 -0.000669716)
(0.122808 -0.000305771 -0.000883014)
(0.125051 -0.000314311 -0.000475713)
(0.124659 -0.000270555 -0.000623982)
(0.124168 -0.000292435 -0.000199086)
(0.12234 -0.000427753 -0.00036823)
(0.122361 -2.29974e-05 -7.89093e-05)
(0.117026 3.5438e-05 -0.00061833)
(0.124367 0.000687324 0.00030618)
(0.123867 0.000753275 7.25203e-05)
(0.122791 0.000517435 -0.000108235)
(0.117125 3.99633e-05 -0.000636784)
(0.116581 0.000220862 -0.000384552)
(0.118591 0.000389044 -0.000633706)
(0.106226 0.000441501 -0.000104828)
(0.124769 -0.0005949 -0.000110372)
(0.124379 -0.000600685 0.000165841)
(0.126042 -0.000490884 7.46524e-05)
(0.119938 0.00107518 -0.000609568)
(0.123591 -8.58865e-06 -0.000436811)
(0.122976 0.000130915 -0.000446323)
(0.121889 -0.000327251 0.000533223)
(0.122388 -4.36817e-05 0.000278018)
(0.12285 -1.13647e-05 0.000382821)
(0.115646 -0.000162536 0.000367522)
(0.119272 -0.000243147 -0.000139157)
(0.124663 -5.67672e-05 0.000105688)
(0.122315 0.000204288 0.000109828)
(0.124607 0.000423389 -7.58938e-05)
(0.117447 0.000304485 -0.000364525)
(0.121713 -0.00017739 -0.000151016)
(0.121987 -8.76772e-05 -2.8954e-05)
(0.114109 -0.000180775 -0.000346672)
(0.115294 -0.000139866 0.000252724)
(0.114931 -0.000421283 0.000102312)
(0.107 -0.000281252 0.000126339)
(0.125995 -9.32353e-05 0.000204411)
(0.123883 -0.0001672 -0.000121931)
(0.125897 -0.000380259 0.000179719)
(0.124975 -0.000587338 0.000225042)
(0.12466 -0.000496401 -0.000330906)
(0.124172 -3.09878e-05 -0.000188797)
(0.123965 -7.7074e-05 -0.000319067)
(0.116154 -0.000151486 7.19901e-06)
(0.121608 -0.000337714 -8.34222e-05)
(0.123836 -0.000358246 -0.000106959)
(0.124374 -0.000174994 -0.000170122)
(0.121579 -8.83103e-06 0.000145175)
(0.125799 -0.00026223 -0.000162416)
(0.123617 -0.00020058 -0.000315774)
(0.12382 1.29021e-06 1.05966e-05)
(0.125765 -0.00033293 -6.85274e-05)
(0.125814 -3.64971e-05 0.000199658)
(0.125346 -0.000262548 2.53057e-05)
(0.126156 -0.00022756 -0.000161129)
(0.123896 -0.000171676 -0.00027764)
(0.123597 -0.000289984 -0.000505289)
(0.125668 -0.000122129 -0.000633234)
(0.116925 0.00140896 -0.000976895)
(0.120445 0.000106772 -0.00140039)
(0.119233 0.000553365 -0.00089673)
(0.104549 3.09115e-05 -0.000337027)
(0.124366 -0.000120946 -0.000269332)
(0.12434 -0.000227195 -0.000338349)
(0.125795 -0.000152359 -0.000571333)
(0.122736 -0.000313199 0.000196645)
(0.124563 -0.000243937 3.59915e-05)
(0.116099 -0.000113655 -0.000115391)
(0.119666 -0.000307896 -3.29889e-06)
(0.119128 -1.76358e-05 2.40875e-05)
(0.122836 -0.000338628 0.000266672)
(0.122638 -0.000392849 -0.000139189)
(0.118521 -0.000398673 -0.00107239)
(0.11914 -0.000576539 -0.000202436)
(0.105989 -0.000384068 -0.00021256)
(0.119848 0.000582815 -0.000857989)
(0.121863 0.000356541 -0.000999284)
(0.114658 -0.000256564 -0.000497533)
(0.118514 -0.000630638 -9.40216e-05)
(0.122096 -0.000720645 -0.000184607)
(0.118074 -0.000479157 -0.000477518)
(0.121872 -0.000480811 -0.000258346)
(0.123227 0.000381892 0.000201934)
(0.122998 0.00075802 4.21025e-05)
(0.120933 0.00105946 0.00064643)
(0.117108 0.000521765 0.000455576)
(0.121229 0.000257899 -0.00029766)
(0.122199 -8.11226e-05 -0.000288915)
(0.124414 0.000214042 -0.0001538)
(0.124675 -0.00030456 -8.57767e-05)
(0.124204 -0.000263346 -2.39591e-05)
(0.115913 -0.000238489 -2.27102e-06)
(0.121707 7.3202e-05 0.000407347)
(0.121166 0.000379342 0.000345159)
(0.122817 5.98501e-05 0.0003293)
(0.115459 4.52675e-05 -0.000118006)
(0.118136 -0.00105972 0.000122156)
(0.118605 -0.000479534 -6.11802e-05)
(0.117457 -0.00122942 -0.000433195)
(0.106381 -0.000858006 0.000156386)
(0.123573 0.00043042 0.000320932)
(0.123872 5.39792e-05 0.000284551)
(0.121899 0.00041039 -0.000158261)
(0.124078 6.66331e-05 -0.000142731)
(0.123647 0.000137594 0.000247332)
(0.121854 -9.51997e-05 0.000523607)
(0.121658 0.00052517 0.000471493)
(0.120053 -0.000464369 -0.000420245)
(0.115071 -3.81008e-05 -0.00014705)
(0.11684 -3.70706e-05 -0.000219516)
(0.118855 -0.000384068 -0.000338251)
(0.117868 0.000157874 -0.000374268)
(0.106829 -4.43042e-05 9.02188e-05)
(0.119374 -4.71788e-05 -0.000303375)
(0.106248 -1.74689e-05 -0.000328882)
(0.124014 -0.000451794 -3.71396e-05)
(0.126086 -0.000233443 0.000267831)
(0.12618 -0.000316337 -0.000124412)
(0.108153 -1.09832e-05 0.000248138)
(0.117708 -0.000729726 -0.000739813)
(0.119002 -0.000561298 -0.000297566)
(0.118471 -0.000996523 -0.000718398)
(0.105645 -0.000419659 -0.00102935)
(0.117531 0.000638713 -0.000235387)
(0.121344 0.000383228 -0.000112276)
(0.116812 -0.00054821 0.000737197)
(0.115507 -0.000167491 0.000346709)
(0.117581 6.53672e-05 0.000729807)
(0.106503 -0.000469132 0.000321554)
(0.124405 -0.0012622 0.000403477)
(0.121772 -0.00129922 0.000693862)
(0.122219 -0.00119794 0.00052841)
(0.124346 -0.00121698 0.000242511)
(0.120789 -0.000405788 -0.00067836)
(0.119531 -0.000340073 -0.000250439)
(0.118574 -0.000169677 -0.000265946)
(0.106078 0.000143486 -0.000307371)
(0.123395 0.000448099 -3.1938e-05)
(0.122262 0.000300781 -9.50695e-05)
(0.122928 -0.000365155 -4.29196e-05)
(0.117446 0.000215823 -0.000304405)
(0.119519 -0.000514046 -0.000466765)
(0.119451 -0.000522454 -0.000629367)
(0.122582 -0.000581661 -0.000597851)
(0.1235 4.01311e-05 -0.000747574)
(0.123285 0.000123519 -0.00076785)
(0.12206 3.72554e-05 -0.000764271)
(0.115262 0.000392055 -0.000861581)
(0.118497 -8.89586e-05 5.95082e-05)
(0.116597 -0.000443811 7.59586e-05)
(0.117641 -0.000617451 0.000454694)
(0.106288 -0.00045536 -6.43411e-05)
(0.123485 0.00062604 0.000421092)
(0.119235 0.000504743 -0.000281698)
(0.119029 -0.000298385 -4.12422e-05)
(0.123113 -0.000834789 -0.000118393)
(0.119152 -0.000559445 -3.3804e-05)
(0.122884 -0.000756196 0.000225167)
(0.123743 0.000141811 0.000257608)
(0.123528 0.000121966 0.000167075)
(0.123707 0.000119104 0.000141995)
(0.123292 5.87133e-05 0.000190582)
(0.12348 -0.000317817 -8.33656e-05)
(0.116511 -0.000323431 5.40277e-05)
(0.122582 -0.000345086 -0.000363846)
(0.123094 1.3285e-05 -0.000576368)
(0.124539 0.000100395 -0.00033426)
(0.122185 -0.000210229 -0.000152776)
(0.122766 -0.000307904 0.000280305)
(0.124685 -0.000140915 0.000113195)
(0.125468 -0.000321548 7.28875e-05)
(0.123415 -7.02568e-05 -0.000600626)
(0.12331 -9.63961e-05 -0.000490346)
(0.12581 -3.66145e-05 -0.000618966)
(0.122313 0.000263328 -0.000505646)
(0.124276 0.000206155 -0.00036515)
(0.124672 -0.000253598 -0.000722896)
(0.120585 -0.000833058 -0.000235547)
(0.125512 2.95572e-05 -0.00065265)
(0.123084 -0.000541931 0.000287133)
(0.124859 6.97427e-05 0.000464571)
(0.124722 -0.000122107 0.000197502)
(0.124879 -0.000377595 0.000214618)
(0.122745 8.24417e-05 0.000218775)
(0.12359 -0.000180313 0.000345996)
(0.115324 -4.14184e-05 0.000142228)
(0.117598 -0.000108723 -0.000605347)
(0.11766 -0.00035858 -0.000262182)
(0.11835 -0.000762198 -0.000386134)
(0.121858 -0.000688267 -0.000445218)
(0.12247 -0.000536424 -0.000455075)
(0.12298 -0.000397532 0.000264422)
(0.122711 -0.000324628 3.63993e-05)
(0.125301 -0.00025097 -0.00025061)
(0.125256 -0.000227389 9.45927e-05)
(0.12431 8.73885e-05 -0.000156549)
(0.12275 -0.000159585 -0.000382432)
(0.122304 0.000265313 -6.9127e-05)
(0.124311 0.000426019 6.9662e-05)
(0.123945 0.000260674 -0.000443622)
(0.125547 -0.000106531 -0.000766042)
(0.124544 2.06157e-05 -0.000292968)
(0.125424 -0.000246221 -0.000661371)
(0.124045 -0.000543234 -6.7933e-05)
(0.122882 -0.000385176 -4.52623e-05)
(0.121548 -0.00106654 0.000195232)
(0.124512 -0.000791026 8.56594e-05)
(0.124037 -0.000153332 8.41847e-05)
(0.120197 -0.000170881 -0.000341234)
(0.124877 -0.000200328 3.05246e-05)
(0.120062 8.76772e-05 -0.000710665)
(0.125068 -2.50745e-05 4.74402e-06)
(0.125862 -0.000203726 -0.000413378)
(0.124656 -3.22939e-05 -0.000231802)
(0.124028 -4.9279e-05 0.000355059)
(0.115614 -1.18654e-05 -7.75436e-05)
(0.11699 -0.000243532 -0.000423518)
(0.10773 -0.000104993 -0.000253987)
(0.117617 -0.000661522 -0.000969469)
(0.10618 -0.000291865 -0.000260651)
(0.125768 0.000206383 0.000752874)
(0.123513 0.000220782 0.000229219)
(0.122059 -0.000583582 -0.00048179)
(0.115565 -0.000364522 -0.000368267)
(0.123609 -0.000245321 -0.000810682)
(0.123286 -0.000241575 -0.000622237)
(0.121897 -0.000386883 -0.00030729)
(0.115041 -0.000373607 -0.000424836)
(0.125385 0.000301301 0.000743594)
(0.125429 0.000114526 0.00079181)
(0.125574 0.000191433 0.00066413)
(0.124534 0.000363066 0.000737157)
(0.123433 0.000609179 0.000354606)
(0.123608 0.000301335 0.000244893)
(0.125032 0.000371077 0.000299759)
(0.11667 -0.000249551 -0.000419535)
(0.118636 -9.38307e-05 -0.000222376)
(0.105778 -0.000358239 -0.00042054)
(0.119625 0.000234546 -0.000338819)
(0.118217 -0.000127815 -0.000250394)
(0.117546 0.000312547 -0.000323192)
(0.106792 -6.28568e-05 -0.000712842)
(0.125111 -0.000149074 0.000115564)
(0.1235 -0.000295702 -0.000399889)
(0.125117 -0.000463019 -9.3913e-05)
(0.122146 4.40714e-05 -0.000139094)
(0.123913 -6.60729e-05 -0.000229098)
(0.118036 -0.00036645 -0.000499247)
(0.118797 -0.000210085 -0.000620052)
(0.106601 -0.000401874 -0.000379374)
(0.119636 -0.000364533 -0.000116958)
(0.117204 -9.79965e-05 3.03968e-05)
(0.116739 2.25749e-05 0.000290125)
(0.107746 -0.000105742 0.00016867)
(0.125804 -0.000722044 0.000263522)
(0.123746 -0.000438281 0.000548398)
(0.123582 -0.000493589 0.000163114)
(0.125628 -0.000471992 -5.71145e-06)
(0.119175 -0.000113291 -0.00134877)
(0.118898 -1.95251e-05 -0.000904537)
(0.122135 -0.000280118 -0.000879308)
(0.106865 -0.000327095 -0.00120031)
(0.121935 0.000140644 0.000138189)
(0.122356 -0.000417222 0.000183672)
(0.122739 -0.00017864 0.000144263)
(0.115988 -0.000436498 0.000203809)
(0.119624 -0.000785669 -0.000471469)
(0.123249 -0.000447126 -0.000669183)
(0.12305 -0.000188112 -0.000872573)
(0.12367 -8.15119e-05 -8.05667e-05)
(0.125488 -0.000139331 0.000131102)
(0.124489 0.000122047 0.000410517)
(0.120461 0.00014948 -0.00122619)
(0.1178 0.000399164 -0.00090106)
(0.119842 0.000822874 -0.000911395)
(0.105179 -0.000430264 -0.000918798)
(0.126841 -8.06999e-05 6.07055e-05)
(0.126487 -0.000279997 -3.67048e-05)
(0.124905 3.50584e-05 -8.04069e-05)
(0.126574 2.43854e-05 -2.93597e-05)
(0.124735 -0.000218143 -0.000459547)
(0.121767 -0.000210147 -0.000309567)
(0.121158 -0.000109349 -0.000738375)
(0.124393 -0.000326434 -0.000203173)
(0.12043 -0.00103073 -0.000381964)
(0.120799 -0.000956622 -7.12893e-05)
(0.106653 -0.000290117 -0.00056292)
(0.119198 -0.000670258 0.00095769)
(0.117961 -0.0002897 0.000989827)
(0.11989 -0.000535817 0.000725789)
(0.105224 0.000122073 0.000192766)
(0.122789 -0.000334529 4.95654e-05)
(0.117375 -0.000289405 7.94835e-05)
(0.119888 -0.000292118 -0.000706248)
(0.126511 -0.000214892 -0.000209105)
(0.124748 -0.000192241 -0.000345422)
(0.117684 0.000291977 0.000212811)
(0.116708 0.000163627 0.000258155)
(0.118778 -0.00013243 -0.000216416)
(0.105507 -0.00015907 0.000157275)
(0.12022 -0.000152383 -0.000791746)
(0.120019 0.000437513 -0.000523739)
(0.106779 -0.000400401 -0.000900773)
(0.117204 -0.000205971 0.000326368)
(0.119886 -0.000124868 0.00030115)
(0.117553 -0.000579613 0.00012933)
(0.107379 -0.000339904 0.000106192)
(0.1172 -0.00101626 -0.000456814)
(0.120488 -0.000634198 0.000209611)
(0.118351 -0.000979696 -0.000260913)
(0.104976 -0.000503016 -0.000407492)
(0.120158 0.000648051 -0.000618686)
(0.121718 0.000361155 -0.000105479)
(0.122136 0.000189981 -0.000442581)
(0.11486 0.000462974 -0.000370136)
(0.118392 0.000288041 0.000226781)
(0.117507 0.000243496 0.000374027)
(0.107365 -2.97776e-05 0.000289252)
(0.125282 -0.000515053 -1.24273e-05)
(0.124816 -0.00033828 0.000148171)
(0.125723 -0.000488362 -1.76908e-05)
(0.125326 -0.000432505 0.000176356)
(0.12347 -0.000354084 0.000236544)
(0.123695 -0.000268308 1.00987e-05)
(0.125809 -0.000338514 0.000313441)
(0.12608 -0.000350456 0.000255651)
(0.116065 0.000164225 -0.00116501)
(0.116164 0.000120226 -0.000493007)
(0.118375 0.000232398 -0.000861062)
(0.108268 -0.000254394 -0.000594073)
(0.119078 -0.000465727 0.000565636)
(0.119098 -0.00146106 -0.00020955)
(0.119538 -0.000782323 0.000202314)
(0.111016 -0.000627236 -6.75691e-05)
(0.120882 0.000991039 -6.30568e-05)
(0.122958 0.000637831 -0.000332295)
(0.122984 0.0005969 -0.000588696)
(0.116636 0.000244241 -0.000605018)
(0.119436 9.82493e-05 0.000150957)
(0.116712 -3.05783e-05 -2.69869e-05)
(0.116038 -0.000187394 -0.000211478)
(0.107228 0.000220104 -7.37353e-05)
(0.123835 -6.08032e-05 0.000487656)
(0.116803 4.6065e-05 -3.40379e-05)
(0.124151 -0.000533847 -0.000372444)
(0.125383 -0.000154389 -0.000354861)
(0.12432 -0.000163067 -0.00024045)
(0.124309 -0.000175811 -0.000318967)
(0.122194 0.000422436 0.000109643)
(0.12093 0.000312056 0.000230284)
(0.116447 0.000426609 0.000322941)
(0.12487 0.00021116 -0.000104282)
(0.12379 0.000269482 0.0003522)
(0.124505 0.000189777 0.000187623)
(0.124516 0.000367695 0.000309976)
(0.124218 -0.000161123 -7.48395e-05)
(0.124194 -0.000490838 -0.000163804)
(0.115983 -0.000280756 -0.000144495)
(0.122315 -0.000311336 -0.00014505)
(0.120933 -0.00043585 0.000106462)
(0.122266 -0.000460642 0.000210568)
(0.113958 -0.000205931 -0.000225782)
(0.12233 -2.85045e-05 1.31786e-05)
(0.122705 0.000235268 0.00012464)
(0.115528 0.000177666 0.000281307)
(0.118585 -0.000473045 0.000667952)
(0.122576 -0.000512763 0.000388364)
(0.122851 -0.000743415 0.000650521)
(0.120246 -4.16974e-05 0.000264152)
(0.121853 -0.000337117 -9.89212e-05)
(0.122097 -0.000346283 0.000111155)
(0.115436 -0.000193866 0.000209684)
(0.118848 0.000332356 -0.000180934)
(0.116063 0.000183236 -0.000537981)
(0.106076 0.000851145 -0.000531904)
(0.124176 -0.000301012 -3.72926e-05)
(0.125651 -0.000334743 -9.04655e-05)
(0.126289 0.000260674 -0.000179581)
(0.122496 8.81212e-05 0.000451012)
(0.123234 2.08291e-05 0.000623644)
(0.11552 -0.000300338 0.000818287)
(0.124483 0.00024972 4.92435e-05)
(0.125158 -0.000119076 6.65577e-05)
(0.125 0.00020285 -0.000111807)
(0.125249 0.000213251 -9.02686e-05)
(0.119136 -8.91975e-05 -6.84935e-05)
(0.119929 -0.000148954 0.0002156)
(0.119259 -0.000374253 3.86156e-05)
(0.105967 0.000108242 0.000143399)
(0.116809 4.49882e-05 0.000429)
(0.116619 -0.000189555 0.000445265)
(0.118106 -7.56401e-05 0.000662006)
(0.106238 -0.000242866 0.000391973)
(0.124057 -0.000298232 -0.000225601)
(0.124879 -0.000127077 0.000260488)
(0.125758 -0.000432747 2.33048e-05)
(0.125419 -8.16463e-05 0.00022633)
(0.123912 -0.00037254 -0.000361382)
(0.125138 8.2762e-05 -0.000491335)
(0.123462 0.000205458 -0.000359187)
(0.121043 -0.000258717 0.00071076)
(0.123279 -0.000313665 0.000134845)
(0.1229 -0.000175996 0.000234158)
(0.121602 -0.000234727 0.000793511)
(0.121354 -9.57259e-05 0.00018363)
(0.123248 -0.000409701 9.68286e-05)
(0.115946 -0.000125387 0.000320678)
(0.123683 -0.000401504 -0.000713729)
(0.123848 -0.000111936 -0.000635222)
(0.121499 -0.000193529 -0.000351963)
(0.115488 0.000118057 -0.000636028)
(0.123559 -0.000218876 -0.000843999)
(0.119694 -0.000291732 -0.000788092)
(0.123428 1.40645e-05 -0.000711764)
(0.119441 0.000393706 0.000297664)
(0.123272 0.000546067 0.00044682)
(0.120492 0.000268196 0.000653573)
(0.123713 0.000380762 0.000246414)
(0.125059 0.000307253 -0.000559469)
(0.122037 0.000440149 -0.000548773)
(0.122709 2.20635e-06 -0.000797563)
(0.119623 -5.15257e-05 -5.59327e-05)
(0.106823 -0.00020025 -0.000358255)
(0.118785 -3.20382e-05 -8.42115e-05)
(0.122237 -0.000280547 -9.65897e-05)
(0.125691 0.000172246 0.00019195)
(0.125455 -0.000175911 0.000125264)
(0.125106 2.63309e-05 0.000404345)
(0.125522 -0.000119632 0.000486402)
(0.124248 -0.00050226 0.000216564)
(0.124386 -0.000599648 0.000109511)
(0.124074 -0.000426219 0.000146231)
(0.124312 -0.000488634 -1.84448e-05)
(0.12463 -0.000306098 0.00026224)
(0.124217 -0.000551031 0.000222631)
(0.122497 -0.000361628 0.000558966)
(0.120488 -0.00135233 -0.000160942)
(0.1232 -0.00143143 -0.000468156)
(0.122155 -0.00103543 -0.000683216)
(0.120459 -7.88692e-05 -0.000282567)
(0.120105 0.000348771 -0.000477529)
(0.115527 0.000113737 0.000315396)
(0.12399 3.39791e-05 -0.000436924)
(0.116685 -0.000240163 -0.000331354)
(0.120463 0.000560108 -0.000550842)
(0.120682 0.00064553 -0.000781516)
(0.121996 0.000191942 -0.000598956)
(0.114927 -0.00011681 -0.000537941)
(0.125364 0.000219901 -0.00043321)
(0.123736 0.000338955 -0.000473511)
(0.124334 0.00014656 -0.000675367)
(0.106873 9.36024e-05 -0.000187962)
(0.121959 0.000124826 -0.000292904)
(0.1163 -0.000130561 -0.000176365)
(0.119718 0.000159717 -3.59756e-05)
(0.122741 0.000105639 0.000297483)
(0.119317 0.000160573 -0.00015645)
(0.123026 0.0004717 5.71363e-05)
(0.123444 9.33605e-05 -0.000190962)
(0.122876 9.43133e-05 -0.000392172)
(0.121857 0.000107047 -2.39739e-05)
(0.117486 0.000355653 -0.000213216)
(0.125578 -0.000141992 -0.000420228)
(0.123846 -0.000226702 -0.000588877)
(0.125106 -0.000320475 -0.000559182)
(0.123669 -0.000495619 -0.000378673)
(0.123317 -0.000675101 -0.000455283)
(0.125446 -0.000539095 -0.000255699)
(0.1245 -0.000552944 -0.000113454)
(0.125045 0.000115174 -0.000412911)
(0.125315 -0.000137012 -0.000279866)
(0.118152 -0.000706715 -0.000427044)
(0.119273 -0.000907158 -0.000448882)
(0.105836 1.13916e-06 -0.000403293)
(0.121802 -0.000882784 0.000299431)
(0.122309 -0.000287563 0.000108072)
(0.125451 -0.000391734 -0.000160033)
(0.122808 -0.000192419 -0.000272603)
(0.125667 -0.000410406 -0.000249585)
(0.124875 -9.18579e-05 0.000281693)
(0.124677 3.98378e-05 -6.32979e-05)
(0.123979 0.000281201 0.000288946)
(0.120304 -0.000322089 -0.000506486)
(0.124409 -0.0003773 -0.000620489)
(0.11435 7.51645e-05 9.20129e-05)
(0.116629 -0.000372376 0.000670009)
(0.116189 -0.000579562 0.00022369)
(0.104087 -0.000616688 0.000309552)
(0.123669 -0.000297188 -0.000104754)
(0.122467 -0.000424208 0.000364991)
(0.116854 -0.000293666 0.00105035)
(0.116911 -0.0011796 -0.000333191)
(0.107658 -0.000698838 -0.000181782)
(0.12196 0.000334449 -0.000118509)
(0.12227 0.000454907 0.000298293)
(0.103289 0.000142858 -0.000230877)
(0.123003 -0.000200333 0.000332446)
(0.125649 -0.000368935 0.000254404)
(0.117752 -0.000471037 0.00040666)
(0.120641 0.000325147 0.000386444)
(0.121494 -0.000464831 0.000143717)
(0.118429 0.000528653 -0.000225842)
(0.118594 0.000227499 -0.000243761)
(0.11908 0.000471575 -0.000604993)
(0.105791 1.81989e-05 -9.01002e-05)
(0.122951 -3.67124e-05 9.61396e-05)
(0.122266 5.87975e-06 6.27601e-05)
(0.121762 -4.24307e-06 0.000169439)
(0.124164 0.0008304 -0.000333708)
(0.125083 0.000899319 -0.000295584)
(0.122069 0.00017978 -0.000233582)
(0.122961 0.000141026 -0.000406346)
(0.125165 -0.000790904 -0.000141504)
(0.124609 -5.34927e-05 0.000304692)
(0.119432 -0.00057154 -4.76999e-06)
(0.119207 -0.000324107 -9.39913e-05)
(0.105065 -0.000367134 0.000167042)
(0.117918 -0.000982189 0.00033632)
(0.116441 -0.000658649 0.000749593)
(0.107144 -0.000630362 0.000264225)
(0.124377 -0.000577773 0.000407299)
(0.122576 -6.33198e-05 0.000631827)
(0.123686 -0.000423376 0.00070333)
(0.122242 -0.000224243 0.000129025)
(0.124975 5.89976e-05 -0.00063342)
(0.125733 -6.61813e-05 -0.000592616)
(0.123474 8.43518e-05 -0.000396474)
(0.118539 0.00050331 0.000138831)
(0.119484 6.75445e-05 8.10942e-05)
(0.104804 0.000278401 -0.000534338)
(0.12504 -0.000567578 0.0001308)
(0.124958 -0.000577325 0.000409479)
(0.124882 -0.000341215 0.00028916)
(0.121536 -0.000140848 -0.000182498)
(0.119142 1.50423e-05 -0.000496457)
(0.107433 -0.000120642 -0.000355895)
(0.116906 -0.000283255 0.00025967)
(0.116909 -0.000565906 8.20966e-05)
(0.107729 -0.000346924 -4.15542e-05)
(0.121484 0.000262103 -0.000493302)
(0.121063 0.000240884 -0.000355997)
(0.122754 0.000334388 -0.000200978)
(0.115915 -0.00023579 -0.000392747)
(0.122364 -0.000404452 -0.000305717)
(0.124239 -0.000591293 0.000110657)
(0.122077 -0.000303061 0.000519466)
(0.123739 -0.000435706 0.000111165)
(0.120173 -0.00123971 0.00016794)
(0.121891 -0.000911613 -4.97412e-05)
(0.122167 -0.000733198 -0.000143687)
(0.114331 -0.000888923 -0.000272185)
(0.11708 -0.000372343 0.000618434)
(0.121284 8.14978e-06 0.000590372)
(0.119936 0.000144829 0.000206388)