/*--------------------------------*- C++ -*----------------------------------*\
| =========                 |                                                 |
| \\      /  F ield         | OpenFOAM: The Open Source CFD Toolbox           |
|  \\    /   O peration     | Version:  2212                                  |
|   \\  /    A nd           | Website:  www.openfoam.com                      |
|    \\/     M anipulation  |                                                 |
\*---------------------------------------------------------------------------*/
FoamFile
{
    version     2.0;
    format      ascii;
    arch        "LSB;label=32;scalar=64";
    class       volScalarField;
    location    "0.044";
    object      epsilon;
}
// * * * * * * * * * * * * * * * * * * * * * * * * * * * * * * * * * * * * * //

dimensions      [0 2 -3 0 0 0 0];

internalField   nonuniform List<scalar> 
31639
(
0.412202
0.410699
0.413214
0.407017
0.421057
0.415631
0.427924
0.415189
0.415043
0.407262
0.410762
0.407738
0.408358
0.405912
0.409314
0.430484
0.414305
0.422905
0.423185
0.413288
0.446234
0.41177
0.407064
0.424027
0.429013
0.41563
0.411181
0.339515
0.424674
0.409817
0.406904
0.425756
0.40566
0.429063
0.442786
0.409596
0.447912
0.409046
0.407949
0.459585
0.436938
0.443218
0.404678
0.412393
0.413478
0.407453
0.412607
0.420719
0.412918
0.407432
0.407404
0.451323
0.410454
0.453537
0.421801
0.417202
0.447512
0.412327
0.409953
0.445594
0.415787
0.415568
0.433814
0.412321
0.413581
0.406172
0.412833
0.410585
0.440164
0.406876
0.407783
0.412013
0.406617
0.410829
0.410103
0.445095
0.406172
0.421941
0.409497
0.412651
0.428754
0.460375
0.406597
0.410543
0.404955
0.406992
0.406784
0.406715
0.435481
0.40687
0.41077
0.417643
0.441954
0.410707
0.427849
0.412508
0.417055
0.410745
0.410838
0.444889
0.408734
0.408113
0.40817
0.445745
0.442926
0.407618
0.447149
0.452963
0.430398
0.451971
0.403706
0.443028
0.414308
0.424035
0.408844
0.450547
0.425576
0.425067
0.414277
0.411437
0.413424
0.408522
0.40695
0.414678
0.418594
0.40956
0.412601
0.428918
0.429713
0.40571
0.405295
0.40472
0.405328
0.425403
0.411922
0.409929
0.443079
0.448081
0.407712
0.411262
0.411464
0.408053
0.407778
0.448152
0.455722
0.406403
0.410508
0.443459
0.44023
0.407795
0.438263
0.417498
0.424002
0.412696
0.443707
0.407144
0.417314
0.440827
0.438244
0.425632
0.406868
0.445768
0.437659
0.447967
0.448558
0.41198
0.445238
0.4085
0.40811
0.442959
0.411453
0.412809
0.443046
0.409215
0.406541
0.410264
0.41073
0.408924
0.409344
0.406694
0.41055
0.41904
0.407902
0.456168
0.418452
0.407736
0.408845
0.408474
0.448033
0.447374
0.414224
0.412765
0.412805
0.411585
0.410727
0.423545
0.426232
0.406236
0.444331
0.421717
0.409326
0.409067
0.40394
0.404139
0.421323
0.412202
0.411628
0.408933
0.410256
0.458121
0.412258
0.423856
0.411896
0.410903
0.418504
0.405409
0.440715
0.427965
0.412963
0.40922
0.406692
0.420765
0.445453
0.418712
0.446763
0.423959
0.410479
0.431462
0.443648
0.414364
0.412031
0.408543
0.438619
0.451397
0.41238
0.411439
0.441886
0.405747
0.43814
0.446895
0.410612
0.411761
0.411783
0.431862
0.43686
0.415459
0.409073
0.41194
0.440671
0.411112
0.409153
0.446711
0.432513
0.40887
0.411028
0.426149
0.441862
0.406886
0.407611
0.42773
0.406849
0.406876
0.417231
0.407567
0.411518
0.421324
0.442475
0.42718
0.403166
0.408759
0.398706
0.425568
0.420759
0.417851
0.40719
0.416625
0.445064
0.422874
0.434166
0.407583
0.421972
0.410053
0.408409
0.426119
0.440605
0.441555
0.441099
0.45312
0.4058
0.437286
0.414223
0.409741
0.425066
0.438237
0.410693
0.425475
0.440326
0.411171
0.421313
0.440414
0.412862
0.436269
0.411285
0.410014
0.443888
0.421973
0.410917
0.453851
0.451558
0.40734
0.406776
0.397643
0.446771
0.44458
0.407767
0.434725
0.42815
0.409059
0.411691
0.412427
0.408734
0.406785
0.441832
0.404987
0.452778
0.453249
0.411276
0.407868
0.407007
0.407271
0.412932
0.437664
0.408583
0.409887
0.409275
0.412029
0.407881
0.411698
0.410399
0.414081
0.406455
0.410124
0.411291
0.416393
0.40939
0.418877
0.410466
0.408398
0.443043
0.418756
0.407791
0.42225
0.413107
0.404693
0.411234
0.44425
0.410932
0.411668
0.447352
0.411534
0.440512
0.418289
0.402218
0.452149
0.411773
0.412565
0.443011
0.415836
0.440784
0.418199
0.411175
0.417622
0.452256
0.413346
0.439992
0.413543
0.407696
0.410137
0.412414
0.441835
0.405667
0.444038
0.411029
0.451604
0.40656
0.405651
0.406645
0.406191
0.425463
0.414106
0.411365
0.413253
0.411654
0.449145
0.416683
0.410134
0.407368
0.408178
0.416543
0.412236
0.4196
0.445473
0.422412
0.411353
0.407549
0.452691
0.408343
0.407689
0.413098
0.404402
0.406073
0.421341
0.406161
0.432596
0.413296
0.408983
0.450576
0.416424
0.411817
0.441639
0.444214
0.443965
0.428567
0.449982
0.413671
0.401049
0.428351
0.413147
0.443381
0.406888
0.406742
0.411881
0.410435
0.421244
0.409922
0.414595
0.424486
0.406221
0.409416
0.444521
0.411335
0.409908
0.407113
0.413346
0.407538
0.411284
0.412909
0.411553
0.409133
0.412597
0.441927
0.414039
0.454385
0.431346
0.411208
0.446681
0.45654
0.424605
0.410321
0.409913
0.444852
0.412987
0.430707
0.410531
0.413689
0.36118
0.410744
0.454118
0.41079
0.406547
0.408408
0.407633
0.421868
0.441723
0.414608
0.408842
0.406482
0.449857
0.44697
0.411541
0.446217
0.439175
0.414039
0.450145
0.421909
0.43434
0.415749
0.442492
0.4067
0.40792
0.407078
0.407056
0.438562
0.4069
0.408258
0.41581
0.412731
0.409977
0.405732
0.414599
0.428397
0.409693
0.406966
0.4099
0.425283
0.407447
0.410923
0.452422
0.455882
0.412984
0.413206
0.406614
0.414937
0.414778
0.417602
0.406631
0.413398
0.425005
0.416418
0.440252
0.411796
0.418055
0.409101
0.441936
0.434853
0.436756
0.41289
0.410076
0.450379
0.413946
0.429707
0.412405
0.418424
0.406131
0.421423
0.444065
0.410042
0.404802
0.436525
0.409512
0.403919
0.40159
0.412476
0.340983
0.437922
0.410431
0.411427
0.441538
0.442507
0.411539
0.411382
0.412679
0.438478
0.421583
0.407731
0.411278
0.441528
0.435997
0.411838
0.407214
0.447156
0.452916
0.410183
0.447172
0.409865
0.410154
0.446559
0.409564
0.415649
0.423634
0.453511
0.407049
0.42462
0.438687
0.405649
0.41024
0.413154
0.407881
0.451373
0.424916
0.416539
0.423491
0.442314
0.427837
0.418474
0.404755
0.408387
0.410585
0.405696
0.408916
0.431101
0.406737
0.411346
0.412631
0.435055
0.411089
0.417175
0.410959
0.442419
0.452375
0.406369
0.430941
0.407628
0.41338
0.440233
0.416612
0.40727
0.423464
0.413766
0.442043
0.407317
0.412389
0.453378
0.407844
0.4093
0.345933
0.442792
0.446346
0.426155
0.410279
0.412661
0.414097
0.4103
0.408045
0.412202
0.413908
0.444764
0.40568
0.451321
0.410744
0.422757
0.418642
0.406809
0.410581
0.434122
0.446986
0.449194
0.421548
0.406905
0.431025
0.407344
0.42648
0.40647
0.444456
0.411964
0.410344
0.406875
0.407769
0.404656
0.409584
0.420952
0.409033
0.409731
0.410012
0.437003
0.407267
0.440824
0.408758
0.421163
0.413272
0.440172
0.412201
0.45032
0.407035
0.422013
0.411079
0.413978
0.411893
0.438452
0.395302
0.444271
0.460495
0.445179
0.443596
0.441781
0.415572
0.452946
0.403312
0.416315
0.455783
0.409776
0.444146
0.423225
0.409819
0.422118
0.413654
0.40605
0.404322
0.410606
0.419077
0.408175
0.425906
0.421968
0.447033
0.380252
0.408144
0.411751
0.412252
0.408029
0.444617
0.408449
0.410318
0.40783
0.406446
0.406827
0.410286
0.407643
0.407838
0.4146
0.409972
0.410368
0.440882
0.408449
0.423731
0.413561
0.409177
0.409123
0.426789
0.4104
0.414912
0.413211
0.424321
0.445897
0.407158
0.416354
0.427951
0.448427
0.406628
0.445298
0.403174
0.415575
0.411263
0.415774
0.408044
0.413636
0.447241
0.410686
0.427444
0.418824
0.438871
0.406534
0.408119
0.413624
0.41335
0.411282
0.415142
0.426856
0.416827
0.450138
0.405746
0.414193
0.403878
0.439195
0.409066
0.409008
0.412864
0.430244
0.411171
0.406557
0.413701
0.447169
0.449436
0.411059
0.445883
0.431387
0.414353
0.411615
0.404748
0.448236
0.408803
0.406797
0.437463
0.442905
0.407592
0.438711
0.420316
0.440803
0.41179
0.432298
0.426424
0.408538
0.447342
0.41167
0.411839
0.407908
0.410486
0.405201
0.44401
0.405713
0.41267
0.42592
0.406932
0.409418
0.415094
0.403688
0.409675
0.411468
0.409116
0.411146
0.407798
0.422304
0.411989
0.409482
0.439669
0.408685
0.415323
0.406734
0.414776
0.416015
0.407164
0.409815
0.408147
0.413792
0.408459
0.411948
0.41542
0.443383
0.418975
0.407098
0.455697
0.41867
0.412944
0.423564
0.413409
0.407089
0.408853
0.405437
0.415089
0.412052
0.413252
0.412414
0.411398
0.425571
0.444277
0.408328
0.450008
0.414992
0.421914
0.414097
0.414194
0.407166
0.446165
0.409695
0.440898
0.410362
0.429141
0.411901
0.412593
0.406316
0.443252
0.408036
0.408702
0.417535
0.415808
0.417867
0.452158
0.408659
0.410602
0.411009
0.405163
0.406445
0.409212
0.423629
0.408804
0.436782
0.421954
0.4077
0.441559
0.435003
0.412312
0.406417
0.426722
0.421666
0.41815
0.427736
0.411168
0.43254
0.409153
0.413088
0.456899
0.417206
0.404212
0.41486
0.418345
0.409048
0.407468
0.44023
0.440882
0.407023
0.408855
0.407497
0.435132
0.408075
0.408354
0.438547
0.410446
0.407064
0.407345
0.41532
0.406587
0.415796
0.407567
0.407687
0.422768
0.442105
0.412865
0.410004
0.435285
0.406145
0.449743
0.413091
0.418632
0.443851
0.41503
0.42397
0.408905
0.418698
0.412468
0.448554
0.449182
0.42027
0.442008
0.411589
0.406471
0.412232
0.407774
0.427044
0.411379
0.412614
0.424722
0.42219
0.408939
0.412346
0.416392
0.443312
0.413865
0.410991
0.40477
0.407711
0.451704
0.443064
0.413209
0.406134
0.431462
0.413536
0.420119
0.410731
0.411
0.419298
0.411273
0.41875
0.443189
0.407336
0.418018
0.441804
0.43008
0.409708
0.425987
0.410185
0.411095
0.421073
0.443821
0.407009
0.442906
0.417027
0.417288
0.434329
0.413789
0.447306
0.412656
0.414343
0.414522
0.454732
0.443353
0.404401
0.409747
0.424504
0.405975
0.414486
0.409814
0.446982
0.441593
0.416306
0.416347
0.41405
0.409956
0.404999
0.413844
0.406011
0.416168
0.418881
0.406895
0.450631
0.413415
0.408647
0.410738
0.415393
0.412567
0.42548
0.406583
0.414014
0.450666
0.408715
0.434012
0.40833
0.422911
0.405067
0.445269
0.407614
0.409035
0.415944
0.410487
0.44949
0.405825
0.409519
0.406156
0.443741
0.407148
0.416755
0.403952
0.412849
0.410477
0.408682
0.411867
0.426971
0.413653
0.444856
0.445901
0.445611
0.433791
0.412071
0.448212
0.408335
0.40827
0.417091
0.414919
0.413782
0.41254
0.407882
0.412974
0.425387
0.408985
0.41901
0.429189
0.405459
0.409808
0.412678
0.408176
0.427099
0.412888
0.410539
0.406031
0.412095
0.410317
0.427148
0.409902
0.419098
0.415572
0.41032
0.41121
0.406208
0.410942
0.40816
0.422421
0.413523
0.412622
0.443555
0.452655
0.408435
0.430142
0.416128
0.426143
0.44627
0.416391
0.409906
0.437565
0.425328
0.410479
0.407831
0.408434
0.412026
0.441767
0.412773
0.419235
0.423547
0.414237
0.414223
0.452959
0.430694
0.430664
0.416406
0.412462
0.413968
0.412867
0.415857
0.411319
0.416059
0.434136
0.428862
0.457698
0.417901
0.413721
0.41326
0.412758
0.409315
0.444619
0.413326
0.423966
0.417442
0.414248
0.407254
0.448056
0.407106
0.444204
0.409778
0.415289
0.420576
0.413079
0.419317
0.414361
0.434714
0.414802
0.422733
0.418364
0.42289
0.446668
0.404998
0.410771
0.416019
0.40694
0.410012
0.442402
0.427833
0.417979
0.440133
0.407238
0.41339
0.407578
0.405663
0.407657
0.443506
0.448428
0.441719
0.409288
0.451209
0.406647
0.41329
0.439544
0.423988
0.40897
0.409835
0.430394
0.426588
0.412281
0.412158
0.411834
0.416523
0.43635
0.41256
0.414342
0.412132
0.41624
0.408174
0.411258
0.408612
0.416386
0.446306
0.450113
0.413964
0.427085
0.414621
0.453941
0.410795
0.417329
0.406655
0.444646
0.418396
0.409288
0.415721
0.428382
0.445237
0.411
0.435432
0.415841
0.418695
0.405843
0.406928
0.41163
0.451823
0.447458
0.412747
0.422476
0.424991
0.413844
0.450426
0.399606
0.408523
0.428817
0.408223
0.405323
0.411643
0.406996
0.410475
0.413289
0.412878
0.44958
0.423533
0.408207
0.446743
0.413067
0.414541
0.434626
0.410505
0.376198
0.411843
0.407185
0.408348
0.449639
0.413008
0.413761
0.4468
0.423299
0.411611
0.426852
0.412105
0.441692
0.441853
0.413721
0.423568
0.406623
0.408727
0.406559
0.408652
0.411734
0.409767
0.409744
0.410892
0.437915
0.411143
0.42052
0.409244
0.416549
0.427947
0.423302
0.412609
0.446818
0.415603
0.411125
0.416538
0.46155
0.416453
0.451621
0.413069
0.455037
0.411708
0.411023
0.415671
0.410997
0.43841
0.442237
0.41
0.412839
0.416245
0.412907
0.426373
0.404972
0.411986
0.408325
0.443766
0.430824
0.408332
0.408077
0.419968
0.417436
0.44201
0.411926
0.407974
0.41009
0.411312
0.412639
0.411525
0.407902
0.409553
0.441859
0.411187
0.413036
0.411429
0.415186
0.414545
0.454929
0.431481
0.408909
0.413528
0.411718
0.412993
0.410068
0.406155
0.412821
0.414457
0.407792
0.408051
0.426653
0.42311
0.409555
0.411165
0.409869
0.450381
0.415268
0.443574
0.408275
0.444776
0.441639
0.408736
0.448231
0.429584
0.412244
0.407046
0.40779
0.42636
0.415009
0.409596
0.439614
0.444412
0.428301
0.429967
0.408558
0.413792
0.416391
0.448839
0.41374
0.407794
0.407766
0.442993
0.441059
0.41627
0.41359
0.415092
0.430407
0.444153
0.422099
0.428039
0.408212
0.409266
0.448151
0.4143
0.4116
0.439501
0.452891
0.407661
0.430827
0.432652
0.40508
0.413775
0.405728
0.409748
0.408065
0.426093
0.409851
0.427904
0.406787
0.426952
0.409721
0.41106
0.409952
0.43977
0.40433
0.403084
0.417822
0.411815
0.415372
0.436336
0.361464
0.412873
0.423098
0.407238
0.422595
0.402224
0.444774
0.408641
0.410579
0.449567
0.412442
0.414178
0.454819
0.441323
0.411756
0.410255
0.409371
0.426649
0.441991
0.406915
0.412048
0.410482
0.41488
0.405634
0.445809
0.4097
0.412587
0.443974
0.442249
0.460655
0.434707
0.405444
0.426086
0.413824
0.409713
0.425572
0.424246
0.450008
0.451508
0.410733
0.410765
0.443552
0.411593
0.417627
0.445936
0.415725
0.421809
0.440835
0.419284
0.403668
0.442023
0.453624
0.406594
0.410285
0.433989
0.412182
0.429619
0.436009
0.44335
0.413768
0.43999
0.448052
0.413385
0.403963
0.415273
0.417629
0.410212
0.414264
0.406928
0.346644
0.415439
0.440915
0.405444
0.412856
0.409744
0.425106
0.409642
0.436994
0.408783
0.411776
0.420847
0.447028
0.444941
0.454783
0.425215
0.443807
0.419052
0.435859
0.422379
0.406964
0.413249
0.423777
0.41208
0.415093
0.414029
0.406766
0.449114
0.414326
0.407311
0.406966
0.41096
0.408788
0.434929
0.416747
0.412883
0.445406
0.41742
0.40607
0.407664
0.402023
0.412383
0.416609
0.452242
0.443268
0.411722
0.408435
0.416529
0.406118
0.426901
0.422245
0.437689
0.448418
0.447603
0.452846
0.409287
0.41129
0.404264
0.41083
0.423285
0.411922
0.457572
0.408771
0.413843
0.410413
0.409904
0.414709
0.407866
0.40822
0.411231
0.360916
0.422809
0.411888
0.409809
0.408968
0.411069
0.413389
0.407999
0.409883
0.429322
0.408966
0.414027
0.407058
0.408199
0.448126
0.406484
0.410528
0.41437
0.405789
0.440509
0.452839
0.411518
0.411388
0.428198
0.407053
0.405598
0.405268
0.403842
0.424636
0.413424
0.415468
0.410663
0.453521
0.454256
0.415604
0.41824
0.43859
0.407386
0.442718
0.420198
0.412709
0.416924
0.423847
0.404511
0.419199
0.414011
0.412888
0.415378
0.410589
0.425659
0.451853
0.409044
0.459019
0.460214
0.36529
0.439298
0.44947
0.418766
0.413587
0.441975
0.4253
0.457762
0.442056
0.408447
0.412143
0.447566
0.448892
0.406572
0.447622
0.41306
0.410489
0.421837
0.406761
0.441018
0.443394
0.418186
0.412219
0.439481
0.44223
0.422036
0.428468
0.412697
0.410546
0.44824
0.410377
0.447566
0.452029
0.424995
0.415033
0.429695
0.423726
0.424967
0.407825
0.450779
0.439077
0.413147
0.402416
0.410166
0.45309
0.455148
0.4218
0.404908
0.40964
0.414003
0.418571
0.40853
0.408892
0.43942
0.407011
0.427358
0.441128
0.454485
0.405175
0.41077
0.408888
0.41055
0.408463
0.444845
0.422021
0.450935
0.464371
0.419069
0.445019
0.428476
0.411353
0.379099
0.442695
0.407711
0.408256
0.407443
0.413081
0.468424
0.411057
0.442504
0.410653
0.447348
0.408373
0.454579
0.413358
0.42087
0.429634
0.423783
0.454238
0.429815
0.409681
0.408245
0.411875
0.410426
0.410928
0.446041
0.409119
0.357416
0.410903
0.41229
0.409488
0.415674
0.396857
0.412877
0.421813
0.425816
0.425724
0.409407
0.410231
0.425382
0.433301
0.413898
0.420117
0.408821
0.404104
0.410837
0.419791
0.418237
0.405191
0.411071
0.406262
0.413426
0.410863
0.415702
0.382535
0.409118
0.426059
0.411408
0.414717
0.404962
0.439964
0.43522
0.412575
0.402119
0.406053
0.39974
0.407556
0.412788
0.410694
0.438823
0.429414
0.408062
0.409786
0.409053
0.406996
0.4288
0.405097
0.445545
0.40671
0.423872
0.409201
0.421577
0.412406
0.408926
0.407117
0.441612
0.408777
0.406278
0.419824
0.437807
0.410269
0.407006
0.408867
0.410596
0.410699
0.41392
0.442558
0.40614
0.425935
0.413211
0.429321
0.427494
0.439305
0.447956
0.425721
0.409091
0.415098
0.436787
0.420286
0.444197
0.417686
0.414134
0.453421
0.439839
0.430853
0.415682
0.413826
0.423409
0.383854
0.421202
0.37407
0.433452
0.405808
0.407367
0.410333
0.392429
0.415357
0.451185
0.437234
0.413589
0.430042
0.424138
0.40874
0.409039
0.412473
0.401424
0.44893
0.398921
0.407513
0.422479
0.406576
0.403289
0.412386
0.398658
0.409499
0.426564
0.439022
0.413448
0.44985
0.453053
0.422323
0.414746
0.41775
0.415971
0.412856
0.41596
0.454851
0.42448
0.407294
0.412678
0.448354
0.424241
0.431467
0.407887
0.406895
0.424102
0.411686
0.411598
0.412397
0.445421
0.407928
0.447341
0.404549
0.404625
0.407905
0.404073
0.410407
0.404328
0.441638
0.402244
0.406416
0.433025
0.408492
0.412929
0.424502
0.411032
0.420543
0.408242
0.410122
0.404083
0.41123
0.407715
0.414443
0.406677
0.440232
0.409329
0.44568
0.440429
0.416347
0.412525
0.411711
0.410724
0.39595
0.408157
0.446272
0.413193
0.408118
0.413726
0.406058
0.443685
0.450021
0.411764
0.45478
0.406025
0.411312
0.454291
0.417734
0.413225
0.418233
0.444327
0.433258
0.449773
0.410861
0.450959
0.410895
0.408058
0.452514
0.413082
0.410362
0.407841
0.404882
0.432906
0.409148
0.411134
0.436026
0.413188
0.408581
0.416565
0.438418
0.401683
0.416808
0.409223
0.425563
0.407354
0.420789
0.423429
0.426741
0.422933
0.398307
0.407197
0.409545
0.434382
0.412376
0.410755
0.406037
0.413758
0.457819
0.404502
0.434578
0.408295
0.406181
0.406561
0.425687
0.413814
0.411532
0.415173
0.407745
0.419071
0.443427
0.439412
0.413389
0.407626
0.381682
0.426137
0.407874
0.440572
0.41047
0.447595
0.410372
0.408631
0.409731
0.444262
0.408222
0.442335
0.412715
0.416694
0.430382
0.41559
0.435283
0.426424
0.413585
0.443452
0.42812
0.409728
0.457205
0.416254
0.409579
0.455506
0.427683
0.398826
0.418781
0.414741
0.409141
0.410985
0.402695
0.42722
0.447356
0.451761
0.343881
0.407843
0.39599
0.408053
0.409671
0.438999
0.438254
0.409984
0.414546
0.449635
0.411469
0.407728
0.427128
0.404281
0.411014
0.4039
0.437974
0.420462
0.411252
0.459474
0.40329
0.396498
0.408131
0.406873
0.408607
0.412958
0.447196
0.410546
0.417613
0.40923
0.406499
0.394202
0.402855
0.409426
0.417104
0.405395
0.411768
0.40683
0.442315
0.42002
0.406924
0.393563
0.409992
0.413124
0.418222
0.409977
0.443283
0.408736
0.441113
0.412944
0.411894
0.420351
0.414324
0.422418
0.41932
0.409691
0.4202
0.397848
0.386542
0.409167
0.448599
0.41174
0.410306
0.430838
0.40618
0.407055
0.405227
0.409084
0.446835
0.408051
0.407482
0.407499
0.418096
0.414139
0.450105
0.439604
0.40285
0.443185
0.40838
0.410346
0.437196
0.418871
0.405247
0.427386
0.430916
0.431449
0.424366
0.417317
0.401906
0.425539
0.407462
0.395536
0.410069
0.447668
0.409006
0.410138
0.403498
0.441078
0.430645
0.416786
0.339545
0.437474
0.410081
0.414425
0.40967
0.394389
0.408135
0.411641
0.420243
0.408451
0.419051
0.420785
0.418294
0.405907
0.407121
0.409645
0.401668
0.403634
0.43527
0.445507
0.416681
0.361788
0.415343
0.406012
0.407723
0.403671
0.409702
0.397993
0.413856
0.403446
0.43749
0.415067
0.421623
0.404583
0.406802
0.402614
0.41179
0.417284
0.420968
0.409318
0.4154
0.414734
0.410798
0.417513
0.428317
0.427906
0.440012
0.422349
0.412543
0.441278
0.408899
0.411823
0.405834
0.408104
0.409276
0.407744
0.398721
0.392248
0.414012
0.41039
0.40463
0.420973
0.449581
0.408189
0.422644
0.410116
0.41282
0.411294
0.407418
0.414855
0.450414
0.427661
0.44516
0.411698
0.414524
0.439657
0.411381
0.415413
0.424436
0.413926
0.431056
0.438599
0.406564
0.436516
0.440217
0.355577
0.366078
0.405423
0.433691
0.411233
0.408601
0.431475
0.409451
0.404105
0.397166
0.407431
0.446222
0.40727
0.353509
0.404279
0.432609
0.43568
0.404097
0.447079
0.426972
0.419801
0.407669
0.402481
0.403577
0.422139
0.412786
0.381063
0.416485
0.414134
0.40798
0.417317
0.438136
0.397205
0.411154
0.405852
0.350335
0.4394
0.408793
0.445459
0.44186
0.410082
0.408958
0.425264
0.421285
0.412371
0.403163
0.414925
0.368776
0.452333
0.405919
0.446994
0.411847
0.440389
0.413404
0.406555
0.407694
0.439935
0.422641
0.408893
0.409197
0.416307
0.40412
0.414512
0.411489
0.411023
0.439002
0.413465
0.428947
0.39533
0.40029
0.404932
0.415079
0.404812
0.419797
0.422637
0.442863
0.403909
0.403492
0.453205
0.408656
0.41157
0.41453
0.441644
0.412156
0.422311
0.419285
0.359181
0.425185
0.410317
0.461414
0.411393
0.451773
0.44041
0.416351
0.40971
0.451204
0.41197
0.409482
0.359192
0.452433
0.403052
0.407106
0.461614
0.413232
0.461125
0.455174
0.411276
0.409628
0.418344
0.399094
0.410179
0.409659
0.424357
0.393774
0.421306
0.415279
0.418136
0.400987
0.438444
0.38572
0.42254
0.424092
0.408214
0.402353
0.415874
0.411317
0.414678
0.403338
0.409347
0.417547
0.416298
0.407189
0.413529
0.409379
0.404688
0.41121
0.412987
0.38044
0.38371
0.402488
0.419005
0.427641
0.393649
0.398449
0.428474
0.413296
0.38337
0.440732
0.43637
0.402556
0.395649
0.414167
0.409774
0.409776
0.436353
0.4128
0.419318
0.4351
0.422137
0.445185
0.400665
0.410489
0.409987
0.406048
0.443606
0.416232
0.410002
0.409168
0.407667
0.346129
0.412313
0.413153
0.411381
0.395088
0.408466
0.352844
0.404373
0.404946
0.429928
0.453441
0.428411
0.40149
0.406004
0.433763
0.432988
0.408668
0.410353
0.411506
0.430269
0.456575
0.429683
0.429615
0.411548
0.414436
0.41735
0.410246
0.405287
0.37127
0.409416
0.40583
0.41403
0.424904
0.408836
0.390668
0.439586
0.424787
0.412646
0.372715
0.374436
0.411445
0.416705
0.403201
0.450541
0.411732
0.406119
0.396872
0.395904
0.397622
0.406427
0.410418
0.40672
0.409176
0.419264
0.401184
0.407001
0.408245
0.410643
0.401942
0.402347
0.439317
0.428399
0.449405
0.418661
0.385111
0.418214
0.439693
0.41174
0.42718
0.431764
0.418899
0.405058
0.410965
0.397158
0.410387
0.415206
0.402378
0.441025
0.40469
0.435825
0.412461
0.397959
0.413267
0.410897
0.40477
0.396244
0.432117
0.43385
0.423319
0.426311
0.41719
0.358018
0.409807
0.420783
0.402903
0.417051
0.426425
0.42693
0.360489
0.408796
0.412671
0.417091
0.44088
0.428776
0.400361
0.404829
0.436616
0.347059
0.403524
0.446384
0.407558
0.411931
0.409635
0.447111
0.407709
0.436893
0.431397
0.439628
0.402194
0.412056
0.417898
0.41106
0.412274
0.41261
0.44335
0.457461
0.412252
0.414753
0.413163
0.401558
0.439403
0.402035
0.425033
0.37443
0.41264
0.426411
0.431945
0.413847
0.403607
0.434046
0.436715
0.392344
0.39598
0.405189
0.42233
0.434501
0.442413
0.406588
0.414335
0.386812
0.401401
0.419897
0.410237
0.401201
0.384938
0.399954
0.403444
0.424232
0.412144
0.399643
0.404973
0.421371
0.375967
0.396699
0.396257
0.374427
0.400456
0.40207
0.419631
0.397109
0.40581
0.373249
0.398617
0.441569
0.407752
0.395379
0.426772
0.415352
0.389629
0.408734
0.379151
0.441163
0.440413
0.408827
0.353038
0.411365
0.446947
0.419185
0.409905
0.439172
0.410568
0.399852
0.452655
0.416765
0.406337
0.409091
0.409948
0.40491
0.404071
0.403853
0.403996
0.405666
0.412502
0.397176
0.409238
0.404368
0.396396
0.406076
0.409967
0.416393
0.386951
0.406255
0.409266
0.414338
0.424279
0.417593
0.447416
0.401618
0.415024
0.409263
0.408706
0.392116
0.4128
0.446449
0.413516
0.425057
0.430061
0.379489
0.440447
0.392732
0.414178
0.409737
0.408996
0.389789
0.441877
0.4118
0.39281
0.435678
0.399736
0.39952
0.363647
0.398608
0.425156
0.428004
0.390375
0.377531
0.383771
0.437471
0.408801
0.382578
0.405561
0.442179
0.41706
0.390188
0.402686
0.382015
0.410815
0.397165
0.416572
0.415162
0.394502
0.389024
0.42727
0.432306
0.409518
0.423375
0.448558
0.366213
0.406828
0.434899
0.421037
0.440115
0.407532
0.401839
0.408251
0.348238
0.408419
0.411818
0.411444
0.403692
0.408854
0.409081
0.398865
0.421597
0.414761
0.40585
0.413335
0.424004
0.423923
0.414023
0.369325
0.429768
0.376367
0.394521
0.404358
0.383273
0.409417
0.415571
0.412092
0.414674
0.405745
0.383406
0.383181
0.34449
0.412573
0.398902
0.42302
0.422599
0.443424
0.399572
0.409756
0.396184
0.387912
0.389981
0.386718
0.406643
0.421323
0.409893
0.409513
0.387517
0.443315
0.431122
0.442633
0.376381
0.404197
0.35411
0.342242
0.4179
0.373111
0.448236
0.410941
0.445771
0.436911
0.386945
0.433685
0.430138
0.383565
0.364293
0.407292
0.445318
0.406168
0.414433
0.405703
0.403114
0.400603
0.383275
0.383637
0.440791
0.42457
0.408974
0.420144
0.404568
0.419382
0.394882
0.419788
0.411023
0.416671
0.397836
0.340917
0.337604
0.383433
0.40548
0.399637
0.412753
0.383054
0.443799
0.409105
0.419894
0.385665
0.448291
0.395981
0.389814
0.419901
0.44992
0.380276
0.41109
0.346176
0.380715
0.355485
0.406965
0.44044
0.429586
0.398913
0.430086
0.386369
0.43637
0.354199
0.408248
0.418563
0.410928
0.372772
0.454618
0.377347
0.406412
0.371605
0.396024
0.410991
0.389645
0.455168
0.39268
0.414642
0.398165
0.405894
0.412156
0.38306
0.428185
0.444724
0.396985
0.446211
0.36077
0.445315
0.429563
0.388304
0.406803
0.408844
0.414379
0.374925
0.435768
0.40523
0.373114
0.402054
0.436261
0.390759
0.406493
0.360807
0.404231
0.416538
0.408189
0.395696
0.404776
0.407008
0.437886
0.407146
0.412461
0.430715
0.351578
0.390529
0.399115
0.422875
0.414779
0.365898
0.404328
0.384619
0.383714
0.354858
0.337523
0.341972
0.414997
0.409752
0.414838
0.402819
0.425954
0.417227
0.410901
0.403806
0.36882
0.39539
0.410024
0.397041
0.408679
0.404756
0.444372
0.393634
0.409228
0.409114
0.388174
0.403379
0.405374
0.420254
0.384634
0.414447
0.39015
0.389865
0.384461
0.435657
0.372811
0.395535
0.377926
0.398971
0.37309
0.370448
0.393585
0.435127
0.371487
0.447901
0.42181
0.42869
0.357456
0.411436
0.395329
0.379865
0.394036
0.415785
0.407487
0.33982
0.400471
0.370642
0.410559
0.426467
0.41596
0.380637
0.412891
0.408679
0.402936
0.374486
0.382107
0.40661
0.399947
0.356576
0.351994
0.409043
0.36245
0.363135
0.384654
0.387132
0.40857
0.379657
0.371511
0.375922
0.407834
0.386486
0.368866
0.349568
0.401871
0.378133
0.425437
0.426118
0.40954
0.415767
0.388124
0.37617
0.378764
0.347966
0.346677
0.410693
0.421717
0.392306
0.412862
0.403413
0.404041
0.397104
0.359005
0.378268
0.441064
0.399661
0.425685
0.362483
0.414493
0.409707
0.437284
0.437628
0.392867
0.371593
0.374681
0.404876
0.401853
0.41194
0.410249
0.374236
0.368908
0.450931
0.372517
0.344167
0.367118
0.3965
0.378582
0.395828
0.373231
0.392127
0.394437
0.348502
0.431197
0.426026
0.385582
0.405022
0.37804
0.388311
0.407831
0.375577
0.441734
0.384313
0.395762
0.420847
0.376943
0.378648
0.411421
0.394102
0.379717
0.406794
0.416992
0.394316
0.404844
0.377306
0.391719
0.365564
0.384804
0.405843
0.391044
0.387545
0.398806
0.406059
0.368648
0.361394
0.358486
0.409182
0.424787
0.355755
0.400106
0.423283
0.398643
0.399635
0.435363
0.35882
0.384034
0.37011
0.368344
0.414074
0.411586
0.427207
0.423611
0.39168
0.394066
0.391259
0.40064
0.370441
0.367177
0.390273
0.358314
0.440177
0.383361
0.394812
0.37373
0.385799
0.430206
0.371983
0.358203
0.377295
0.365701
0.410334
0.40441
0.38023
0.352624
0.375026
0.359359
0.409845
0.419097
0.420755
0.412059
0.390291
0.413912
0.410194
0.439251
0.39715
0.409964
0.371807
0.406986
0.390821
0.379012
0.354512
0.438409
0.379282
0.40631
0.374223
0.404771
0.335428
0.350314
0.367019
0.402466
0.373035
0.365816
0.391322
0.404299
0.412956
0.381881
0.39826
0.41993
0.408703
0.407616
0.342942
0.376731
0.412913
0.366691
0.407006
0.372134
0.354742
0.400285
0.375359
0.38711
0.378942
0.373076
0.364133
0.361742
0.41916
0.413821
0.409097
0.38815
0.371651
0.375443
0.371601
0.397341
0.378482
0.406415
0.367508
0.400328
0.355367
0.413547
0.36994
0.367448
0.414992
0.408889
0.380656
0.393407
0.339774
0.368952
0.379419
0.356115
0.382535
0.402399
0.422436
0.410168
0.417291
0.393234
0.38511
0.375114
0.365911
0.383048
0.385044
0.434818
0.38247
0.396386
0.399456
0.365467
0.378302
0.430825
0.425915
0.441976
0.413883
0.337876
0.360545
0.444482
0.399299
0.371313
0.410231
0.432713
0.438453
0.382744
0.375772
0.397173
0.35038
0.337795
0.404318
0.344453
0.403825
0.372968
0.357775
0.384144
0.373617
0.402462
0.414978
0.351194
0.349466
0.390416
0.361845
0.379024
0.355061
0.368572
0.377684
0.406209
0.36277
0.39071
0.419294
0.392649
0.384466
0.36447
0.395106
0.386501
0.387712
0.361134
0.378217
0.394531
0.403357
0.378226
0.420017
0.372756
0.407038
0.345486
0.373549
0.36284
0.418214
0.391503
0.410404
0.432368
0.384711
0.405948
0.41053
0.38987
0.396334
0.361676
0.371165
0.395684
0.377368
0.405534
0.385983
0.351688
0.390643
0.371251
0.363896
0.342491
0.376853
0.378771
0.414288
0.35281
0.390846
0.403331
0.347623
0.360474
0.412827
0.361715
0.382096
0.37734
0.382639
0.3391
0.35124
0.375936
0.36738
0.384742
0.371887
0.382087
0.352116
0.394859
0.396642
0.373877
0.360026
0.384295
0.414024
0.38102
0.386237
0.411422
0.341227
0.348571
0.384786
0.337182
0.429503
0.39447
0.369622
0.3873
0.386659
0.354853
0.423544
0.408828
0.344725
0.412831
0.399642
0.379641
0.361549
0.364859
0.357857
0.373785
0.404822
0.427722
0.356868
0.379892
0.383213
0.358999
0.436895
0.365808
0.353957
0.345118
0.37023
0.372144
0.373804
0.385783
0.389661
0.39107
0.364426
0.366369
0.355399
0.415816
0.366984
0.335998
0.366182
0.365104
0.353526
0.395631
0.367804
0.404478
0.393904
0.389994
0.415642
0.386242
0.393743
0.385434
0.383172
0.426367
0.393574
0.361991
0.351933
0.391228
0.346417
0.335496
0.349292
0.397117
0.342304
0.340961
0.380847
0.399194
0.394968
0.401619
0.355994
0.344131
0.372975
0.373062
0.358615
0.405953
0.362394
0.409007
0.345127
0.338327
0.359748
0.355858
0.420037
0.372301
0.394163
0.38869
0.379415
0.372924
0.364226
0.398778
0.357359
0.367156
0.406272
0.358691
0.403238
0.340309
0.341204
0.380238
0.366251
0.370122
0.362342
0.385039
0.397506
0.42534
0.439019
0.416366
0.343638
0.340996
0.365848
0.374022
0.341914
0.339319
0.351438
0.351717
0.391332
0.41029
0.380956
0.383673
0.406635
0.339687
0.368672
0.37083
0.389434
0.397837
0.350429
0.377756
0.378915
0.399303
0.413879
0.362438
0.362624
0.403795
0.4268
0.404504
0.354429
0.406673
0.395905
0.389244