/*--------------------------------*- C++ -*----------------------------------*\
| =========                 |                                                 |
| \\      /  F ield         | OpenFOAM: The Open Source CFD Toolbox           |
|  \\    /   O peration     | Version:  2212                                  |
|   \\  /    A nd           | Website:  www.openfoam.com                      |
|    \\/     M anipulation  |                                                 |
\*---------------------------------------------------------------------------*/
FoamFile
{
    version     2.0;
    format      ascii;
    arch        "LSB;label=32;scalar=64";
    class       volScalarField;
    location    "0.044";
    object      k;
}
// * * * * * * * * * * * * * * * * * * * * * * * * * * * * * * * * * * * * * //

dimensions      [0 2 -2 0 0 0 0];

internalField   nonuniform List<scalar> 
31639
(
0.0136831
0.0133966
0.0135801
0.0140535
0.0135638
0.0133012
0.0133601
0.0137911
0.0136507
0.013857
0.0138535
0.0138356
0.013491
0.0139293
0.0132068
0.0131616
0.0137595
0.0133954
0.0130494
0.0134955
0.0124357
0.0139391
0.0139528
0.0130974
0.0130191
0.0135841
0.0134471
0.0113683
0.0133381
0.014025
0.0138666
0.0132644
0.0139386
0.0130351
0.0127467
0.0139907
0.012143
0.0141585
0.0139229
0.0120552
0.012654
0.0126902
0.0137702
0.0139055
0.0138927
0.013876
0.0132563
0.013375
0.0137378
0.0140107
0.0138469
0.0121281
0.0140665
0.0124079
0.0132636
0.013673
0.0125045
0.0135006
0.0133596
0.0124932
0.0135465
0.0138965
0.01309
0.0134222
0.0136456
0.0140195
0.0134913
0.0134724
0.012929
0.0139937
0.0139079
0.0129363
0.013733
0.013486
0.0139688
0.0127629
0.0138093
0.0133834
0.0132212
0.0138
0.0130485
0.0119943
0.0139276
0.0136133
0.013573
0.0138264
0.0139721
0.0139102
0.012822
0.0140496
0.0135591
0.0136086
0.0125616
0.0132953
0.0128486
0.0133081
0.0133791
0.0134665
0.0135318
0.0125436
0.0140055
0.0138347
0.0132551
0.0123972
0.0125042
0.0139111
0.0124063
0.0122701
0.0128953
0.0124169
0.013677
0.012576
0.0133525
0.013226
0.0134595
0.0123714
0.0134702
0.0134971
0.0138255
0.0133694
0.0138399
0.0138193
0.0137589
0.0136379
0.0136068
0.0139512
0.0134719
0.0129548
0.0127948
0.0137435
0.0138384
0.0137651
0.0138409
0.0133437
0.0138263
0.0134655
0.0124971
0.0123059
0.0137866
0.0134721
0.0134527
0.0138397
0.0138693
0.0123256
0.0121595
0.0139483
0.0137892
0.0126457
0.0125806
0.0138527
0.0130417
0.0137118
0.0130876
0.0137634
0.01283
0.0140127
0.0135219
0.0128768
0.0127584
0.0130938
0.0139004
0.012913
0.0130498
0.0124653
0.0126634
0.0133128
0.0127913
0.0140251
0.0138221
0.0123343
0.0130647
0.0131227
0.0127136
0.0134692
0.0140449
0.0137635
0.0135533
0.014044
0.0135022
0.0134272
0.0132565
0.0133795
0.013106
0.0121481
0.0136535
0.0140981
0.0132974
0.0139925
0.012652
0.0125782
0.0143132
0.0138481
0.0137527
0.0133793
0.0134787
0.0133415
0.0133326
0.0137377
0.0124363
0.013304
0.0139455
0.0140817
0.0136571
0.0136507
0.0135682
0.0134031
0.0133065
0.013135
0.013881
0.0121791
0.0134019
0.0133748
0.0136729
0.0138691
0.0138911
0.0139113
0.0127325
0.0131241
0.0139108
0.0137976
0.0136414
0.0134598
0.0124394
0.0134592
0.0124839
0.0134548
0.0138109
0.0131622
0.0126839
0.0137653
0.0136545
0.0140967
0.0128182
0.0126189
0.0137094
0.0137481
0.0124598
0.013941
0.0130866
0.0124033
0.0132657
0.013686
0.0134186
0.0132287
0.0131709
0.0138073
0.0132247
0.0131479
0.0126636
0.0133598
0.0131604
0.0127927
0.0132375
0.0140316
0.0138589
0.0132677
0.0127732
0.0137211
0.013722
0.0136545
0.0140299
0.0138821
0.0136295
0.0139049
0.0132466
0.0134394
0.0122778
0.0130512
0.0138268
0.0131478
0.0134711
0.0132265
0.0135974
0.0141969
0.0140424
0.0136438
0.0125563
0.0134089
0.0129994
0.0138724
0.0134637
0.0139999
0.0140374
0.0133256
0.0126404
0.0130917
0.0127967
0.01255
0.0138299
0.0128667
0.0139516
0.0132951
0.0131588
0.0127899
0.0141518
0.0132828
0.0133929
0.013934
0.0136481
0.0131405
0.0133623
0.01287
0.0134471
0.0132768
0.0127183
0.0132871
0.0131784
0.0119107
0.0122801
0.01384
0.0139565
0.0135223
0.0124436
0.0128777
0.0137273
0.0128697
0.0127711
0.0139685
0.0141392
0.0132506
0.0138754
0.013989
0.0127306
0.0138765
0.0123893
0.0124536
0.0139755
0.0138331
0.0138622
0.0140192
0.0138064
0.0127945
0.0133492
0.0133044
0.0139479
0.0141173
0.0141019
0.0133182
0.0131185
0.0137413
0.0137208
0.0136236
0.0132019
0.0134013
0.0132221
0.0134798
0.0136923
0.0132229
0.0127254
0.0137237
0.0140814
0.013284
0.0139893
0.0139212
0.0133806
0.0127267
0.0133564
0.0133517
0.0124297
0.0141562
0.0128694
0.0136583
0.0137315
0.0123241
0.0134257
0.0133915
0.0125302
0.0135697
0.0127856
0.013481
0.0140471
0.0137747
0.0122717
0.013623
0.0127961
0.0136404
0.0138683
0.013973
0.0139512
0.0128818
0.0137529
0.0124278
0.0132459
0.0124282
0.0139495
0.0137621
0.0138844
0.0138167
0.0128985
0.0141128
0.0133788
0.0137259
0.0133375
0.0130531
0.013447
0.0137259
0.013619
0.0137336
0.0135994
0.0138002
0.0134043
0.01275
0.0135162
0.0137172
0.0136806
0.012305
0.0139235
0.013839
0.0133833
0.0135526
0.0136532
0.0136284
0.013968
0.0123153
0.0136592
0.0139237
0.0123125
0.0135265
0.0136326
0.0128095
0.0125157
0.0125313
0.0132844
0.0125556
0.013366
0.0131438
0.0132497
0.0140562
0.0126482
0.0137956
0.0139504
0.0134155
0.0138145
0.0132942
0.0139392
0.0134202
0.0136734
0.0140175
0.0133605
0.0125939
0.0134511
0.0139534
0.0138446
0.0137688
0.0139801
0.013229
0.0136301
0.0138449
0.0140638
0.0140075
0.0127433
0.0133481
0.0121059
0.0135743
0.0132855
0.0126858
0.0125573
0.0132788
0.0137706
0.0138529
0.0125461
0.0137688
0.0131935
0.0133476
0.0138295
0.0109557
0.0132969
0.0124432
0.0131911
0.0138547
0.0140653
0.0137453
0.0134913
0.012241
0.0137607
0.0134273
0.0136821
0.01249
0.0127437
0.0133502
0.0126039
0.0127674
0.0135997
0.012444
0.0133003
0.0123079
0.0137737
0.012644
0.0139968
0.0138267
0.0137999
0.0139042
0.0131678
0.0137877
0.0139044
0.0135699
0.0138683
0.0134438
0.0137841
0.0141512
0.0132275
0.0139098
0.0139583
0.0133522
0.0129854
0.0140283
0.0134388
0.0122409
0.0124258
0.0134561
0.0140263
0.0139548
0.0133904
0.014243
0.0142214
0.0137027
0.0135313
0.0133906
0.0133282
0.0127823
0.0133762
0.0137233
0.0140137
0.0130851
0.0129076
0.0128727
0.0131584
0.0133113
0.0121473
0.0137569
0.0131798
0.0137099
0.0134803
0.0138205
0.0134996
0.0127668
0.0136245
0.0139073
0.0129555
0.0138391
0.0139689
0.0131869
0.0133468
0.0113741
0.0129308
0.0133653
0.0134425
0.0127947
0.0127099
0.0134701
0.0126823
0.0137274
0.0130981
0.0133943
0.0138893
0.0133961
0.0124158
0.0132462
0.0134745
0.0139414
0.0126259
0.0120612
0.0138755
0.012495
0.0135264
0.0141131
0.0126699
0.0133836
0.0139994
0.0135787
0.0126182
0.0138564
0.0135808
0.0125155
0.0137819
0.0135204
0.0133012
0.013698
0.0122872
0.0130656
0.0135737
0.0132981
0.013435
0.0136239
0.0141381
0.0138217
0.0136634
0.013934
0.0138774
0.0137814
0.0130202
0.0137374
0.0139908
0.0141561
0.0129315
0.0134718
0.0135902
0.0142977
0.0128167
0.012244
0.013962
0.0128122
0.0141386
0.0132216
0.0126995
0.0135511
0.0138699
0.0136884
0.01368
0.0123222
0.0137458
0.0135129
0.0123802
0.0139605
0.0138399
0.0112928
0.0126845
0.0129537
0.0132927
0.0135267
0.013501
0.0134002
0.0134318
0.0138539
0.0134384
0.0134015
0.0127448
0.0140192
0.0124853
0.0133923
0.0134104
0.0131332
0.0140603
0.0133897
0.0129909
0.0124397
0.0127245
0.0133771
0.0138969
0.0128283
0.0140371
0.0135904
0.0138089
0.012708
0.0132077
0.0137594
0.0140574
0.0139342
0.0137209
0.0134537
0.013525
0.0140467
0.0140468
0.0139454
0.0130542
0.0138607
0.0126956
0.0139678
0.0138607
0.0133658
0.012849
0.0132575
0.0120033
0.0139264
0.0136554
0.0141369
0.0133521
0.0130523
0.012582
0.0136631
0.0124389
0.012272
0.0128437
0.0131827
0.0126899
0.0134135
0.0125824
0.0136956
0.0136922
0.0122335
0.0140432
0.0128009
0.0129722
0.013182
0.0131504
0.0137911
0.0139437
0.0140362
0.0139113
0.0134342
0.013473
0.0133313
0.0133103
0.0124586
0.0100611
0.0139875
0.0133031
0.0137885
0.0138547
0.0125728
0.0139146
0.0139759
0.0137506
0.0137767
0.0137114
0.013559
0.0140227
0.014074
0.0135129
0.0138793
0.0138788
0.0128475
0.0138843
0.0131711
0.0137171
0.0130627
0.0133189
0.0130516
0.0141225
0.0133143
0.0134904
0.0134779
0.0128618
0.0140359
0.0136085
0.0132693
0.0127789
0.0137164
0.0123532
0.0138193
0.013814
0.0130697
0.0140441
0.014113
0.0140111
0.0125298
0.0134747
0.0135308
0.0135834
0.0128039
0.0137897
0.0138727
0.013132
0.0134494
0.0130924
0.0137707
0.0132587
0.0133719
0.012374
0.0137466
0.0136473
0.0137751
0.0131934
0.0133862
0.0135746
0.0134194
0.0131842
0.0136786
0.0137721
0.0133047
0.0123572
0.0123668
0.0133159
0.0121299
0.0125597
0.0135793
0.0135657
0.0137992
0.0123161
0.0132738
0.0139425
0.0128817
0.0124466
0.0134666
0.0127697
0.01381
0.012989
0.0139386
0.0130664
0.0131953
0.0140366
0.0123516
0.0131829
0.0132656
0.0138237
0.0139986
0.0139023
0.012858
0.0136637
0.0139838
0.0131884
0.0140062
0.0138412
0.0137048
0.0137984
0.0134575
0.0141246
0.014114
0.0141056
0.0136713
0.0131906
0.0136018
0.0133888
0.0124384
0.0132024
0.013792
0.0138656
0.0140871
0.0133802
0.0139963
0.013876
0.0131113
0.0139
0.0138592
0.0137232
0.013883
0.0126422
0.0132461
0.0137723
0.0122717
0.0135218
0.0133346
0.0134483
0.0132866
0.0140277
0.013742
0.0138206
0.0133289
0.013759
0.0135132
0.013968
0.0135343
0.0133738
0.0127721
0.0138844
0.0129333
0.0132483
0.0134668
0.0132147
0.0136052
0.0140043
0.0127019
0.0139821
0.0127327
0.0135757
0.0133832
0.0132515
0.0133557
0.013955
0.0125718
0.013706
0.0138934
0.0140542
0.013592
0.013535
0.0121441
0.0138691
0.013858
0.0136541
0.0137214
0.0138477
0.0134912
0.0138088
0.013443
0.012829
0.0134178
0.0139957
0.0123401
0.0128935
0.0142709
0.0138089
0.013113
0.0133226
0.0135992
0.0130914
0.0133285
0.0129123
0.0138278
0.0140316
0.0122562
0.0135969
0.0138918
0.0139081
0.01421
0.0132353
0.0138555
0.0128702
0.0128344
0.013979
0.013861
0.0133567
0.0128332
0.0137877
0.0138518
0.0131011
0.0139974
0.0138835
0.0139187
0.0137282
0.0138067
0.0135836
0.0135293
0.0132567
0.0131266
0.0125175
0.0135658
0.0134852
0.0127932
0.0139103
0.0124938
0.0132162
0.0134175
0.0127431
0.013344
0.0132057
0.0136136
0.0135473
0.0138661
0.0127144
0.0127353
0.0133283
0.0125779
0.0130725
0.0138442
0.0133204
0.0139001
0.0136504
0.0133303
0.0140149
0.0132412
0.0136286
0.0133082
0.0133307
0.0136603
0.0129167
0.0134946
0.013817
0.0139281
0.0140701
0.0127661
0.012542
0.0134391
0.0138693
0.0128597
0.0132078
0.0138087
0.0133639
0.0142687
0.0133862
0.0132287
0.0138719
0.0126347
0.0138717
0.0141442
0.0127966
0.0131038
0.0133409
0.0132523
0.0140453
0.0140186
0.013803
0.0129162
0.0138132
0.012608
0.0133115
0.0139888
0.0132905
0.014244
0.0123658
0.0134383
0.0136923
0.0135233
0.0125052
0.0124914
0.013819
0.0140249
0.0132687
0.0139785
0.0136865
0.013356
0.0126754
0.0130781
0.0136727
0.0134367
0.0134252
0.0140783
0.0139085
0.0142155
0.0139752
0.0136695
0.0136807
0.0137251
0.0128681
0.0139227
0.0136936
0.0135263
0.0136268
0.0140476
0.0134607
0.0139802
0.0133039
0.0122153
0.0140964
0.0131691
0.0138882
0.0131819
0.0138475
0.0128883
0.0136904
0.0141912
0.0134067
0.0134245
0.0125247
0.0137699
0.0139205
0.0135907
0.0125956
0.0142385
0.0134415
0.0135424
0.0139787
0.0139439
0.0138008
0.0133497
0.013572
0.014199
0.0128703
0.0129724
0.0128001
0.0130172
0.013584
0.012534
0.0140211
0.0139104
0.0142039
0.0132989
0.0133211
0.0134814
0.013855
0.0134863
0.0136449
0.0139512
0.0140912
0.0135884
0.013864
0.0135095
0.0132408
0.0136591
0.0132104
0.0140902
0.0140182
0.0140492
0.0141514
0.0139166
0.0131237
0.0141704
0.0136202
0.0135872
0.0132374
0.0136138
0.0140229
0.0134055
0.0138162
0.0132924
0.0134407
0.013731
0.0129575
0.0125994
0.0132621
0.0134321
0.0141069
0.0131705
0.0125038
0.0136318
0.0138763
0.0130889
0.0131858
0.0134748
0.0140269
0.0139139
0.0132518
0.0132111
0.0134583
0.0139417
0.0132492
0.0134944
0.013511
0.0125289
0.01331
0.0133316
0.0137925
0.0139093
0.0134547
0.0139881
0.0138176
0.0134029
0.0135622
0.0126766
0.01293
0.0125544
0.0140402
0.0136281
0.0141261
0.0144559
0.013744
0.0125273
0.0138906
0.013284
0.0137492
0.0137057
0.0138185
0.0125786
0.0140272
0.0127548
0.0134786
0.013544
0.0134941
0.0142507
0.0133736
0.013807
0.0128591
0.0133442
0.0135397
0.0139993
0.0130451
0.0131313
0.0137041
0.0138788
0.013759
0.0137178
0.0140054
0.0127956
0.0135423
0.013348
0.013119
0.0137868
0.0141168
0.0140365
0.0138452
0.0141092
0.012825
0.0127804
0.0128392
0.0140483
0.0125981
0.0138089
0.0136773
0.0127013
0.0132513
0.0138232
0.0139668
0.0130901
0.0132241
0.0131791
0.0135417
0.0140718
0.0135142
0.012732
0.0135057
0.0141788
0.0139263
0.0142173
0.0140163
0.0143512
0.014056
0.0139743
0.0129586
0.0125821
0.0135208
0.0131032
0.0140762
0.0127818
0.0136061
0.0134092
0.0140585
0.0129888
0.0138329
0.0137946
0.0136715
0.0134118
0.0127531
0.0139223
0.0132893
0.0141886
0.0135204
0.0141334
0.0140454
0.0135151
0.0125877
0.0127146
0.0133386
0.0137741
0.0131315
0.0143079
0.0128677
0.0138325
0.0137555
0.0132895
0.0136715
0.0138214
0.0140272
0.0139968
0.0140326
0.0135832
0.0136743
0.0125466
0.0131599
0.0140485
0.0129673
0.0137642
0.0133491
0.0128152
0.0133789
0.0131005
0.0133687
0.0136989
0.0138512
0.0128703
0.0133291
0.013542
0.0127857
0.0131598
0.0133687
0.0135168
0.01377
0.0127777
0.0127352
0.0134117
0.0133226
0.0140516
0.0141887
0.0139947
0.013147
0.0132606
0.013537
0.0131
0.013916
0.0127046
0.0134661
0.0134554
0.0140972
0.0138857
0.0135434
0.013664
0.0139963
0.0127745
0.0135933
0.0140669
0.0132002
0.0119861
0.0134839
0.0128679
0.013614
0.0124535
0.0140426
0.0141636
0.0140661
0.0135471
0.0127353
0.0126777
0.0139014
0.0140875
0.0140582
0.0135689
0.0136455
0.013694
0.0140943
0.01389
0.0124565
0.0135488
0.0136486
0.013665
0.0132273
0.0137519
0.0124056
0.0140857
0.0138911
0.013514
0.0135691
0.0137592
0.0134259
0.0140808
0.0137287
0.0128685
0.0133426
0.013855
0.0132891
0.0135297
0.0137217
0.0124807
0.0128096
0.0140046
0.0141534
0.0139423
0.0141559
0.0137211
0.0139001
0.0136458
0.0135715
0.0136589
0.0139243
0.0132472
0.0134996
0.0130926
0.0134288
0.0139007
0.0123529
0.0136017
0.0124805
0.0138973
0.0125242
0.0125164
0.013302
0.0123559
0.0136714
0.0136478
0.0138823
0.0139204
0.0131767
0.0130116
0.0142033
0.0132198
0.0128532
0.0135639
0.0130702
0.0140112
0.0137583
0.0136333
0.0128226
0.0139165
0.0138641
0.0140114
0.0125875
0.0131489
0.0135889
0.0138366
0.0142565
0.0127022
0.0126176
0.0139652
0.0137272
0.0140661
0.0134541
0.0123384
0.0137306
0.0139061
0.0125994
0.0124491
0.0139317
0.0128215
0.0128205
0.0139287
0.0141611
0.0137523
0.0142575
0.0133553
0.0133574
0.0139974
0.0130739
0.0139739
0.0132155
0.0136128
0.013942
0.013308
0.0126025
0.013793
0.0138358
0.0132363
0.0133905
0.0135273
0.0130946
0.0122728
0.0135724
0.0137429
0.0139366
0.0132379
0.0136338
0.0125856
0.0137877
0.0141358
0.012479
0.0139086
0.0135817
0.012141
0.0126073
0.0135246
0.0134114
0.0138535
0.013329
0.012857
0.0138476
0.0141035
0.0140004
0.0137307
0.013993
0.0126658
0.0140014
0.0134456
0.012727
0.0127031
0.0120229
0.0127226
0.0136413
0.0133794
0.0136765
0.0134522
0.0128969
0.0130832
0.0124036
0.0123883
0.0142209
0.0141433
0.0128839
0.0140566
0.0140317
0.0128659
0.0134228
0.0136419
0.0131176
0.0131934
0.0139664
0.0130256
0.0123648
0.0140034
0.0141078
0.0132265
0.0140596
0.0133514
0.0129952
0.0128144
0.0133846
0.0125476
0.0127903
0.0136001
0.0136118
0.0133617
0.0140373
0.0140188
0.0134098
0.0139247
0.00971864
0.0134032
0.0126352
0.0133799
0.0139997
0.0133399
0.0131049
0.0133203
0.0128111
0.0136198
0.0133817
0.0130958
0.0126824
0.0122386
0.0122619
0.0133113
0.0127092
0.0134431
0.012672
0.0133208
0.013947
0.0136309
0.0133578
0.0135249
0.0137832
0.0134109
0.0137932
0.0124937
0.0135661
0.0140083
0.014025
0.0132594
0.0142309
0.0129984
0.0138488
0.0133372
0.0125665
0.0139557
0.0140101
0.0136775
0.0136392
0.0139464
0.0136633
0.0122705
0.0123514
0.0132704
0.0141087
0.0135773
0.0138781
0.0131975
0.0133381
0.0129387
0.0125889
0.012594
0.0125777
0.0137382
0.013579
0.0139268
0.0131787
0.0132431
0.0142296
0.0127265
0.0134299
0.0141262
0.0139653
0.0129794
0.0132822
0.0137827
0.0140136
0.0140053
0.0115177
0.0137017
0.013885
0.0136149
0.013438
0.0141716
0.0138688
0.0139993
0.0135865
0.0130883
0.0135031
0.0140316
0.013698
0.0133462
0.0126903
0.0139296
0.0139401
0.0139517
0.0138161
0.0124179
0.0120702
0.0132841
0.013795
0.0134385
0.0135649
0.013771
0.0138154
0.0138198
0.0132466
0.0138337
0.013493
0.013909
0.0128211
0.0128092
0.0132473
0.014157
0.0127821
0.0138515
0.012707
0.0133927
0.0134606
0.0141809
0.0134552
0.0138767
0.014121
0.0139068
0.01359
0.0138829
0.0134528
0.0132355
0.0123313
0.0141239
0.0119713
0.0126424
0.0117524
0.012288
0.0124603
0.0133403
0.0135759
0.0127471
0.0131919
0.0121036
0.0128323
0.0131066
0.01403
0.0124913
0.0126313
0.0137983
0.0125084
0.013283
0.01374
0.0138013
0.0132996
0.0127042
0.0123901
0.0131561
0.0141549
0.0130486
0.0125771
0.0137428
0.0132185
0.0135755
0.0133801
0.0128203
0.0139835
0.0123088
0.0126237
0.0133895
0.0140146
0.0132532
0.0134017
0.0134735
0.0134493
0.0122479
0.0128848
0.0132432
0.0139125
0.0137661
0.0126002
0.0121569
0.0133687
0.0140769
0.0133238
0.013447
0.0130387
0.0132316
0.0133668
0.0125937
0.0139842
0.0131572
0.0125788
0.0121368
0.0137185
0.0134309
0.014024
0.0135323
0.013866
0.0126607
0.0133483
0.0123194
0.0121617
0.013978
0.0128313
0.0134808
0.0134611
0.0130867
0.0126012
0.0140143
0.0138442
0.0140392
0.0136553
0.0118757
0.0134022
0.0122675
0.0140541
0.0127617
0.0139764
0.0121091
0.0136653
0.0138473
0.0131832
0.0132312
0.0122766
0.0130712
0.0133919
0.0138071
0.0137143
0.0140343
0.013942
0.012713
0.0140383
0.0122619
0.0135621
0.0136821
0.0139184
0.0139407
0.0131817
0.0141136
0.0133947
0.0131411
0.0131121
0.0135455
0.0139213
0.0130453
0.012768
0.0140232
0.013784
0.013303
0.014097
0.0136222
0.0137021
0.0138371
0.0138485
0.0139391
0.0133089
0.0132243
0.0139197
0.0138422
0.0121485
0.0133603
0.0129585
0.014072
0.0136341
0.0138924
0.0126511
0.0125872
0.0135022
0.0136694
0.0137443
0.0138702
0.0138714
0.0134809
0.0137442
0.0127391
0.0136961
0.0133461
0.0139864
0.0139321
0.0139588
0.0136028
0.0139905
0.0130326
0.0139658
0.0129653
0.0132471
0.0132563
0.0135012
0.0132448
0.0137378
0.0124969
0.0139149
0.013793
0.0133909
0.0126559
0.014058
0.0136838
0.0139028
0.0133302
0.0134438
0.0138768
0.0125583
0.0139571
0.0134857
0.0135317
0.0129722
0.0130734
0.0131513
0.0125526
0.0132226
0.014154
0.0135712
0.0121826
0.0136681
0.0124752
0.0136546
0.0136469
0.0123542
0.0124137
0.0131453
0.0135652
0.0138783
0.0132111
0.0133607
0.0134412
0.0122124
0.0132562
0.0139662
0.0139354
0.0139648
0.0134956
0.0137272
0.0127262
0.0127219
0.0141453
0.0134578
0.0136943
0.0137897
0.014157
0.0135207
0.0135349
0.0123142
0.0136559
0.0139015
0.0131676
0.0139689
0.0138404
0.0136283
0.0128384
0.013721
0.0133007
0.0121204
0.0135362
0.0129162
0.0126225
0.0136782
0.0134913
0.0139333
0.0138993
0.013586
0.0141351
0.0120777
0.0132024
0.0140054
0.0140687
0.012364
0.013697
0.0127923
0.0129891
0.0139823
0.0130713
0.0136795
0.0141813
0.0137712
0.0122355
0.0137952
0.0127028
0.0138836
0.013683
0.01358
0.0138946
0.0135437
0.0138617
0.0126143
0.0138056
0.0139487
0.0127554
0.0136106
0.0134376
0.0133041
0.0138707
0.013335
0.0138803
0.0140605
0.0140101
0.0133812
0.0139289
0.0134884
0.0137155
0.0130327
0.0129499
0.0125467
0.0123502
0.0136681
0.0137351
0.0134078
0.0140642
0.0129708
0.0140262
0.012364
0.0141535
0.0140767
0.0137633
0.0140141
0.0130159
0.01232
0.0133358
0.0126559
0.01389
0.0134534
0.0123866
0.0133081
0.0141872
0.0137716
0.0125244
0.0130221
0.0122764
0.0142066
0.0125724
0.0138859
0.0128693
0.0128072
0.0140293
0.0140118
0.0139588
0.0137154
0.0124568
0.0135971
0.0140514
0.0127951
0.0140658
0.0135516
0.0141701
0.0121573
0.0136636
0.0130908
0.0136274
0.0132163
0.0132255
0.0132339
0.0131256
0.0133639
0.0133814
0.0135336
0.0132657
0.0140963
0.0127814
0.0133623
0.0134344
0.0137375
0.014094
0.0128072
0.0137853
0.0126853
0.0132696
0.0139322
0.013926
0.0134089
0.0136773
0.0137391
0.0130832
0.0133641
0.0133553
0.0125199
0.0124551
0.0136754
0.0138178
0.0128697
0.0133087
0.0138318
0.0126964
0.0135637
0.012811
0.013734
0.0140377
0.0134311
0.0125737
0.0138426
0.0124471
0.0136495
0.0141038
0.0120856
0.0142622
0.0127634
0.0132475
0.0131951
0.0125751
0.0132284
0.0130677
0.0123223
0.0140153
0.0139889
0.0119761
0.0132128
0.0135415
0.0135617
0.0136634
0.0141312
0.0139131
0.0131231
0.0129862
0.0123807
0.0122164
0.0115693
0.0140686
0.0136304
0.0136975
0.0137429
0.0125687
0.0124998
0.0133029
0.0139519
0.0123111
0.0137166
0.0133663
0.0134597
0.0136438
0.0130331
0.0137165
0.0132025
0.013482
0.0140825
0.0118902
0.0134472
0.0136592
0.0138846
0.0136481
0.0138619
0.0135243
0.0126331
0.0141296
0.0144229
0.013425
0.0133621
0.0127233
0.0132259
0.0136848
0.0139405
0.0133562
0.0132905
0.0131696
0.0123392
0.0132012
0.0140192
0.0133974
0.0142674
0.0134935
0.0133633
0.0140709
0.0126407
0.0137865
0.0125494
0.0140696
0.0137227
0.0132098
0.014293
0.0131562
0.0134612
0.0140644
0.0133094
0.0138574
0.0133884
0.0137723
0.0126154
0.0134209
0.0133406
0.0128717
0.013812
0.0131037
0.0130799
0.0140446
0.012703
0.0139826
0.0133616
0.0139253
0.0130903
0.013612
0.012668
0.0127411
0.0140338
0.0126968
0.013341
0.0138271
0.0123977
0.013384
0.0138001
0.013188
0.0125986
0.0130803
0.0133783
0.013219
0.01369
0.013439
0.0138824
0.0132814
0.0139076
0.0122135
0.0125772
0.0140596
0.0131643
0.0123894
0.0126185
0.0134827
0.0111649
0.0124788
0.013411
0.0133621
0.0141418
0.0128435
0.0138679
0.0139355
0.0140341
0.0138877
0.0140744
0.0132502
0.0130466
0.0138195
0.013214
0.0130766
0.013838
0.0132604
0.0122352
0.012492
0.0133302
0.0116965
0.0137694
0.0137751
0.013098
0.013814
0.0138644
0.0135902
0.0143144
0.0131318
0.0125091
0.0131728
0.0133051
0.0137587
0.0130905
0.0135837
0.0140342
0.0133165
0.0131378
0.0134567
0.0141319
0.0138226
0.0143392
0.0139457
0.013458
0.0136034
0.0129027
0.0131715
0.0140886
0.0130299
0.0140795
0.0130833
0.0138101
0.0119891
0.0137206
0.0133724
0.0136581
0.0130073
0.0137175
0.0133446
0.0138198
0.0120214
0.0129921
0.0133858
0.0131897
0.013527
0.0134531
0.013464
0.0139491
0.0135738
0.0123979
0.0130299
0.0125779
0.0135336
0.0134212
0.0126497
0.0142942
0.0135019
0.0134996
0.0138922
0.012954
0.0126972
0.014028
0.0126631
0.0124059
0.0123322
0.0123594
0.012234
0.013158
0.0140682
0.0138842
0.0133782
0.0134911
0.0137597
0.0131548
0.0137459
0.012381
0.0139155
0.009919
0.0137619
0.0124833
0.0124145
0.0138011
0.0125125
0.0135721
0.0137274
0.0138386
0.0128233
0.0135717
0.0133384
0.0133747
0.0125634
0.0138415
0.0136017
0.0138999
0.0135436
0.0126338
0.013518
0.0133597
0.0131905
0.0123394
0.0129153
0.0128333
0.0123512
0.0125084
0.0133978
0.0131458
0.0126081
0.013145
0.0139032
0.013923
0.0140806
0.00999046
0.0124445
0.0139206
0.0125456
0.0137765
0.0123425
0.0140272
0.0138061
0.0138404
0.0126211
0.0134139
0.0140269
0.0140091
0.0136527
0.0139233
0.0134166
0.0135272
0.0133425
0.0125072
0.0135628
0.0131302
0.0131357
0.0131642
0.0124114
0.0133435
0.0139192
0.0128934
0.0130057
0.0125215
0.0137267
0.0136952
0.0122596
0.0133003
0.0134013
0.013697
0.0126191
0.0134607
0.0135409
0.0143521
0.0111449
0.0135304
0.0132783
0.0124476
0.013955
0.0128886
0.0127862
0.0136624
0.0140458
0.0124229
0.0139437
0.0135957
0.0125538
0.0124103
0.0139158
0.0140067
0.0125021
0.0134665
0.0123551
0.0129693
0.0140548
0.0130404
0.0136609
0.0136728
0.0140919
0.0131599
0.0131748
0.0129848
0.0133774
0.0135691
0.0130848
0.0138362
0.0126211
0.012617
0.0135557
0.0133532
0.0137414
0.0131385
0.013785
0.0137494
0.0135014
0.0139255
0.0137107
0.0132408
0.0128466
0.0137384
0.0132541
0.0130111
0.0135852
0.0140975
0.0138054
0.0132642
0.0125068
0.0136016
0.0129473
0.0123341
0.0130569
0.0133763
0.0123115
0.0136777
0.0128082
0.01183
0.0124388
0.013631
0.0117529
0.0132359
0.0137906
0.0135726
0.0124432
0.0136059
0.0143565
0.0126264
0.0122651
0.012719
0.0137986
0.0133703
0.0132333
0.0138563
0.0125053
0.0138203
0.0134239
0.0140466
0.0140474
0.0101058
0.0134695
0.0137222
0.0138043
0.0131788
0.0132553
0.0114256
0.0134493
0.0140018
0.0131219
0.0123822
0.0133518
0.0137828
0.0136037
0.0123029
0.0135689
0.0138151
0.0139845
0.0133188
0.0135491
0.012302
0.0124325
0.0123946
0.0134276
0.0132456
0.0136467
0.0141162
0.0138668
0.012035
0.0139005
0.0138952
0.0137418
0.013202
0.0138863
0.0128315
0.0127622
0.0131848
0.0134281
0.0129193
0.0122213
0.0136596
0.0131325
0.0138067
0.0128702
0.0117829
0.01308
0.0137987
0.0135362
0.0127593
0.0130379
0.0138274
0.0138984
0.0130032
0.0132634
0.0137672
0.0140535
0.0137117
0.0140779
0.0136592
0.0136375
0.0122734
0.0134365
0.0126715
0.0138346
0.0135175
0.0130549
0.0124921
0.0140988
0.0122606
0.0131459
0.0124748
0.0132083
0.0119269
0.0133987
0.0133464
0.0133722
0.0132554
0.0129439
0.0139081
0.0125988
0.0137152
0.0131629
0.013282
0.0120311
0.0137546
0.013398
0.0126893
0.0129624
0.0133807
0.0133335
0.0135062
0.0112081
0.0135391
0.0132322
0.0133203
0.0129314
0.0130568
0.0130331
0.0113273
0.0138386
0.0134088
0.00822899
0.0127258
0.0137579
0.0138046
0.0137266
0.0127923
0.0113136
0.0138584
0.0126571
0.0137973
0.0140787
0.0134938
0.0128278
0.0139119
0.0123703
0.0119827
0.0120919
0.0135387
0.0132964
0.0130474
0.0140922
0.0137646
0.0135375
0.0128369
0.0121297
0.0141713
0.0135002
0.0142135
0.0137873
0.0125051
0.0131112
0.0134408
0.0125153
0.0133681
0.013149
0.0134767
0.0144318
0.0133597
0.0134007
0.0125557
0.0132554
0.0130251
0.0136146
0.0132381
0.0123752
0.0127061
0.0135465
0.0137411
0.0125327
0.0136487
0.0129286
0.0137025
0.0126986
0.0126454
0.0112857
0.0139563
0.0138619
0.0136403
0.0138228
0.0131507
0.0126156
0.0122512
0.0114667
0.0133985
0.0123209
0.0132429
0.0130873
0.0138254
0.0131548
0.0137684
0.0128
0.00858459
0.0126295
0.0138118
0.00918597
0.0134515
0.0141713
0.0133703
0.0140703
0.0124356
0.0126801
0.0127956
0.0140478
0.0110862
0.0140251
0.0126375
0.0116485
0.0138058
0.0127169
0.0139007
0.00901173
0.0120884
0.0134924
0.0137854
0.0140217
0.013687
0.0139306
0.0136535
0.0136397
0.013872
0.0137281
0.0133186
0.0129884
0.011239
0.0137679
0.0129638
0.0130358
0.0139347
0.0139572
0.0134689
0.0123435
0.0139874
0.013714
0.0132554
0.012572
0.0123575
0.0136654
0.0139271
0.013883
0.013859
0.0133963
0.0134878
0.0124508
0.0137848
0.0133919
0.0136228
0.0130745
0.0123685
0.0116467
0.0131573
0.0142821
0.0136694
0.0132763
0.0127449
0.0131098
0.0126865
0.0124437
0.0137866
0.0130515
0.0105638
0.0110368
0.0118303
0.0125284
0.01352
0.0131421
0.0133072
0.0130974
0.0119228
0.0133478
0.013822
0.0120126
0.014272
0.0122016
0.0139215
0.012728
0.0138316
0.0136943
0.0135076
0.0136825
0.0130123
0.0125597
0.0128208
0.0130111
0.013671
0.0134435
0.0127812
0.0127748
0.0134525
0.0123109
0.0133719
0.0128064
0.0137661
0.012904
0.0132157
0.0106402
0.0138785
0.0140705
0.0134612
0.0137322
0.0131805
0.0132534
0.0136497
0.0136247
0.0135842
0.0140029
0.0135279
0.0122976
0.0121879
0.0143189
0.0124341
0.0122906
0.0121587
0.0134962
0.0139777
0.0132903
0.0140986
0.0142958
0.0139384
0.0137011
0.0130915
0.0124046
0.0132762
0.0117957
0.0135905
0.0133422
0.0131661
0.0131542
0.0128302
0.0132493
0.0140411
0.0119724
0.0128469
0.0132834
0.0120789
0.0138357
0.0115902
0.0119172
0.0122855
0.0136235
0.0126975
0.0123802
0.012744
0.0122434
0.0133215
0.011152
0.01121
0.0132921
0.0124144
0.0120223
0.0132767
0.0124919
0.0129554
0.0132244
0.012842
0.0123346
0.0133547
0.0126436
0.0128895
0.0123243
0.0130009
0.0129874
0.0115331
0.0138867
0.0132018
0.0133347
0.0127996
0.0125736
0.0123022
0.0132589
0.0132286
0.0139123
0.0134445
0.0136325
0.0130178
0.0134138
0.0138182
0.0137053
0.0109628
0.0112168
0.012132
0.0137582
0.0122237
0.013437
0.0110239
0.0129011
0.0134407
0.0129004
0.0131027
0.0129123
0.0129757
0.0130048
0.0140647
0.0126726
0.0129729
0.0140617
0.0121265
0.0130479
0.0124473
0.0137339
0.0127864
0.0122344
0.013247
0.0123956
0.0113052
0.0116151
0.0124395
0.0127987
0.0115102
0.013997
0.0127291
0.0120961
0.0129642
0.0137827
0.013002
0.0117671
0.0140666
0.0133389
0.0123337
0.0129409
0.0132971
0.0123834
0.0131906
0.013297
0.0130008
0.0122763
0.0120593
0.0131535
0.012655
0.0117463
0.0119452
0.0119747
0.0132045
0.0120736
0.0137707
0.0132196
0.0131571
0.0128493
0.0138192
0.0123585
0.0132531
0.012886
0.0089507
0.0138693
0.0118338
0.013246
0.013713
0.0138375
0.0113426
0.0135578
0.0139647
0.0125065
0.0133564
0.0130234
0.0127204
0.0112843
0.0131521
0.0125491
0.0138499
0.014211
0.0128057
0.0139216
0.0124646
0.0125401
0.012164
0.0110366
0.0114529
0.0139389
0.0116014
0.0136912
0.0125164
0.0118054
0.0129878
0.0140038
0.0114759
0.00933897
0.012443
0.0135228
0.0136591
0.0134348
0.00861113
0.0129516
0.0135553
0.0135067
0.0139956
0.0128387
0.0115773
0.0138342
0.0115578
0.0132549
0.0129068
0.0127217
0.0126832
0.0133575
0.0124235
0.0123666
0.0114799
0.012463
0.0135458
0.0130869
0.0130537
0.0120567
0.0127038
0.0127479
0.0124612
0.0135783
0.0119655
0.0123362
0.0133877
0.0136804
0.0120155
0.0136132
0.0126271
0.0141838
0.0116999
0.0138193
0.0129395
0.0134118
0.0133819
0.012668
0.0123539
0.014123
0.01313
0.0132438
0.0129859
0.0122099
0.0135542
0.0137468
0.0121725
0.0123743
0.0126931
0.0118064
0.0127189
0.0132243
0.0114713
0.0140257
0.0115035
0.0127563
0.0131315
0.0116046
0.0126435
0.0129445
0.0123343
0.0130192
0.0123601
0.0132104
0.0117267
0.0134779
0.0117712
0.0127125
0.0105827
0.0130549
0.0119244
0.0122062
0.0134503
0.0121254
0.0125463
0.0140714
0.0133715
0.013385
0.0137525
0.0116423
0.0131493
0.0126398
0.0131759
0.0132647
0.0128068
0.0138814
0.0134159
0.0121791
0.0120827
0.013505
0.013088
0.0131329
0.0113092
0.0137592
0.0141082
0.0136039
0.0130629
0.0123216
0.0125133
0.0128709
0.0120307
0.012333
0.0134543
0.012873
0.0126154
0.0128449
0.0127613
0.0129873
0.0117589
0.0125796
0.0122011
0.0113888
0.0138994
0.0129705
0.0123273
0.0137459
0.0129575
0.0128338
0.0132619
0.0114753
0.0121514
0.0118924
0.0118876
0.0140751
0.0133248
0.0111745
0.0137992
0.0116523
0.0129824
0.0132514
0.0129136
0.0136255
0.012751
0.0130931
0.0128004
0.0126679
0.0126112
0.0135851
0.0118227
0.012145
0.012696
0.0114396
0.0126725
0.0115022
0.0124871
0.0137476
0.0131774
0.0111281
0.0112017
0.0121622
0.0119028
0.0125319
0.0122665
0.0127993
0.0133786
0.0111364
0.0133246
0.0130168
0.0126424
0.0117518
0.0129114
0.0116274
0.0107539
0.0123211
0.0120151
0.0121523
0.0125925
0.0125259
0.012784
0.0120086
0.0134725
0.0120699
0.0128472
0.0122803
0.0129345
0.0126105
0.0117881
0.0131791
0.0127855
0.0112889
0.0122256
0.0126888
0.014025