/*--------------------------------*- C++ -*----------------------------------*\
| =========                 |                                                 |
| \\      /  F ield         | OpenFOAM: The Open Source CFD Toolbox           |
|  \\    /   O peration     | Version:  2212                                  |
|   \\  /    A nd           | Website:  www.openfoam.com                      |
|    \\/     M anipulation  |                                                 |
\*---------------------------------------------------------------------------*/
FoamFile
{
    version     2.0;
    format      ascii;
    arch        "LSB;label=32;scalar=64";
    class       volScalarField;
    location    "0.044";
    object      nut;
}
// * * * * * * * * * * * * * * * * * * * * * * * * * * * * * * * * * * * * * //

dimensions      [0 2 -1 0 0 0 0];

internalField   nonuniform List<scalar> 
31639
(
4.08794e-05
3.93284e-05
4.01676e-05
4.36719e-05
3.93245e-05
3.83104e-05
3.75403e-05
4.12283e-05
4.04074e-05
4.24331e-05
4.20503e-05
4.22529e-05
4.01132e-05
4.302e-05
3.83514e-05
3.62161e-05
4.11272e-05
3.81865e-05
3.62153e-05
3.96615e-05
3.11903e-05
4.24677e-05
4.30427e-05
3.64098e-05
3.55579e-05
3.99576e-05
3.95794e-05
3.42591e-05
3.77028e-05
4.31974e-05
4.25296e-05
3.71927e-05
4.31041e-05
3.56411e-05
3.30253e-05
4.30098e-05
2.9628e-05
4.4107e-05
4.27658e-05
2.84593e-05
3.29819e-05
3.27013e-05
4.2171e-05
4.21992e-05
4.20112e-05
4.25296e-05
3.83312e-05
3.8268e-05
4.11351e-05
4.33617e-05
4.23569e-05
2.9332e-05
4.3386e-05
3.0551e-05
3.75367e-05
4.03297e-05
3.14464e-05
3.97837e-05
3.91826e-05
3.15247e-05
3.97218e-05
4.18227e-05
3.55481e-05
3.93235e-05
4.05198e-05
4.35509e-05
3.96805e-05
3.97858e-05
3.41788e-05
4.33155e-05
4.2691e-05
3.65552e-05
4.17436e-05
3.98429e-05
4.28222e-05
3.29371e-05
4.22548e-05
3.82051e-05
3.84179e-05
4.15353e-05
3.574e-05
2.8124e-05
4.29368e-05
4.06268e-05
4.09435e-05
4.22742e-05
4.3192e-05
4.28171e-05
3.3977e-05
4.36632e-05
4.02817e-05
3.99085e-05
3.21331e-05
3.87354e-05
3.47267e-05
3.86405e-05
3.86284e-05
3.97354e-05
4.01131e-05
3.18296e-05
4.31914e-05
4.2209e-05
3.87405e-05
3.10317e-05
3.17706e-05
4.2728e-05
3.09795e-05
2.99141e-05
3.47726e-05
3.07012e-05
4.17024e-05
3.21289e-05
3.87299e-05
3.71278e-05
3.98792e-05
3.05732e-05
3.83716e-05
3.85714e-05
4.15255e-05
3.90985e-05
4.16979e-05
4.20726e-05
4.18665e-05
4.03673e-05
3.98074e-05
4.27711e-05
3.95884e-05
3.52154e-05
3.42871e-05
4.19007e-05
4.25246e-05
4.21352e-05
4.25369e-05
3.76697e-05
4.17675e-05
3.98089e-05
3.17232e-05
3.04169e-05
4.19571e-05
3.97184e-05
3.95847e-05
4.22455e-05
4.2455e-05
3.05092e-05
2.91993e-05
4.30855e-05
4.16868e-05
3.24543e-05
3.23568e-05
4.23516e-05
3.49282e-05
4.05303e-05
3.63575e-05
4.13107e-05
3.33889e-05
4.34048e-05
3.94327e-05
3.38525e-05
3.34288e-05
3.62524e-05
4.27411e-05
3.3666e-05
3.502e-05
3.1218e-05
3.21754e-05
3.8717e-05
3.30736e-05
4.33375e-05
4.21318e-05
3.09107e-05
3.73355e-05
3.75437e-05
3.28344e-05
3.99002e-05
4.36693e-05
4.1556e-05
4.02512e-05
4.34091e-05
4.00835e-05
3.98977e-05
3.85244e-05
3.84474e-05
3.78989e-05
2.91161e-05
4.00947e-05
4.38719e-05
3.89241e-05
4.31388e-05
3.2155e-05
3.18281e-05
4.45124e-05
4.18139e-05
4.12355e-05
3.91424e-05
3.98094e-05
3.78225e-05
3.75342e-05
4.1811e-05
3.13271e-05
3.77735e-05
4.27603e-05
4.36274e-05
4.15567e-05
4.14973e-05
3.93253e-05
3.92232e-05
3.87138e-05
3.7971e-05
4.22696e-05
2.91401e-05
3.92109e-05
3.7984e-05
4.08484e-05
4.21305e-05
4.14971e-05
4.29618e-05
3.31066e-05
3.62222e-05
4.2173e-05
4.18688e-05
4.11807e-05
3.87507e-05
3.12638e-05
3.89374e-05
3.13956e-05
3.84304e-05
4.1821e-05
3.61376e-05
3.26368e-05
4.1156e-05
4.07253e-05
4.37766e-05
3.37138e-05
3.1749e-05
4.10188e-05
4.1345e-05
3.16196e-05
4.31096e-05
3.51791e-05
3.09822e-05
3.8572e-05
4.09402e-05
3.9354e-05
3.64696e-05
3.57382e-05
4.12984e-05
3.8478e-05
3.77676e-05
3.27521e-05
3.90737e-05
3.80973e-05
3.29714e-05
3.64632e-05
4.33385e-05
4.20561e-05
3.71771e-05
3.32321e-05
4.16435e-05
4.15751e-05
3.92305e-05
4.35428e-05
4.26278e-05
4.00704e-05
4.26951e-05
3.8376e-05
3.8582e-05
3.06614e-05
3.58868e-05
4.26779e-05
3.80611e-05
4.09632e-05
3.69969e-05
3.95474e-05
4.34121e-05
4.35838e-05
4.02134e-05
3.1882e-05
3.82663e-05
3.50296e-05
4.24939e-05
3.86625e-05
4.30181e-05
4.34233e-05
3.75047e-05
3.26375e-05
3.49339e-05
3.34122e-05
3.12838e-05
4.24196e-05
3.40731e-05
4.22921e-05
3.88252e-05
3.66625e-05
3.35942e-05
4.38882e-05
3.73204e-05
3.66619e-05
4.24983e-05
3.9791e-05
3.52863e-05
3.89224e-05
3.41698e-05
3.95694e-05
3.8693e-05
3.27964e-05
3.76544e-05
3.80375e-05
2.81323e-05
3.0056e-05
4.23213e-05
4.30962e-05
4.13858e-05
3.11922e-05
3.35712e-05
4.15914e-05
3.42895e-05
3.42848e-05
4.29294e-05
4.37038e-05
3.83145e-05
4.23931e-05
4.32967e-05
3.30127e-05
4.2792e-05
3.05104e-05
3.07959e-05
4.27412e-05
4.2224e-05
4.24916e-05
4.34314e-05
4.15455e-05
3.36624e-05
3.92532e-05
3.88659e-05
4.27801e-05
4.35332e-05
4.38796e-05
3.87751e-05
3.77403e-05
4.10406e-05
4.1686e-05
4.07294e-05
3.81389e-05
3.88181e-05
3.84334e-05
3.90413e-05
4.11073e-05
3.85313e-05
3.28955e-05
4.04783e-05
4.3762e-05
3.76122e-05
4.26352e-05
4.30991e-05
3.91835e-05
3.28133e-05
3.9071e-05
3.89737e-05
3.10823e-05
4.38259e-05
3.38376e-05
4.01384e-05
4.21909e-05
3.02321e-05
3.93964e-05
3.91208e-05
3.18966e-05
3.9853e-05
3.33777e-05
3.91113e-05
4.31904e-05
4.08904e-05
2.99685e-05
4.04087e-05
3.34928e-05
4.04928e-05
4.24572e-05
4.28443e-05
4.24749e-05
3.38013e-05
4.19628e-05
3.13049e-05
3.8418e-05
3.07824e-05
4.3076e-05
4.20205e-05
4.2666e-05
4.22984e-05
3.51931e-05
4.32873e-05
3.91606e-05
4.10306e-05
3.88919e-05
3.41416e-05
3.90559e-05
4.13428e-05
4.09775e-05
4.15873e-05
3.99594e-05
4.15783e-05
3.85386e-05
3.28429e-05
3.8924e-05
4.1168e-05
4.13305e-05
3.01024e-05
4.27282e-05
4.22791e-05
3.90227e-05
4.08766e-05
4.13151e-05
3.96731e-05
4.32325e-05
3.15539e-05
4.06288e-05
4.26627e-05
3.02809e-05
3.95437e-05
4.06156e-05
3.34377e-05
3.17368e-05
3.18335e-05
3.70604e-05
3.15297e-05
3.8868e-05
3.87693e-05
3.68852e-05
4.30399e-05
3.24731e-05
4.20965e-05
4.30624e-05
3.93267e-05
4.18473e-05
3.77603e-05
4.26596e-05
3.90964e-05
3.96396e-05
4.35333e-05
3.92392e-05
3.21123e-05
3.9588e-05
4.27479e-05
4.2373e-05
4.12782e-05
4.31613e-05
3.8296e-05
4.04937e-05
4.19177e-05
4.35098e-05
4.27992e-05
3.30715e-05
3.87294e-05
2.90279e-05
3.84462e-05
3.86311e-05
3.24248e-05
3.10851e-05
3.73744e-05
4.15935e-05
4.21338e-05
3.18453e-05
4.13142e-05
3.6373e-05
3.90574e-05
4.16087e-05
2.99088e-05
3.87411e-05
3.06858e-05
3.81229e-05
4.24941e-05
4.35961e-05
4.17141e-05
3.88303e-05
3.053e-05
4.11042e-05
3.96886e-05
4.14482e-05
3.12099e-05
3.27004e-05
3.89765e-05
3.20413e-05
3.34047e-05
4.02029e-05
3.09609e-05
3.7735e-05
3.13892e-05
4.10686e-05
3.25167e-05
4.33539e-05
4.21799e-05
4.21034e-05
4.27442e-05
3.55826e-05
4.20474e-05
4.262e-05
3.98568e-05
4.19397e-05
3.9676e-05
4.21465e-05
4.34711e-05
3.6758e-05
4.25033e-05
4.30871e-05
3.91446e-05
3.56843e-05
4.34689e-05
3.95548e-05
2.98077e-05
3.04818e-05
3.9459e-05
4.28514e-05
4.31028e-05
3.88909e-05
4.40177e-05
4.35875e-05
4.15578e-05
3.98615e-05
3.79704e-05
3.83932e-05
3.3401e-05
3.91042e-05
4.05437e-05
4.32032e-05
3.48689e-05
3.44821e-05
3.41465e-05
3.77412e-05
3.88883e-05
2.94865e-05
4.11474e-05
3.63824e-05
4.10191e-05
3.90865e-05
4.23276e-05
3.89195e-05
3.3034e-05
4.07434e-05
4.30014e-05
3.46053e-05
4.2091e-05
4.34781e-05
3.89713e-05
3.88684e-05
3.41461e-05
3.43636e-05
3.91708e-05
3.95286e-05
3.33685e-05
3.28556e-05
3.96804e-05
3.51879e-05
4.10966e-05
3.52138e-05
3.83003e-05
4.25824e-05
3.92705e-05
3.14221e-05
3.62196e-05
3.96772e-05
4.29569e-05
3.20857e-05
2.89073e-05
4.2244e-05
3.14225e-05
4.01757e-05
4.37059e-05
3.23525e-05
3.93609e-05
4.24361e-05
3.91716e-05
3.15971e-05
4.24517e-05
3.90927e-05
3.21353e-05
4.21415e-05
4.01034e-05
3.85399e-05
4.14021e-05
3.01034e-05
3.61572e-05
3.9809e-05
3.75819e-05
3.6727e-05
3.90451e-05
4.29892e-05
4.24791e-05
4.11421e-05
4.25592e-05
4.27229e-05
4.18019e-05
3.53916e-05
4.17579e-05
4.28275e-05
4.37086e-05
3.45936e-05
3.97336e-05
3.98452e-05
4.47689e-05
3.34163e-05
2.98256e-05
4.31738e-05
3.42826e-05
4.41359e-05
3.80593e-05
3.29713e-05
3.967e-05
4.25117e-05
3.98229e-05
4.07062e-05
3.09141e-05
4.17495e-05
3.98506e-05
3.04255e-05
4.30082e-05
4.21178e-05
3.31782e-05
3.27031e-05
3.38344e-05
3.73167e-05
4.01369e-05
3.97542e-05
3.9027e-05
3.95741e-05
4.23332e-05
3.94299e-05
3.90522e-05
3.28685e-05
4.36022e-05
3.10851e-05
3.92992e-05
3.82856e-05
3.708e-05
4.37362e-05
3.92994e-05
3.49869e-05
3.11579e-05
3.24407e-05
3.8205e-05
4.27157e-05
3.4362e-05
4.3535e-05
3.8977e-05
4.22213e-05
3.27016e-05
3.81099e-05
4.15235e-05
4.37108e-05
4.28541e-05
4.1872e-05
3.97723e-05
3.911e-05
4.34141e-05
4.33407e-05
4.2688e-05
3.50963e-05
4.24557e-05
3.29064e-05
4.29567e-05
4.10545e-05
3.89042e-05
3.37564e-05
3.83756e-05
2.87953e-05
4.28832e-05
3.97673e-05
4.3755e-05
3.87582e-05
3.72249e-05
3.24953e-05
4.25024e-05
3.13441e-05
2.94341e-05
3.33495e-05
3.52584e-05
3.28058e-05
3.89656e-05
3.14574e-05
4.18563e-05
4.05289e-05
2.95518e-05
4.33141e-05
3.32048e-05
3.57846e-05
3.81604e-05
3.6871e-05
4.13814e-05
4.3094e-05
4.38544e-05
4.24186e-05
3.87591e-05
4.00242e-05
3.75557e-05
3.77866e-05
3.12492e-05
2.39588e-05
4.3143e-05
3.86825e-05
4.15061e-05
4.23396e-05
3.1998e-05
4.26625e-05
4.28429e-05
4.17262e-05
4.20274e-05
4.15908e-05
4.03286e-05
4.34133e-05
4.37109e-05
3.96377e-05
4.22888e-05
4.22445e-05
3.36941e-05
4.24768e-05
3.68467e-05
4.09474e-05
3.75313e-05
3.90233e-05
3.59219e-05
4.37377e-05
3.84524e-05
3.96387e-05
3.85295e-05
3.33898e-05
4.35473e-05
4.00317e-05
3.70291e-05
3.27746e-05
4.16415e-05
3.08424e-05
4.26305e-05
4.13266e-05
3.73812e-05
4.26944e-05
4.39315e-05
4.27138e-05
3.15928e-05
3.97896e-05
3.85487e-05
3.96488e-05
3.36196e-05
4.20972e-05
4.24404e-05
3.75232e-05
3.9385e-05
3.75093e-05
4.11107e-05
3.70649e-05
3.86075e-05
3.06135e-05
4.19158e-05
4.04699e-05
4.22844e-05
3.56695e-05
3.94244e-05
4.05477e-05
3.92556e-05
3.63608e-05
4.09547e-05
4.19875e-05
3.85092e-05
3.07334e-05
3.06261e-05
3.8822e-05
2.96987e-05
3.29104e-05
4.00521e-05
4.0238e-05
4.23412e-05
3.04564e-05
3.87901e-05
4.30076e-05
3.41385e-05
3.148e-05
4.00436e-05
3.34524e-05
4.0837e-05
3.44471e-05
4.24624e-05
3.55446e-05
3.67484e-05
4.34044e-05
3.06938e-05
3.79941e-05
3.84565e-05
4.21629e-05
4.29647e-05
4.29284e-05
3.35117e-05
4.14152e-05
4.26473e-05
3.67534e-05
4.33872e-05
4.21139e-05
4.0723e-05
4.24475e-05
3.97861e-05
4.36375e-05
4.38227e-05
4.35543e-05
4.12493e-05
3.70806e-05
4.04154e-05
3.93993e-05
3.16698e-05
3.83851e-05
4.12202e-05
4.25414e-05
4.30599e-05
3.87311e-05
4.33013e-05
4.22844e-05
3.79067e-05
4.2023e-05
4.23224e-05
4.11446e-05
4.17561e-05
3.24423e-05
3.76902e-05
4.19329e-05
2.97424e-05
3.93044e-05
3.87536e-05
3.84291e-05
3.8432e-05
4.35034e-05
4.15693e-05
4.24006e-05
3.85204e-05
4.13487e-05
3.97688e-05
4.2577e-05
4.0073e-05
3.7825e-05
3.30457e-05
4.24898e-05
3.34532e-05
3.80645e-05
3.86857e-05
3.79536e-05
4.02204e-05
4.33502e-05
3.2545e-05
4.29465e-05
3.30935e-05
4.04202e-05
3.75629e-05
3.83688e-05
3.89091e-05
4.31359e-05
3.20911e-05
4.14347e-05
4.25061e-05
4.25758e-05
3.9987e-05
3.94565e-05
2.93549e-05
4.23623e-05
4.2094e-05
4.08244e-05
4.18228e-05
4.24616e-05
4.00309e-05
4.05109e-05
3.97851e-05
3.39126e-05
3.84008e-05
4.32405e-05
3.10377e-05
3.43947e-05
4.44551e-05
4.22271e-05
3.62659e-05
3.78835e-05
3.98048e-05
3.60609e-05
3.88856e-05
3.46914e-05
4.20593e-05
4.2896e-05
2.95894e-05
3.98813e-05
4.29685e-05
4.1964e-05
4.34404e-05
3.85423e-05
4.24029e-05
3.38634e-05
3.36258e-05
4.32095e-05
4.22924e-05
3.9402e-05
3.40635e-05
4.19264e-05
4.2288e-05
3.52244e-05
4.29617e-05
4.26167e-05
4.28032e-05
4.08402e-05
4.21958e-05
3.99386e-05
4.042e-05
3.87962e-05
3.66815e-05
3.18972e-05
4.01169e-05
3.99179e-05
3.38395e-05
4.28777e-05
3.12368e-05
3.80549e-05
3.87039e-05
3.2927e-05
3.8613e-05
3.70197e-05
4.07909e-05
3.94503e-05
4.19527e-05
3.24355e-05
3.24964e-05
3.80423e-05
3.22127e-05
3.73676e-05
4.24375e-05
3.8738e-05
4.26439e-05
3.92698e-05
3.88759e-05
4.28431e-05
3.71528e-05
3.9595e-05
3.89781e-05
3.8787e-05
4.03332e-05
3.38716e-05
3.96006e-05
4.1806e-05
4.31337e-05
4.37002e-05
3.24715e-05
3.1953e-05
3.9338e-05
4.26266e-05
3.44952e-05
3.79655e-05
4.08484e-05
3.91336e-05
4.45828e-05
3.84622e-05
3.82951e-05
4.13582e-05
3.24179e-05
4.25157e-05
4.30728e-05
3.33579e-05
3.59327e-05
3.90967e-05
3.71046e-05
4.32841e-05
4.3024e-05
4.07222e-05
3.38301e-05
4.21916e-05
3.23018e-05
3.82413e-05
4.22054e-05
3.66024e-05
4.41292e-05
3.07667e-05
3.9386e-05
4.07226e-05
3.97066e-05
3.09503e-05
3.16751e-05
4.24996e-05
4.3204e-05
3.73266e-05
4.33177e-05
4.06743e-05
3.91749e-05
3.23501e-05
3.48586e-05
4.04146e-05
3.90278e-05
3.91772e-05
4.35116e-05
4.29884e-05
4.39471e-05
4.32935e-05
4.04093e-05
4.02134e-05
4.16672e-05
3.30714e-05
4.21992e-05
4.12978e-05
4.00899e-05
4.0232e-05
4.30477e-05
3.83267e-05
4.32635e-05
3.84759e-05
2.97986e-05
4.37562e-05
3.59628e-05
4.25134e-05
3.69783e-05
4.26046e-05
3.35744e-05
4.13832e-05
4.43119e-05
3.88911e-05
3.95126e-05
3.14092e-05
4.20497e-05
4.25868e-05
4.09294e-05
3.21774e-05
4.48144e-05
3.90173e-05
4.08604e-05
4.25976e-05
4.26307e-05
4.19436e-05
3.89431e-05
3.88271e-05
4.38656e-05
3.3512e-05
3.39659e-05
3.30915e-05
3.51558e-05
4.03017e-05
3.15454e-05
4.33305e-05
4.26555e-05
4.35338e-05
3.83629e-05
3.85971e-05
3.96502e-05
4.23565e-05
3.96372e-05
3.93914e-05
4.28311e-05
4.26498e-05
3.87196e-05
4.26652e-05
4.00813e-05
3.82346e-05
4.11378e-05
3.67743e-05
4.3276e-05
4.30797e-05
4.37506e-05
4.37363e-05
4.24804e-05
3.6289e-05
4.40889e-05
3.98375e-05
3.99811e-05
3.84346e-05
4.0564e-05
4.35681e-05
3.93573e-05
4.20907e-05
3.76446e-05
3.93178e-05
4.11243e-05
3.40672e-05
3.15629e-05
3.87562e-05
3.77502e-05
4.30404e-05
3.66348e-05
3.15305e-05
4.01648e-05
4.22769e-05
3.52374e-05
3.67902e-05
3.98105e-05
4.34198e-05
4.26597e-05
3.83592e-05
3.55572e-05
3.94922e-05
4.17267e-05
3.73009e-05
3.95641e-05
3.96629e-05
3.11897e-05
3.70195e-05
3.71425e-05
4.11161e-05
4.22153e-05
3.93569e-05
4.26532e-05
4.132e-05
3.93065e-05
3.97879e-05
3.33137e-05
3.50852e-05
3.09923e-05
4.24536e-05
4.04021e-05
4.34575e-05
4.55657e-05
4.1535e-05
3.17667e-05
4.20137e-05
3.74602e-05
4.0757e-05
4.08118e-05
4.21988e-05
3.17816e-05
4.34985e-05
3.29615e-05
3.9901e-05
3.97544e-05
3.89658e-05
4.42468e-05
3.83882e-05
4.14056e-05
3.42342e-05
3.86353e-05
3.90297e-05
4.21599e-05
3.6217e-05
3.47434e-05
4.1734e-05
4.22031e-05
4.09548e-05
4.1618e-05
4.30565e-05
3.33078e-05
3.85793e-05
3.83638e-05
3.51933e-05
4.2007e-05
4.33866e-05
4.35058e-05
4.25282e-05
4.39494e-05
3.33778e-05
3.27825e-05
3.35873e-05
4.33973e-05
3.16574e-05
4.2203e-05
4.0737e-05
3.30323e-05
3.72739e-05
4.205e-05
4.28379e-05
3.58311e-05
3.6895e-05
3.79158e-05
4.0043e-05
4.32731e-05
3.94625e-05
3.34348e-05
3.97917e-05
4.36678e-05
4.23521e-05
4.3705e-05
4.33176e-05
4.50715e-05
4.35166e-05
4.22094e-05
3.38631e-05
3.16541e-05
3.97455e-05
3.61813e-05
4.30093e-05
3.2391e-05
4.05589e-05
3.87767e-05
4.37413e-05
3.41483e-05
4.11604e-05
4.18437e-05
4.04644e-05
3.77907e-05
3.28764e-05
4.24446e-05
3.65026e-05
4.35707e-05
3.92939e-05
4.42975e-05
4.3631e-05
3.99368e-05
3.15624e-05
3.25157e-05
3.87954e-05
4.04176e-05
3.65166e-05
4.45203e-05
3.3084e-05
4.30933e-05
4.16848e-05
3.70673e-05
4.12076e-05
4.24175e-05
4.30196e-05
4.33219e-05
4.31748e-05
4.01787e-05
4.07598e-05
3.15129e-05
3.68008e-05
4.35134e-05
3.38753e-05
4.12782e-05
3.86885e-05
3.40074e-05
3.92435e-05
4.10581e-05
3.90562e-05
4.14786e-05
4.22851e-05
3.31557e-05
3.87156e-05
3.98895e-05
3.2929e-05
3.68209e-05
3.90779e-05
3.85221e-05
4.14095e-05
3.32683e-05
3.3035e-05
3.91295e-05
3.77137e-05
4.37022e-05
4.43295e-05
4.33557e-05
3.80663e-05
3.84372e-05
4.02486e-05
3.76943e-05
4.24173e-05
3.31722e-05
3.9695e-05
3.87482e-05
4.37048e-05
4.16591e-05
3.8575e-05
3.96959e-05
4.27299e-05
3.28698e-05
4.0014e-05
4.33177e-05
3.76484e-05
2.80144e-05
3.92923e-05
3.29978e-05
4.03825e-05
3.06747e-05
4.31072e-05
4.39264e-05
4.28393e-05
4.01883e-05
3.3295e-05
3.27092e-05
4.24208e-05
4.32644e-05
4.27323e-05
4.01307e-05
3.93034e-05
4.16755e-05
4.33958e-05
4.25247e-05
3.14687e-05
3.83479e-05
4.10585e-05
4.11829e-05
3.74949e-05
4.07738e-05
3.13364e-05
4.33494e-05
4.25682e-05
4.00805e-05
4.02877e-05
4.12914e-05
3.94217e-05
4.37461e-05
4.14184e-05
3.37301e-05
3.8966e-05
4.18281e-05
3.86312e-05
3.96801e-05
4.0878e-05
3.08162e-05
3.42258e-05
4.31673e-05
4.35971e-05
4.24925e-05
4.36694e-05
4.13206e-05
4.2814e-05
4.05957e-05
3.99963e-05
4.11753e-05
4.27634e-05
3.70185e-05
3.8764e-05
3.76689e-05
3.94732e-05
4.24297e-05
3.04928e-05
4.00961e-05
3.16041e-05
4.25746e-05
3.17398e-05
3.19252e-05
3.89612e-05
3.06542e-05
3.91578e-05
4.06643e-05
4.2611e-05
4.27672e-05
3.66504e-05
3.67154e-05
4.43269e-05
3.57785e-05
3.34564e-05
3.86598e-05
3.5758e-05
4.32457e-05
4.11707e-05
4.01739e-05
3.29686e-05
4.21282e-05
4.24212e-05
4.33308e-05
3.21902e-05
3.52796e-05
3.9924e-05
4.16611e-05
4.40681e-05
3.37382e-05
3.22601e-05
4.15834e-05
3.96209e-05
4.36218e-05
3.98055e-05
3.05726e-05
4.09551e-05
4.22845e-05
3.25072e-05
3.07983e-05
4.285e-05
3.43416e-05
3.41913e-05
4.31045e-05
4.36187e-05
4.19527e-05
4.46493e-05
3.93389e-05
3.76863e-05
4.30241e-05
3.59507e-05
4.32027e-05
3.68156e-05
4.07052e-05
4.25589e-05
3.88807e-05
3.25036e-05
4.23469e-05
4.27422e-05
3.77387e-05
3.91862e-05
3.96483e-05
3.53677e-05
3.75027e-05
4.01549e-05
4.01751e-05
4.29247e-05
3.73215e-05
4.15918e-05
3.20515e-05
4.18684e-05
4.38012e-05
3.11752e-05
4.22128e-05
4.00832e-05
2.91682e-05
3.24139e-05
3.99806e-05
3.94583e-05
4.21936e-05
3.74772e-05
3.36597e-05
4.24121e-05
4.34456e-05
4.2976e-05
4.08986e-05
4.34438e-05
3.23862e-05
4.30648e-05
3.94353e-05
3.2835e-05
3.28394e-05
2.82415e-05
3.35118e-05
4.13072e-05
3.78111e-05
4.06793e-05
3.97512e-05
3.51757e-05
3.6312e-05
3.07695e-05
3.05914e-05
4.43135e-05
4.38281e-05
3.36818e-05
4.32053e-05
4.243e-05
3.34079e-05
3.90049e-05
3.9708e-05
3.51299e-05
3.73635e-05
4.349e-05
3.45458e-05
3.03334e-05
4.34058e-05
4.36594e-05
3.6279e-05
4.31617e-05
3.73433e-05
3.48589e-05
3.33344e-05
3.8967e-05
3.2205e-05
3.28607e-05
4.02689e-05
4.1279e-05
3.86929e-05
4.2464e-05
4.31177e-05
3.90667e-05
4.28839e-05
2.45228e-05
3.89183e-05
3.25876e-05
3.97389e-05
4.27248e-05
3.90872e-05
3.63591e-05
3.89819e-05
3.38018e-05
4.08403e-05
3.91387e-05
3.66762e-05
3.23826e-05
3.02972e-05
2.97545e-05
3.75037e-05
3.27557e-05
3.88127e-05
3.31579e-05
3.78093e-05
4.30181e-05
4.04653e-05
3.78941e-05
3.9951e-05
4.11906e-05
3.90958e-05
4.20948e-05
3.12803e-05
3.99768e-05
4.33595e-05
4.35e-05
3.85029e-05
4.45873e-05
3.49628e-05
4.14184e-05
3.87744e-05
3.1909e-05
4.19926e-05
4.35036e-05
4.13002e-05
4.16455e-05
4.24488e-05
4.033e-05
2.9964e-05
3.09747e-05
3.84952e-05
4.38624e-05
3.9831e-05
4.26824e-05
3.67194e-05
3.79199e-05
3.44237e-05
3.18077e-05
3.18918e-05
3.14407e-05
4.15026e-05
4.03489e-05
4.31794e-05
3.80472e-05
3.72894e-05
4.42398e-05
3.18568e-05
3.97107e-05
4.33971e-05
4.27684e-05
3.69886e-05
3.82859e-05
4.19176e-05
4.32956e-05
4.2928e-05
3.30802e-05
3.99618e-05
4.21266e-05
4.07087e-05
3.97396e-05
4.39712e-05
4.18757e-05
4.32309e-05
4.05318e-05
3.5911e-05
4.01258e-05
4.27983e-05
4.14859e-05
3.92724e-05
3.23436e-05
4.29612e-05
4.26021e-05
4.22772e-05
4.23366e-05
3.15055e-05
2.89554e-05
3.85936e-05
4.16328e-05
3.79577e-05
4.06843e-05
4.20801e-05
4.23864e-05
4.25633e-05
3.71907e-05
4.16607e-05
3.94387e-05
4.23981e-05
3.26207e-05
3.25077e-05
3.80032e-05
4.31281e-05
3.35264e-05
4.23869e-05
3.28249e-05
3.84172e-05
3.95116e-05
4.34105e-05
3.84424e-05
4.28434e-05
4.2811e-05
4.20421e-05
4.02579e-05
4.176e-05
3.96698e-05
3.70393e-05
3.02875e-05
4.38919e-05
2.80991e-05
3.12564e-05
3.40294e-05
3.09346e-05
3.10886e-05
3.82474e-05
4.01066e-05
3.30878e-05
3.68268e-05
2.88024e-05
3.35253e-05
3.78519e-05
4.29844e-05
3.1376e-05
3.19887e-05
4.21461e-05
3.14583e-05
3.84434e-05
4.13917e-05
4.06383e-05
3.91361e-05
3.29368e-05
3.11602e-05
3.72501e-05
4.3745e-05
3.48683e-05
3.21925e-05
4.02757e-05
3.67017e-05
4.01906e-05
3.92465e-05
3.3001e-05
4.28838e-05
3.04659e-05
3.17283e-05
3.79652e-05
4.25915e-05
3.67895e-05
3.81485e-05
3.84458e-05
3.99178e-05
2.99504e-05
3.40295e-05
3.82051e-05
4.32892e-05
4.15819e-05
3.15363e-05
2.92238e-05
3.81341e-05
4.40452e-05
3.90031e-05
3.93087e-05
3.65546e-05
3.85693e-05
3.93266e-05
3.24842e-05
4.32428e-05
3.64569e-05
3.22819e-05
2.91696e-05
4.18035e-05
3.95231e-05
4.32891e-05
4.01438e-05
4.23636e-05
3.24302e-05
3.7998e-05
3.02905e-05
2.86661e-05
4.19614e-05
3.32972e-05
3.81722e-05
3.96451e-05
4.06581e-05
3.22819e-05
4.33544e-05
4.22518e-05
4.35373e-05
4.06267e-05
2.70971e-05
3.93274e-05
3.06083e-05
4.32886e-05
3.27655e-05
4.305e-05
2.90305e-05
4.06588e-05
4.10041e-05
3.64073e-05
3.71788e-05
2.98618e-05
3.5776e-05
3.93985e-05
4.20267e-05
4.10982e-05
4.31906e-05
4.25723e-05
3.26112e-05
4.33535e-05
3.78605e-05
4.02859e-05
4.08644e-05
4.25775e-05
4.20786e-05
3.94048e-05
4.34207e-05
3.82814e-05
3.64994e-05
3.6346e-05
4.03347e-05
4.2518e-05
3.60055e-05
3.38607e-05
4.27607e-05
4.07026e-05
3.89589e-05
4.42593e-05
4.06508e-05
4.02515e-05
4.12014e-05
4.25982e-05
4.25395e-05
3.9239e-05
3.80704e-05
4.24431e-05
4.1483e-05
3.47228e-05
3.92668e-05
3.54717e-05
4.33193e-05
4.03409e-05
4.28924e-05
3.274e-05
3.27634e-05
3.97693e-05
4.18201e-05
4.18703e-05
4.33139e-05
4.24906e-05
3.96236e-05
4.13964e-05
3.32838e-05
3.93153e-05
3.92846e-05
4.29634e-05
4.27069e-05
4.30871e-05
3.8837e-05
4.34862e-05
3.43095e-05
4.31607e-05
3.56919e-05
3.85964e-05
3.75155e-05
3.97799e-05
3.86093e-05
4.17211e-05
3.18277e-05
4.26303e-05
4.21441e-05
3.84409e-05
3.29268e-05
4.33529e-05
4.14052e-05
4.25466e-05
3.89497e-05
3.96063e-05
4.18702e-05
3.20724e-05
4.31676e-05
3.84281e-05
3.98821e-05
3.52765e-05
3.59821e-05
3.54335e-05
3.16572e-05
3.69619e-05
4.40737e-05
3.99329e-05
3.05812e-05
4.00052e-05
3.15329e-05
4.01746e-05
4.04736e-05
3.02947e-05
3.15321e-05
3.60957e-05
3.98412e-05
4.18886e-05
3.70987e-05
4.18538e-05
3.86036e-05
3.58831e-05
3.64872e-05
4.32591e-05
4.29038e-05
4.27737e-05
4.17702e-05
4.08307e-05
3.23063e-05
3.33146e-05
4.35407e-05
3.79035e-05
3.97938e-05
4.18701e-05
4.40978e-05
3.98883e-05
4.10724e-05
3.04003e-05
4.20723e-05
4.26799e-05
3.69362e-05
4.31941e-05
4.27489e-05
4.05342e-05
3.72101e-05
4.1377e-05
3.73258e-05
3.01153e-05
3.98853e-05
3.3377e-05
3.16509e-05
3.9871e-05
3.94976e-05
4.18251e-05
4.1799e-05
4.02369e-05
4.32304e-05
2.88633e-05
3.69564e-05
4.33434e-05
4.31658e-05
3.06858e-05
3.97996e-05
3.41342e-05
3.7227e-05
4.32435e-05
3.62586e-05
4.09088e-05
4.39748e-05
4.13873e-05
3.02492e-05
4.19871e-05
3.24642e-05
4.28823e-05
4.16442e-05
4.06893e-05
4.30006e-05
4.02258e-05
4.27702e-05
3.24265e-05
4.26446e-05
4.30866e-05
3.38155e-05
4.08144e-05
3.93561e-05
3.75262e-05
4.21274e-05
3.80558e-05
4.24742e-05
4.33843e-05
4.37174e-05
3.91874e-05
4.2827e-05
3.95092e-05
4.16311e-05
3.47238e-05
3.68727e-05
3.17892e-05
3.11686e-05
4.03833e-05
4.11582e-05
3.92973e-05
4.33436e-05
3.82418e-05
4.33809e-05
3.08289e-05
4.36335e-05
4.36977e-05
4.12074e-05
4.35296e-05
3.43651e-05
3.03552e-05
3.88718e-05
3.16979e-05
4.27655e-05
3.96036e-05
3.03957e-05
3.81573e-05
4.38379e-05
4.08126e-05
3.17729e-05
3.52258e-05
3.01572e-05
4.42108e-05
3.15457e-05
4.22337e-05
3.65283e-05
3.26225e-05
4.28826e-05
4.30588e-05
4.29981e-05
4.18147e-05
3.22598e-05
4.06684e-05
4.32215e-05
3.37925e-05
4.30949e-05
4.04525e-05
4.33815e-05
3.03407e-05
4.18302e-05
3.70029e-05
4.08421e-05
3.69402e-05
3.86453e-05
3.74586e-05
3.66185e-05
3.76655e-05
3.81043e-05
4.13857e-05
3.88955e-05
4.3667e-05
3.38476e-05
3.89684e-05
3.95453e-05
4.18301e-05
4.32081e-05
3.22446e-05
4.22822e-05
3.33257e-05
3.88134e-05
4.30093e-05
4.29309e-05
3.80136e-05
4.06851e-05
4.12817e-05
3.71055e-05
3.94218e-05
3.83055e-05
3.18143e-05
3.17735e-05
4.0716e-05
4.2156e-05
3.90552e-05
3.74079e-05
4.22158e-05
3.29298e-05
4.03382e-05
3.30005e-05
4.13675e-05
4.34014e-05
3.96251e-05
3.20278e-05
4.22453e-05
3.15229e-05
4.06282e-05
4.29634e-05
3.05437e-05
4.40507e-05
3.36825e-05
3.70397e-05
3.78883e-05
3.20935e-05
3.67866e-05
3.75096e-05
2.9889e-05
4.24704e-05
4.30004e-05
2.83385e-05
3.67374e-05
4.13802e-05
3.95259e-05
4.05119e-05
4.39268e-05
4.23902e-05
3.8489e-05
3.55265e-05
3.08376e-05
2.97319e-05
3.50308e-05
4.36766e-05
4.22253e-05
4.13816e-05
4.14921e-05
3.23861e-05
3.20864e-05
3.88481e-05
4.22609e-05
3.03372e-05
4.11524e-05
3.94362e-05
3.81727e-05
4.14409e-05
3.71946e-05
4.19231e-05
3.58182e-05
3.89064e-05
4.34003e-05
2.76922e-05
4.03541e-05
4.23501e-05
4.25117e-05
4.12026e-05
4.23237e-05
3.98628e-05
3.21194e-05
4.37661e-05
4.48307e-05
3.96371e-05
3.95308e-05
3.69593e-05
3.90791e-05
4.11664e-05
4.19329e-05
3.96034e-05
3.86074e-05
3.83684e-05
3.098e-05
3.73422e-05
4.34686e-05
4.10457e-05
4.46845e-05
3.96652e-05
3.84293e-05
4.34638e-05
3.24417e-05
4.1851e-05
3.2132e-05
4.31436e-05
4.1147e-05
3.73612e-05
4.43762e-05
3.68774e-05
3.88922e-05
4.34542e-05
3.79408e-05
4.34399e-05
4.17351e-05
4.17212e-05
3.19292e-05
3.93713e-05
3.90378e-05
3.46097e-05
4.22707e-05
3.79642e-05
3.79971e-05
4.33962e-05
3.25018e-05
4.31224e-05
3.94319e-05
4.28276e-05
3.68864e-05
4.02661e-05
3.2088e-05
3.32351e-05
4.39997e-05
3.27373e-05
3.92245e-05
4.19328e-05
3.16409e-05
3.8489e-05
4.22949e-05
3.66252e-05
3.31507e-05
3.56899e-05
3.79582e-05
3.76854e-05
4.19683e-05
3.81979e-05
4.25682e-05
4.01371e-05
4.24512e-05
2.99892e-05
3.48081e-05
4.33768e-05
3.86542e-05
3.13203e-05
3.32767e-05
3.92542e-05
3.30414e-05
3.20359e-05
3.94726e-05
3.87747e-05
4.39356e-05
3.76432e-05
4.2409e-05
4.24587e-05
4.21803e-05
4.24976e-05
4.25436e-05
3.75513e-05
3.66232e-05
4.23449e-05
3.86002e-05
3.75687e-05
4.29066e-05
3.92075e-05
3.09534e-05
3.15246e-05
3.83809e-05
3.40331e-05
4.10836e-05
4.20623e-05
3.78695e-05
4.25457e-05
4.22258e-05
4.17654e-05
4.45591e-05
3.84687e-05
3.21905e-05
3.76256e-05
3.7788e-05
4.21107e-05
3.79117e-05
4.12468e-05
4.30467e-05
3.82465e-05
3.69012e-05
3.98164e-05
4.32691e-05
4.14622e-05
4.5047e-05
4.19233e-05
3.80575e-05
3.89212e-05
3.40518e-05
3.69691e-05
4.33019e-05
3.46265e-05
4.36316e-05
3.74082e-05
4.2295e-05
3.16992e-05
4.13975e-05
3.94709e-05
4.21072e-05
3.88197e-05
4.09052e-05
3.9053e-05
4.24802e-05
3.08955e-05
3.37906e-05
3.95066e-05
3.70456e-05
4.01551e-05
3.9457e-05
3.96678e-05
4.2983e-05
3.99712e-05
3.07132e-05
3.57292e-05
3.19848e-05
4.00395e-05
3.91091e-05
3.27561e-05
4.47008e-05
3.94961e-05
3.86432e-05
4.19627e-05
3.50364e-05
3.30819e-05
4.35619e-05
3.30617e-05
3.14651e-05
3.84939e-05
3.75544e-05
3.32253e-05
3.59285e-05
4.33145e-05
4.24607e-05
3.73319e-05
4.0007e-05
4.2166e-05
3.92137e-05
4.17385e-05
3.09172e-05
4.27916e-05
2.50483e-05
4.21615e-05
3.24194e-05
3.18371e-05
4.24215e-05
3.1517e-05
3.88276e-05
4.03996e-05
4.22784e-05
3.67703e-05
4.10754e-05
3.7931e-05
3.90021e-05
3.72787e-05
4.14011e-05
4.02056e-05
4.26216e-05
3.95589e-05
3.27872e-05
4.14052e-05
3.90692e-05
3.85831e-05
3.91152e-05
3.41659e-05
3.62589e-05
3.08216e-05
3.18684e-05
3.93947e-05
3.80308e-05
3.3642e-05
3.69136e-05
4.21876e-05
4.32743e-05
4.30048e-05
2.43585e-05
3.08131e-05
4.29651e-05
3.16901e-05
4.14749e-05
3.11324e-05
4.28359e-05
4.21953e-05
4.2287e-05
3.25876e-05
3.83161e-05
4.3307e-05
4.3165e-05
4.02967e-05
4.31736e-05
3.9083e-05
4.00222e-05
3.8981e-05
3.20697e-05
4.00407e-05
3.61725e-05
3.92814e-05
3.89631e-05
3.42373e-05
3.86055e-05
4.3074e-05
3.56401e-05
3.60199e-05
3.1863e-05
4.19848e-05
4.18354e-05
2.98469e-05
3.89586e-05
3.9273e-05
4.07322e-05
3.24509e-05
3.95657e-05
3.90754e-05
4.42144e-05
3.11228e-05
3.87514e-05
3.8673e-05
3.02221e-05
4.26032e-05
3.30927e-05
3.34095e-05
4.03493e-05
4.33371e-05
3.07836e-05
4.24751e-05
4.06268e-05
3.9488e-05
3.06375e-05
4.32414e-05
4.33717e-05
3.04743e-05
3.94963e-05
2.97931e-05
3.32582e-05
4.32273e-05
3.73622e-05
4.01483e-05
4.21583e-05
4.3572e-05
3.80473e-05
3.6813e-05
3.8536e-05
3.82284e-05
3.99032e-05
3.68518e-05
4.29682e-05
3.26979e-05
3.71434e-05
3.91401e-05
3.78399e-05
4.16309e-05
3.86123e-05
4.11241e-05
4.13647e-05
3.95631e-05
4.32711e-05
4.13307e-05
3.77888e-05
3.56792e-05
4.17174e-05
3.82329e-05
3.72172e-05
4.10443e-05
4.34976e-05
4.15342e-05
4.16217e-05
3.66889e-05
4.13685e-05
3.60064e-05
3.2017e-05
3.89774e-05
4.04147e-05
3.18375e-05
4.07386e-05
3.85124e-05
2.85781e-05
3.19112e-05
4.15403e-05
3.14214e-05
3.80691e-05
4.17702e-05
4.04599e-05
3.19349e-05
4.03609e-05
4.4238e-05
3.29772e-05
3.20724e-05
3.27047e-05
4.27692e-05
3.91944e-05
3.84422e-05
4.25557e-05
3.17274e-05
4.12993e-05
3.95563e-05
4.33996e-05
4.35638e-05
2.6555e-05
3.96021e-05
4.10181e-05
4.16895e-05
3.95641e-05
3.87139e-05
3.3298e-05
4.02588e-05
4.35724e-05
3.60446e-05
3.0431e-05
3.74511e-05
4.25833e-05
4.10231e-05
3.14055e-05
3.82696e-05
4.20318e-05
4.28921e-05
3.87966e-05
3.83993e-05
2.9832e-05
3.23751e-05
3.21833e-05
3.94296e-05
3.81002e-05
4.01604e-05
4.37156e-05
4.27002e-05
3.51112e-05
4.24754e-05
4.2818e-05
4.10488e-05
3.69176e-05
4.24488e-05
3.79305e-05
3.33462e-05
3.68316e-05
3.93275e-05
4.03039e-05
3.59005e-05
4.0814e-05
3.72483e-05
4.25501e-05
3.30886e-05
3.03483e-05
3.79143e-05
4.31784e-05
4.1653e-05
3.68491e-05
3.76424e-05
4.19272e-05
4.27445e-05
3.71906e-05
3.77627e-05
4.25196e-05
4.36729e-05
4.14482e-05
4.34366e-05
4.1776e-05
4.16017e-05
3.08596e-05
3.79286e-05
3.21562e-05
4.11447e-05
4.27019e-05
3.66767e-05
3.19423e-05
4.34491e-05
3.16704e-05
3.6023e-05
3.34348e-05
3.87632e-05
3.11524e-05
4.06822e-05
3.90639e-05
3.87602e-05
3.93002e-05
3.41906e-05
4.30186e-05
3.27786e-05
4.10454e-05
3.91836e-05
3.84187e-05
3.17047e-05
4.20656e-05
4.07719e-05
3.35363e-05
3.48557e-05
3.80654e-05
3.75321e-05
3.93529e-05
3.15792e-05
4.02573e-05
3.74495e-05
3.9634e-05
3.60865e-05
3.5981e-05
3.58079e-05
3.20332e-05
4.21618e-05
3.9212e-05
1.46118e-05
3.30594e-05
3.973e-05
4.28387e-05
4.18885e-05
3.37318e-05
3.31924e-05
4.2835e-05
3.23002e-05
4.20378e-05
4.33056e-05
4.00052e-05
3.31233e-05
4.27234e-05
3.15228e-05
2.99552e-05
2.99326e-05
4.10164e-05
3.86151e-05
3.66624e-05
4.34808e-05
4.13603e-05
3.9974e-05
3.34514e-05
2.89458e-05
4.38426e-05
3.95489e-05
4.40072e-05
4.26044e-05
3.20297e-05
3.84823e-05
3.82534e-05
3.76494e-05
3.89772e-05
3.64922e-05
3.78427e-05
4.52945e-05
3.97992e-05
3.72359e-05
3.24885e-05
4.03051e-05
3.85597e-05
4.11713e-05
3.7346e-05
3.17219e-05
3.28428e-05
4.06205e-05
4.10142e-05
3.65454e-05