/*--------------------------------*- C++ -*----------------------------------*\
| =========                 |                                                 |
| \\      /  F ield         | OpenFOAM: The Open Source CFD Toolbox           |
|  \\    /   O peration     | Version:  2212                                  |
|   \\  /    A nd           | Website:  www.openfoam.com                      |
|    \\/     M anipulation  |                                                 |
\*---------------------------------------------------------------------------*/
FoamFile
{
    version     2.0;
    format      ascii;
    arch        "LSB;label=32;scalar=64";
    class       volScalarField;
    location    "0.044";
    object      p;
}
// * * * * * * * * * * * * * * * * * * * * * * * * * * * * * * * * * * * * * //

dimensions      [0 2 -2 0 0 0 0];

internalField   nonuniform List<scalar> 
31639
(
0.0123135
0.00857067
0.0140848
0.00627331
0.00865204
0.0120673
0.0135186
0.012875
0.00915111
0.00781125
0.0134119
0.00872598
0.00906636
0.0117899
0.010262
0.014405
0.0167076
0.0170847
0.00280124
0.0131048
0.00953026
0.00736698
0.0100301
0.00620494
0.0107643
0.0127458
0.0123927
0.0391516
0.0129498
0.0129204
0.00693705
0.0184473
0.00920414
0.00498498
0.0224277
0.0128599
0.00739849
0.0134344
0.0134181
0.010978
0.00877314
0.0125653
0.00982381
0.0136372
0.0140546
0.00586557
0.00880109
0.00695252
0.0150795
0.00632693
0.00583591
0.00468237
0.0228504
0.0139393
0.00456441
0.017062
0.00749355
0.0124738
0.00858013
0.00598186
0.00656644
0.0125818
0.0104366
0.0128458
0.022657
0.00369765
0.00227044
0.00718623
0.0088962
0.00556699
0.00791428
0.0168255
0.00772228
0.00333312
0.0229563
0.0182683
0.00792988
0.00734221
0.00850459
0.00806918
0.0122693
0.0117756
0.0116017
0.00646011
0.01147
0.0106367
0.00984374
0.00694917
0.00225938
0.00927036
0.00526125
0.0167511
0.00614889
0.00818052
0.0039233
0.0123951
0.00667991
0.0047244
0.00896933
0.0118993
0.0211853
0.0211635
0.0107997
0.00821207
0.00455717
0.0056922
0.0120712
0.006033
0.00699344
0.0108867
0.0134755
0.0117458
0.0125615
0.00739404
0.00329208
0.0131191
0.0225201
0.0139073
0.021292
0.00660219
0.0186228
0.00571389
0.00297021
0.00630335
0.0120048
0.0117967
0.00848834
0.00639731
0.00780551
0.00944905
0.0222854
0.000985783
0.0142547
0.00335144
0.00402009
0.00715616
0.00748558
0.00819085
0.00587811
0.00655857
0.00649882
0.00966299
0.0105356
0.00603104
0.00880325
0.0114697
0.0214351
0.00747184
0.011078
0.0228899
0.00669871
0.0154091
0.00480015
0.00431969
0.00560442
0.00428138
0.00315614
0.00786804
0.0149877
0.00710651
0.00391185
0.0168782
0.00756545
0.0125391
0.0179011
0.017974
0.013987
0.0156664
0.00492839
0.0034325
0.0161061
0.0117796
0.0159685
0.00916102
0.0113857
0.00765584
0.0103127
0.0185563
0.0071811
0.0108378
0.00897724
0.0148049
0.0126064
0.0131196
0.0131675
0.0128792
0.0154283
0.0108441
0.0117999
0.0146284
0.0148979
0.00776755
0.015134
0.00460605
0.0052513
0.00545696
0.00526119
0.00834786
0.00537156
0.0133066
0.0111646
0.0169217
0.0148309
0.015759
0.00764242
0.00636174
0.00266094
0.00450321
0.0188962
0.00515208
0.00514639
0.0109696
0.0213034
0.011382
0.0137069
0.0114809
0.0115056
0.0114721
0.016084
0.00859909
0.00889664
0.0109627
0.0115971
0.016094
0.0139939
0.00799305
0.0144363
0.0141339
0.0100068
0.0183345
0.0048305
0.0132971
0.0168871
0.014628
0.0150173
0.00255004
0.00235276
0.0152935
0.0125975
0.004551
0.00645952
0.0137786
0.0160086
0.0150756
0.00665851
0.017278
0.00509347
0.0178495
0.0145947
0.00257991
0.000743892
0.00587187
0.0149576
0.0171585
0.00833235
0.00891281
0.0124788
0.00383763
0.01233
0.0142496
0.00596215
0.00479106
0.00834605
0.011793
0.00842839
0.0114338
0.00188403
0.0216985
0.0136074
0.0121525
0.0277974
0.0056771
0.0123977
0.0153676
0.00739089
0.0144721
0.00527311
0.016143
0.00716977
0.00587599
0.0180825
0.018587
0.0184586
0.0245331
0.013237
0.0132838
0.0161634
0.0154149
0.00292973
0.0149061
0.0166057
0.00133372
0.00478122
0.00479668
0.0140205
0.0041396
0.0167851
0.00223445
0.0065765
0.00760657
0.00707384
0.016106
0.00510626
0.00457871
0.0102318
0.00410998
0.0116672
0.00270778
0.00986408
0.0161801
0.00683202
0.0270912
0.0216677
0.00960702
0.00882202
0.012422
0.00238071
0.0186794
0.0145068
0.0142719
0.0136865
0.00572
0.0209236
0.00422432
0.0112657
0.0152752
0.0137214
0.0154358
0.00497083
0.00574869
0.00595978
0.0062669
0.0164184
0.00469302
0.0169235
0.0225192
0.0230717
0.00714034
0.0156395
0.0176849
0.00400041
0.00196317
0.0172071
0.00360146
0.00514574
0.0159572
0.00433655
0.0140958
0.0139357
0.0209894
0.00789926
0.0161176
0.00786463
0.0148911
0.00454802
0.00596472
0.00509441
0.0102736
0.0104242
0.0154964
0.0169508
0.0103944
0.0269986
0.00292242
0.00721022
0.00650287
0.00348081
0.0103676
0.0111052
0.0154494
0.0100651
0.0188893
0.0118084
0.00555495
0.00373831
0.00623841
0.0217251
0.0181632
0.0151512
0.0190189
0.0143664
0.00468638
0.00702693
0.00466872
0.00431532
0.0040929
0.00503361
0.00867388
0.000423208
0.0173309
0.00254954
0.0191993
0.00509819
0.0160481
0.00443242
0.0164432
0.0174599
0.0131382
0.00628567
0.025469
0.0170942
0.0134345
0.0128432
0.00427288
0.0151361
0.00232383
0.00666784
0.00673872
0.00700142
0.0131721
0.00576723
0.00678209
0.0150623
0.0279438
0.0138031
0.0151727
0.0111037
0.0118596
0.0106188
0.00883329
0.00852403
0.0209511
0.0101341
0.000902132
0.0150801
0.0275485
0.00976436
0.0204706
0.011812
0.0141101
0.00616086
0.00510857
0.0160904
0.00581902
0.0128143
0.0128297
0.0156362
0.00381823
0.00470884
0.0167309
0.00708274
0.0024898
0.0030018
0.0115513
0.00400135
0.00718562
0.00757181
0.0175709
0.0171764
0.0185631
0.0174802
0.0152267
0.00740844
0.0156176
0.0070263
0.0166244
0.0186737
0.00577479
0.0152737
0.00640786
0.0125543
0.0179433
0.0118782
0.0032168
0.0147125
0.0410113
0.00317872
0.00956846
0.0064967
0.0142968
0.00186206
0.00493372
0.00590594
0.00491764
0.0155919
0.00126317
0.00986809
0.0201477
0.00888742
0.0103062
0.00596849
0.0219689
0.00383658
0.00813292
0.0209652
0.0269648
0.00976663
0.0139956
0.0113868
0.00759975
0.00587217
0.00447852
0.0184403
0.00211499
0.0121126
0.0116557
0.0110411
0.00332095
0.00503037
0.0176899
0.0199708
0.00252715
0.00291185
0.00327615
0.00191784
0.0235539
0.00674752
0.00279336
0.0188064
0.0209667
0.0187107
0.00393388
0.0168952
0.0156821
0.0178295
0.0020231
0.0209538
0.020998
-0.000355375
0.0181892
0.0175763
0.0182909
0.011621
0.0195072
0.000842095
0.00317811
0.0178111
0.00262797
0.003202
0.00543396
0.0132197
0.00892736
0.016403
0.00109531
0.00581583
0.00937709
0.0196809
0.00127147
0.0156201
0.00240452
0.0272887
0.0275729
0.0064887
0.039429
0.00667799
0.00664233
0.0108192
0.0111362
0.00771247
0.0105676
0.0283579
0.00775131
0.0152971
0.000635091
0.00692983
0.0107542
0.00606988
0.0175168
0.0013551
0.00417886
0.0105304
0.0037649
0.00952116
0.00971219
0.00524416
0.0221121
0.00382905
0.00269293
0.000399572
0.0122882
0.0201337
0.00302571
0.000624161
0.00371107
0.00410265
0.00321423
0.0186929
-4.26521e-05
0.00124934
0.000854425
0.016823
0.00209958
0.0176009
0.0179866
0.0187606
0.00548586
5.45922e-05
0.000243048
0.00285614
0.000822357
0.0115238
0.000997296
0.0115138
0.0182578
0.00154093
0.00669141
0.00898108
0.0219974
0.0203039
0.015922
0.00758865
0.00365767
0.021117
0.018159
0.00169914
0.00186909
0.00782237
0.0132577
0.00544746
0.00115726
9.42128e-05
0.000918494
0.0175231
0.0146805
0.00671993
0.0404215
0.0144166
0.0112398
0.00775948
0.0121438
0.015583
0.0154465
0.0108042
0.00689391
0.00863529
0.00893963
0.0146545
0.00338053
0.0105181
0.00124423
0.0114563
0.0267479
0.0186139
0.0171752
0.0127627
0.0100614
0.0242983
0.0113115
0.0135672
0.00601138
0.0215777
0.0203397
0.00296074
0.0111532
0.0126594
0.000228207
0.0247375
0.00681259
0.00115603
0.00332728
0.00188656
0.0219717
0.0200566
0.0204864
0.00309161
0.000113166
0.0173539
0.0116678
0.0183016
0.0188651
0.0189201
0.00123599
2.48166e-05
0.0179231
0.0156396
0.0161692
0.0189294
0.001059
0.00675015
0.0277732
0.00391586
0.00222346
0.0194357
0.0110128
0.00463556
0.017707
0.0174355
0.0142022
0.00819546
0.0054581
0.0129029
0.0074312
0.000376599
0.000706553
0.00144382
0.00547357
0.00207041
0.0219997
0.00780337
0.000593464
0.000682575
0.0168421
0.00593754
0.000722972
0.0407597
0.00552282
0.00657853
0.00885999
0.0100082
0.00847606
0.0108371
0.0102376
0.00687537
0.00790455
0.011402
0.00727097
0.00678837
0.00770016
0.0101627
0.0193846
0.0109773
0.010375
0.0170148
0.0220201
0.0185323
0.00518171
0.0102118
0.00293727
0.0115523
0.0228275
0.000878088
0.00211698
0.00191921
0.00588373
0.00681921
0.016895
0.0161797
0.00479953
0.00197178
0.0131849
0.0219013
0.000539089
0.0179883
0.00716186
0.0166276
0.0152457
0.0161001
0.020702
0.0192626
0.0248992
0.0176533
0.0147598
0.0183489
0.0165728
0.0171374
0.00616357
0.0215994
0.00605909
0.00159017
0.00403104
0.0167869
7.93831e-05
0.0138745
0.00327849
0.00456819
0.013934
0.00835246
0.020849
0.00387164
0.0145703
0.00471519
0.0239883
0.00690695
0.000629722
0.00100276
0.0195651
0.0130776
0.000891334
0.00214767
0.00123581
0.00414646
0.000570623
0.000276733
0.0164686
0.0159579
0.000180202
0.0160001
0.0141496
0.0171252
0.00937015
0.00926786
0.00749854
0.0120317
0.012613
0.00585674
0.00094915
0.0110304
0.0151067
0.0111588
0.0206772
0.0185329
0.0110672
0.0180338
0.00683388
0.0278279
0.00325487
0.0181398
0.0108543
8.66907e-05
0.0123593
0.00316429
0.00660923
0.00273161
0.0027437
0.0138766
0.0197081
0.00482539
0.017414
0.000830263
0.00083026
0.000871013
0.0229503
0.0231079
0.0219657
0.023641
0.0194774
0.0179932
0.00603864
0.00388111
0.0066686
0.00175974
0.0128543
0.00575643
0.0151364
0.00837145
0.0067001
0.00208203
-0.000117605
0.00489202
0.00261177
0.0204992
0.00890332
0.00480549
0.00461796
0.00854644
0.000837388
0.0144094
0.00466414
0.0180206
0.0034586
0.00234201
0.0118324
0.0117786
0.0183642
0.0218307
0.0191079
0.0145427
0.00817286
0.00887663
0.0173271
0.000127201
0.000961357
0.017038
0.0174179
-0.000118095
0.000380709
0.00245286
0.0171675
0.00450757
0.010431
0.0221297
0.0216267
0.0110174
0.0258986
0.00831902
0.0071896
0.00741483
0.00479202
0.00297414
0.0181016
0.00306198
0.0110434
0.0133807
0.020407
0.00643255
0.00743178
0.00706427
0.0164387
0.0166571
0.0166774
0.0236958
0.00220344
0.0192236
0.0189343
0.0193384
0.0104869
0.000381654
0.0227471
0.023437
0.0215784
0.0127268
0.0134671
0.0146889
0.013702
0.0163591
0.0125666
0.000519978
0.0171881
0.00799318
0.00546768
0.0174874
0.00132265
0.0007782
0.00304966
0.00286088
0.0209412
0.00841242
0.00307804
0.00428621
0.00759956
0.015498
0.00726445
0.0066654
0.013985
0.00977583
0.000288375
0.0180247
0.0114125
0.018946
0.00953834
0.00198387
0.0146691
0.0145782
0.000721181
0.00841507
0.00783161
0.000576706
0.000708199
0.0178618
0.0205182
0.00826205
0.0106916
0.00123373
0.0189924
0.0236657
0.0198347
0.0136871
0.00638981
0.0186087
0.0140401
0.00740875
0.0103242
0.00572869
0.00582743
0.00922891
0.0175883
0.00317274
0.0115047
0.00725727
0.00654749
0.000212561
0.0196614
0.00770311
0.0202923
0.00558344
0.016616
0.0191851
0.00953465
0.00957014
0.0200165
0.0162045
0.01822
0.00704853
0.00817599
0.0161001
0.0153678
0.0121925
0.0129272
0.0187529
0.0191953
0.0252809
0.0148504
0.0167657
0.00106431
0.000694578
0.0171901
0.0156891
0.00805989
0.0186478
0.0026748
0.0131296
0.0146298
0.0183662
0.00226437
0.0188368
0.0171154
0.0204089
0.0194006
0.0202811
0.00955576
0.0174335
0.00773398
0.0134126
0.0130052
0.0123588
0.0211002
0.0195393
0.0189217
0.0159909
0.00866358
0.0112946
0.0124579
0.0192039
0.0123216
4.58044e-05
0.0200079
0.0220375
0.0103918
0.00876468
0.00367869
0.00261671
0.00730679
0.0193938
0.00606842
0.00649637
0.023903
0.00972999
0.00361638
0.00497666
0.000425201
0.00928893
0.0105151
0.00956327
0.0179122
0.00064111
0.0207213
0.00184092
0.0201256
0.0194527
0.0237557
0.00914693
0.00941133
0.00801534
0.0150583
0.0133921
0.0156767
0.0241951
0.0176003
0.018644
0.0123362
0.0150171
0.00888138
0.0157837
0.0136882
0.00299706
0.00271629
0.011023
0.000879471
0.00785283
0.020877
0.0220053
0.00399678
0.0202031
0.0131222
0.0212277
0.0116487
0.0119542
0.00160676
0.000883901
0.0154307
0.0139445
0.00672037
0.00884694
0.00835995
0.0129443
0.00895092
0.017511
0.0187711
0.0240609
0.0185033
0.0199673
0.0120878
0.0085086
0.00994517
0.000888019
0.00170396
0.00326541
0.00875708
0.00790638
0.0138782
0.00817054
0.0146209
0.016574
0.0183621
0.00845914
0.00526455
0.0245716
0.0128599
0.0220022
0.0217315
0.00966376
0.0221933
0.00224972
0.0187257
0.00559853
0.0105337
0.00419121
0.00817503
0.00915231
0.0210304
0.0214066
0.000674516
0.0192514
0.0229888
0.026264
0.00853984
0.0161939
0.0185822
0.0188624
0.00760005
0.00819749
0.0175149
0.0265145
0.0174328
0.00322136
0.0154028
0.0259188
0.0150127
0.0147957
0.014346
0.00713191
0.0217319
0.0187908
0.0219157
0.00190936
0.0156786
0.00127743
0.0129487
0.0183747
0.00393188
0.0185146
0.00570045
0.0175871
0.023938
0.0103418
0.000515174
0.0117108
0.0125232
0.000724409
0.00775166
0.0078514
0.0123614
0.0090368
0.0252658
0.0201674
0.00793375
0.00783061
0.0195216
0.0109739
0.0185673
0.024504
0.0188996
0.000660241
0.000634635
0.0199976
0.0173703
0.0121612
0.0135428
0.0155371
0.0128699
0.0133727
0.0219054
0.019182
0.0230376
0.0172928
0.0151542
0.00214244
0.0221709
0.00292267
0.00838072
0.0207125
0.0221822
0.017914
0.00936228
0.00837513
0.000455409
0.019401
0.0119855
0.0205585
0.0112904
0.0217685
0.0230535
0.0145407
0.0155292
0.00927132
0.00452548
0.02516
0.011982
0.0153938
0.0119614
0.0110359
0.0160263
0.0254642
0.0147384
0.013809
0.0273405
0.00237876
0.0215096
0.0132733
0.0264865
0.0137254
0.0110344
0.0213425
0.0218776
0.00392959
0.00816976
0.00454624
0.00560761
0.0189063
0.0100177
0.0108854
0.000446032
0.00870304
0.0316468
0.00893772
0.00934945
0.0129057
0.0133194
0.0125855
0.0198986
0.0204259
0.014772
0.00791007
0.0201994
0.011336
0.0209308
0.0187241
0.0188943
0.020846
0.0213059
0.0195444
0.00746139
0.000597798
0.0224003
0.00676683
0.0235236
0.0262337
0.0245666
0.00894968
0.022453
0.0150749
0.0023838
0.00195585
0.00328017
0.0200295
0.0207729
0.0206411
0.0191407
0.0229155
0.00936527
0.00774471
0.0210147
0.0232948
0.011089
0.0206826
0.022227
0.0147348
0.00853348
0.0252855
0.0225707
0.0194141
0.0157227
0.0201189
0.0164973
0.0216748
0.00180636
0.0164352
0.0194411
0.0222257
0.0158442
0.021129
0.0105719
0.0266189
0.0166104
0.00220388
0.020139
0.00482588
0.000134957
0.00455858
0.0158584
0.0134995
0.0156871
0.020184
0.0219028
0.00827254
0.0173124
0.00987612
0.0134511
0.0127382
0.0125557
0.00772625
0.0206033
0.0138058
0.0143384
0.0204103
0.0143212
0.00712321
0.00684289
0.0143815
0.015106
0.0137438
0.0191685
0.01962
0.00113454
0.0135578
0.0204302
0.0194757
0.0140697
0.0143905
0.0118426
0.0147124
0.0257255
0.0012804
0.00705091
0.0214452
0.00330666
0.00944917
0.0102255
0.00974633
0.0238598
0.0252896
0.00316331
0.0258759
0.0230242
0.0165141
0.0164654
0.023401
0.0170667
0.0216227
0.0203044
0.00404974
0.00901759
0.0246102
0.000449679
0.00072633
0.023549
0.021963
0.00383346
0.0232971
0.0171232
0.0149743
0.00973555
0.0221055
0.0215643
0.00782238
0.0204385
0.0189798
0.016693
0.0149155
0.000910289
0.00157058
0.00113334
0.0171947
0.0197359
0.0127026
0.0224344
0.0248967
0.0122808
0.0109016
0.00763364
0.00457074
0.0272323
0.000118265
0.00312739
0.00978646
0.00119122
0.000260389
0.000492138
0.0104551
0.00765597
0.000939343
0.0337857
0.0214024
0.0161602
0.0250359
0.0139671
0.0268873
0.00437785
0.0086438
0.00903286
0.0258697
0.0259875
0.0140358
0.00734224
0.0147101
0.0132772
0.0173662
0.0161197
0.0167758
0.0196687
0.00146137
0.020989
0.0211992
0.0213604
0.0207498
0.0174115
0.0171627
0.0132187
0.0121695
0.022309
0.0193641
0.00623642
0.00487041
0.0131149
0.0188065
0.0250865
0.00607186
0.0070422
0.00729674
0.0187137
0.0236801
0.024926
0.0244865
0.00197179
0.0011693
0.0232693
0.000747337
0.0228899
0.0238288
0.00481446
0.00668887
0.00300744
0.0222661
0.0084563
0.0195675
0.0153428
0.015414
0.023999
0.0244845
0.0110119
0.0269021
0.0266478
0.0181361
0.0166497
6.85857e-05
0.0006591
0.0185167
0.0167531
0.0202291
0.026313
0.0401251
0.0268063
0.0211327
0.026825
0.0212776
0.00263016
0.0195912
0.0226031
0.00304804
0.0212606
0.00517788
0.000568748
0.020814
0.0007304
0.00967926
0.0105135
0.010407
0.00958433
0.00045494
0.00205245
0.0065911
0.0254858
0.0237579
0.0172088
0.0102184
0.0129372
0.00817167
0.0102621
0.00759248
0.00993919
0.00975184
0.00878354
0.0182088
0.0156088
0.020931
0.0154695
0.0209654
0.0014504
0.0205157
0.00105894
0.0271025
0.0211465
0.0138396
0.0174123
0.00843467
0.0110797
0.00386137
0.00282913
0.00678671
0.00456477
0.0125115
0.0205331
0.00958629
0.0160713
0.014667
0.00575076
0.0144188
0.0254075
0.0014673
0.00327343
0.00136576
0.0167479
0.023881
0.0193195
0.00625222
0.00489983
0.0235907
0.00301974
0.0236395
0.0223286
0.0407517
0.0237154
0.0234399
0.0267616
0.0251379
0.0240801
0.018823
0.00483181
0.0194605
0.00461111
0.0199409
0.0206176
-7.51749e-06
0.0252408
0.0117791
0.00235571
0.0197781
0.0249502
0.0194681
0.0223735
0.0195086
0.00987151
0.0120684
0.0187874
0.0212047
0.0232162
0.0249162
0.000754823
0.00328343
0.0158589
0.0210339
0.0197577
0.0174919
0.018436
0.00136217
0.0174882
0.00942384
0.00986946
0.0096281
0.0084015
0.0111199
0.0134402
0.000568208
0.0214415
0.022369
0.0188726
0.001256
0.0222167
0.0134925
0.0142037
0.0160297
0.0167549
0.0195538
0.0152654
0.0343945
0.00391859
0.0139291
0.0216953
0.0167176
0.0167109
0.0032411
0.0151884
0.023797
0.0266253
0.0195881
0.00897883
0.02308
0.00822563
0.015419
0.0246199
0.0259377
0.0154038
0.0262263
0.0260127
0.0258269
0.0240637
0.0163003
0.0250353
0.0236804
0.0207848
0.00929338
0.0186968
0.00736356
0.00203658
0.0191487
0.00606259
0.0244202
0.0248909
0.0242257
0.0225403
0.0142817
0.022701
0.025654
0.00798995
0.005625
0.0110933
0.0274914
0.018716
0.0180293
0.004621
0.00402085
0.0216612
0.00137933
0.0131266
0.0269267
0.0231501
0.0196819
0.0203512
0.0122045
0.01079
0.00283451
0.0209639
0.000312453
0.00764032
0.0234947
0.00101835
0.00291516
0.00453367
0.00594997
0.00349988
0.016539
0.0186162
0.0216732
0.0142084
0.00873763
0.0313506
0.00869955
0.0100365
0.0107192
0.0226156
0.0203878
0.0256482
0.0230879
0.007222
0.012866
0.0124978
0.0124775
0.014569
0.0177016
0.0177551
0.0206632
0.0196464
0.0183949
0.0135112
0.0100263
0.010178
0.00248552
0.0194256
0.0231389
0.00826409
0.00341831
0.034671
0.0130778
0.0236987
0.0159578
0.0240333
0.0288095
0.0186537
0.00836185
0.0071024
0.0153456
0.0255589
0.0243833
0.00631824
0.027127
0.000236057
-0.000216742
0.0234274
0.0261151
0.0130358
0.0107937
0.0218855
0.00558461
0.0244485
0.0264262
0.0106316
0.021593
0.0224162
0.0333056
0.00603376
0.0252301
0.0148047
0.0154512
0.0212601
0.0253685
0.00283901
0.0197879
0.0271288
0.0264027
0.0282627
0.00603975
0.0221608
0.0216048
0.00311315
0.0175141
0.0252979
0.0181027
0.00253918
0.00786116
0.0166583
0.00546462
0.0183398
0.00776116
0.000671581
0.000865898
0.0111478
0.0032089
0.0240823
0.0140743
0.00616334
0.010748
0.0249322
0.0250228
0.0221586
0.0232044
0.0246275
0.0141958
0.00255362
0.00531352
0.0122863
0.02101
0.0210815
0.0216532
0.0218987
0.0149406
0.0146565
0.0132677
0.0182189
0.0161611
0.0162817
0.0175658
0.0265907
0.0191552
0.0210838
0.0179714
0.0199364
0.0197002
0.00995814
0.0193452
0.0151196
0.0093438
0.0135879
0.0306718
0.0153154
0.0341749
0.0202625
0.00586717
0.00908682
0.0178306
0.0290661
0.0163418
0.0154311
0.00692411
0.020335
0.000640891
0.00173797
0.00033527
0.0253353
0.0251038
0.0254661
0.0130869
0.0275147
0.00489456
0.026084
0.0264663
0.0254359
0.00263886
0.0290184
0.0256454
0.00195333
0.0271616
0.0154514
0.0162126
0.0152168
0.0211863
0.0229931
0.0188851
0.0198488
0.0210209
0.0130005
0.0125306
0.00324068
0.0264168
0.0207976
0.0237688
0.0181831
0.0231334
0.0258601
0.00960058
0.0248553
0.00254916
0.0185877
0.00881027
0.00101371
0.000162577
0.0111847
0.0232779
0.00878073
0.0212541
0.0216359
0.00729421
0.0227452
0.00847253
0.0272783
0.0216127
0.0268986
0.0202802
0.0109977
0.0213811
0.0223933
0.0248438
0.00572367
0.0220364
0.0220524
0.0230957
0.0247841
0.017708
0.0234325
0.0188774
0.00254854
0.0224684
0.00566297
0.0167515
0.0176819
0.0121362
0.0193876
0.0293202
0.0147911
0.013669
0.014428
0.0100123
0.0188023
0.00698188
0.0124836
0.0230449
0.0109096
0.0217526
0.00651848
0.0232301
0.0193943
0.0060506
0.0164389
0.0241632
0.00638302
0.0190682
0.0125408
0.00170654
0.00015313
0.00172263
0.0243297
0.0159738
0.0182202
0.013884
0.0135963
0.0244066
0.0264679
0.0256371
0.019417
0.0252479
0.0206416
0.0266924
0.0140399
0.0271902
0.0270232
0.0270157
0.0261771
0.0254226
0.00307137
0.0213695
0.0255012
0.0194313
0.0175724
0.0283869
0.0255678
0.012844
0.0265136
0.00267414
0.0240899
0.0252109
0.017613
0.0168128
0.0227924
0.0238663
0.0227308
0.00112812
0.0265559
0.0200507
0.00757264
0.00039673
0.0262956
0.008075
0.00338009
0.00220125
0.000298834
0.0188442
0.00598543
0.0316037
0.00960189
0.0226572
0.0121119
0.00920569
0.0132278
0.0221586
0.00947265
0.0262881
0.0218716
0.012842
0.0245754
0.0219765
0.0188547
0.0294479
0.0199045
0.0253054
0.0162566
0.0272809
0.01618
0.0160859
0.00341488
0.0205152
0.0193614
0.0205437
0.0236671
0.0173167
0.0273648
0.020486
0.0199138
0.00278281
0.00611441
0.0274811
0.0144543
0.0053637
0.0145573
0.0362513
0.00879694
0.0283947
0.00659409
0.00129979
0.0109261
0.0113469
0.0100677
0.0187901
0.00578904
0.0175272
0.021991
0.0156564
0.00521935
0.00564909
0.0257432
0.00159916
0.0191591
0.0178244
0.0118177
0.0240264
0.0286604
0.0124584
0.0240027
0.0224643
0.0198578
0.000397697
0.019382
0.0216674
0.0256435
0.0261649
0.02954
0.0274498
0.00341058
0.00225826
0.0277076
0.00330204
0.0248569
0.0265919
0.0246729
0.0053518
0.030353
0.0116574
0.0219938
0.0264297
0.0238638
0.0245958
0.0236113
0.022481
0.0205576
0.012076
0.0225642
0.0170687
0.0019931
0.0111952
0.02472
0.0224784
0.0290845
0.0306698
0.00156683
0.0160048
0.00261906
0.00499963
0.0258329
0.00493199
0.00421906
0.0271448
0.00625506
0.0105939
0.0156159
0.0262384
0.000278513
0.0256267
0.022064
0.0121392
0.0251945
0.0268181
0.0138886
0.0252684
0.0204603
0.0271268
0.0252073
0.024809
0.0183194
0.0281119
0.0195555
0.00568017
0.00598273
0.027297
0.0203443
0.0249272
0.0302967
0.0224598
0.0239419
0.0298648
0.00596964
0.0271122
0.0264853
0.0272349
0.0149208
0.0393062
0.00459416
0.0076871
0.0120644
0.0111501
0.0294585
0.00889392
0.0216096
0.0171543
0.0179115
0.0167443
0.00608865
0.0109773
0.00714546
0.0256351
0.00118982
0.0272929
0.0278231
0.0281449
0.0132975
0.023353
0.0348331
0.0216934
0.00194702
0.0250347
0.00838226
0.0104916
0.0286899
0.0134573
0.0283366
0.0288119
0.0192942
0.00306472
0.0255842
0.0245653
0.0254617
0.0189259
0.0251764
0.0251603
0.0242781
0.0214404
0.022075
0.0227176
0.0228318
0.0187693
0.0174501
0.00175008
0.0261763
0.0158337
0.0169837
0.01852
0.00941993
0.00790149
0.0315552
0.024572
0.0225024
0.0286175
0.0295946
0.0110744
0.0045335
0.00765493
0.0309806
0.0159551
0.00814019
0.0264771
0.00689812
0.0231038
0.0132444
0.00580333
0.00555516
0.021667
0.0125828
0.0237597
0.00098897
0.0209085
0.00218574
0.0226506
0.0129535
0.0189218
0.0194153
0.0184221
0.0238415
0.0231126
0.0260503
0.00802406
0.0355503
0.0343123
0.0301973
0.0208107
0.0205464
0.0159917
0.0217596
0.0242922
0.0255279
0.029188
8.72415e-05
0.0113494
0.0125479
0.0386144
0.0261476
0.00323861
0.0269264
0.00329903
0.0153462
0.017613
0.0107533
0.00783702
0.0303431
0.0246516
0.00835619
0.016549
0.0313076
0.0106641
0.00656941
0.000546894
0.0152827
0.00227583
0.0281724
0.0066689
0.0299013
0.0354817
0.00912894
0.0249384
0.000334375
0.00035569
0.00866016
0.0288567
0.0288443
0.0274815
0.0244033
0.00182226
0.0188401
0.0404811
0.0180386
0.024283
0.0231491
0.0240468
0.0243779
0.0193086
0.0267142
0.0236929
0.00830264
0.00204519
0.00231499
0.00233616
0.0227155
0.0253966
0.0142125
0.0253484
0.00596941
0.00619144
0.00704413
0.0218667
0.0295985
0.0291817
0.0306333
0.0173219
0.00859622
0.0268842
0.00813998
0.0217627
0.0236146
0.0244431
0.0133142
0.0268532
0.0121425
0.0222529
0.0231098
0.022097
0.0116754
0.0165651
0.0410435
0.0103301
0.00263833
0.0210867
0.0180248
0.0225123
0.0145109
0.0169357
0.0182833
0.0195164
0.0161426
0.0235541
0.0340567
0.0174895
0.026435
0.0121697
0.0217049
0.0165002
0.0209433
0.0227502
0.0214511
0.0289241
0.00407186
0.0283961
0.0188082
0.000894284
0.0123177
0.0297852
0.0266859
0.0157579
0.00375407
0.0241407
0.0087126
0.0306113
0.00876974
0.0249696
0.0236453
0.0277814
0.0210993
0.0256205
0.0175249
0.00294204
0.0229886
0.00261775
0.0279229
0.000271988
0.00096221
0.00582284
0.00211271
0.0190914
0.000993002
0.0308851
0.031109
0.0261373
0.026917
0.0292632
0.0293244
0.0283408
0.0287172
0.00801975
0.0312706
0.0282713
0.0062219
0.026782
0.0329318
0.0184349
0.000104591
0.0258087
0.0280346
0.0241191
0.0224907
0.0253709
0.0301488
0.0028593
0.0265402
0.00131121
0.000706805
6.35445e-05
0.0231214
0.0163647
0.00713867
0.0134117
0.0262587
0.0387913
0.0184422
0.0240451
0.0246739
0.0299714
0.00244521
0.0408065
0.0276717
0.00803819
0.0196421
0.00954019
0.0206494
0.0253828
0.00970812
0.0272876
0.0212292
0.0115193
0.0181138
0.0110923
0.0224144
0.0180028
0.028738
0.0295432
0.00841428
0.0153556
0.0186357
0.0181778
0.0246531
0.0346834
0.0125846
0.0245456
0.0188007
0.0123847
0.0159295
0.031338
0.0176309
0.01616
-0.000155176
0.0333013
0.0325882
0.0010669
0.0268738
0.00204995
0.0202356
0.0307529
0.00456774
0.0285806
0.0284926
0.0303401
0.0291129
0.0233974
0.0240519
0.026249
0.00713647
0.0253429
0.00884763
0.00235736
0.0134064
0.00360819
0.0240555
0.0260513
0.0110997
0.0110725
0.0135346
0.0304386
0.0034279
0.0260327
0.0154985
0.0300785
0.0213256
0.0294039
0.0283677
0.0317098
0.0281685
0.00132493
0.0187364
0.0280377
0.0195815
0.0255332
0.0246262
0.00518318
0.0295862
0.0224343
0.0309773
4.73429e-05
0.0281976
0.00714089
0.0151843
0.00203929
0.0240435
0.0232778
0.0364341
0.0222783
0.00745245
0.027594
0.0263304
0.000812071
0.000570297
0.0358775
0.024625
0.00856335
0.0398788
0.00984661
0.0155235
0.0269055
0.000351355
0.00310866
0.0408299
0.0078303
0.0117679
0.0116157
0.0191601
0.0262936
0.0151611
0.0110261
0.0269175
0.0302435
0.0279539
0.0260956
0.0153435
0.0263176
0.0184901
0.0113478
0.0232019
0.0228252
0.018535
0.0209794
0.0152263
0.0142967
0.0265731
0.0272755
0.0276794
0.023042
0.0327163
0.0222583
0.023095
0.021719
0.0227849
0.0275594
0.0198139
0.00442214
0.0299813
0.0290249
0.0271009
0.00460145
0.0258035
0.0224893
0.0251796
0.0229323
0.0307185
0.0269329
0.00352723
0.0108611
0.0303912
0.0306318
0.0330821
0.00298827
0.0148055
0.010402
0.0283488
0.0274356
0.0293738
0.032834
0.0331561
0.0285093
0.0325661
0.0280851
0.0276106
0.0177551
0.0294031
0.0248762
0.0325204
0.0392695
0.0246575
0.023034
0.0406087
0.0203352
0.0144809
0.0303002
0.0167212
0.0325558
0.000927806
0.025287
0.0156473
0.0374387
0.0244113
0.0232844
0.0309837
0.0149039
0.000988435
0.0136864
0.0377313
0.000242307
-0.00016406
0.0249617
0.00972168
0.0105011
0.0103364
0.00742197
0.00629731
0.00704173
0.00567099
0.011122
0.028916
0.032369
0.00328034
0.029196
0.0258917
0.00257913
0.0245459
0.0299287
0.0303285
0.0171163
0.0210837
0.0160908
0.0297331
0.0167626
0.0258477
0.0230191
0.0170992
0.0238215
0.0290603
0.0164737
0.0161295
0.0236236
0.0232176
0.0196909
0.0316515
0.00370839
0.0333124
0.0202806
0.0173505
0.0190694
0.029981
0.0130905
0.0100966
0.0300945
0.0266951
0.0274334
0.0292914
0.0373493
0.0338118
0.0302403
0.0273407
0.0298262
0.0313885
0.0304134
0.0188682
0.0319746
0.0305375
0.00889508
0.0273327
0.020243
0.0318889
0.026493
0.0314042
0.0157824
0.0282756
0.0199749
0.0232403
0.0293879
0.0317721
0.00857791
0.0259549
0.0206684
0.0199449
0.0210845
0.0324889
0.0266251
0.0280727
0.000558816
0.0238539
5.88652e-05
0.0279247
0.00232612
0.0383541
0.00967208
0.019848
0.00778788
0.00750496
0.00677097
0.0257844
0.0280228
0.0192407
0.0197152
0.0257315
0.0175462
0.0293872
0.0301863
0.0219405
0.0330928
0.0286809
0.0332892
0.0288358
0.0269727
0.031007
0.0175268
0.0227335
0.0234511
0.0186378
0.00417867
0.0312696
0.0306883
0.0363678
0.00950535
0.0287356
0.0256161
0.0101777
0.0233237
0.0284892
0.0248768
0.0324066
0.0307639
0.0293852
0.0320117
0.0238324
0.0306086
0.0319289
0.0308967
0.0303245
0.025341
0.0283693
0.0224259
0.032772
0.027485
0.0408465
0.0401936
0.0265135
0.032434
0.0260403
0.0256043
0.0249227
0.0213218
0.0300615
0.0266616
0.0287591
0.0300151
0.0328532
0.0289309
0.0246394
0.0274269
0.0275176
0.0320526
0.0265983
0.0283627
0.0301799
0.031347
0.00223426
0.029026
0.00307434
0.0035307
0.00390764
0.00198048
0.0285694
0.00609664
0.000699597
0.0210294
0.0283083
0.0387252
0.0394296
0.0327094
0.0262057
0.0320722
0.0174509
0.0360889
0.0231602
0.0254631
0.0277329
0.0299885
0.0196757
0.0296225
0.0309583
0.0224505
0.0240788
0.0308224
0.024282
0.0355191
0.0309852
0.0343889
0.0106316
0.00194687
0.0287025
0.0284526
0.0279777
0.0345602
0.0293438
0.0351924
0.0294198
0.0316432
0.0185276
0.0328847
0.0237563
0.0317117
0.025217
0.0320943
0.0330246
0.0201307
0.0292087
0.0216718
0.0302702
0.0216289
0.0305803
0.0265691
0.0255828
0.0305297
0.029543
0.0265665
0.0295808
0.0202129
0.0352353
0.0275657
0.0292299
0.0301824
0.03146
0.00858568
0.0213241
0.0318853
0.00314421
0.00413478
0.0324735
0.0286018
0.000494801
0.0388092
0.0258523
0.0357818
0.0281508
0.0245328
0.0245165
0.0338214
0.0283498
0.0243228
0.025621
0.0275877
0.0282709
0.0280212
0.0363822
0.0311053
0.0312464
0.0210372
0.0211003
0.0328968
0.0266094
0.031148
0.0311222
0.0351352
0.0387894
0.0369853
0.0247546
0.0329411
0.0260218
0.0305608
0.0299151
0.0256169
0.0116824
0.0323992
0.039146
0.0317775
0.0244322
0.0281745
0.0244416
0.0402638
0.0225591
0.0289649
0.0245139
0.0256533
0.0306888
0.0324029
0.0258673
0.0310147
0.0303992
0.027606
0.0315051
0.0305925
0.0305269
0.0273613
0.0329392
0.0330807
0.0325145
0.0278997
0.032102
0.0321663
0.0318332
0.0101918
0.0325968
0.0231426
0.0239321
0.0293881
0.0351034
0.0233422
0.0284323
0.0329604
0.0278872
0.0285384
0.0246932
0.0369052
0.027506
0.0322971
0.023401
0.0234902
0.0282651
0.0326849
0.0232929
0.0278081
0.0276145
0.0321413
0.0326637
0.0278645
0.0281538
0.035026
0.0349042
0.0287936
0.0345045
0.0337893
0.0304486
0.0347389
0.0142016
0.0345688
0.0326992
0.03219
0.0324938
0.0310255
0.0324417
0.035838
0.0293123
0.0322587
0.0258491
0.0295685
0.0266274
0.0305435
0.0305373
0.037011
0.0310532
0.0367701
0.036868
0.026487
0.0302129
0.0316507
0.0212535
0.0273164
0.0283368