/*--------------------------------*- C++ -*----------------------------------*\
| =========                 |                                                 |
| \\      /  F ield         | OpenFOAM: The Open Source CFD Toolbox           |
|  \\    /   O peration     | Version:  2212                                  |
|   \\  /    A nd           | Website:  www.openfoam.com                      |
|    \\/     M anipulation  |                                                 |
\*---------------------------------------------------------------------------*/
FoamFile
{
    version     2.0;
    format      ascii;
    arch        "LSB;label=32;scalar=64";
    class       surfaceScalarField;
    location    "0.044";
    object      phi;
}
// * * * * * * * * * * * * * * * * * * * * * * * * * * * * * * * * * * * * * //

dimensions      [0 3 -1 0 0 0 0];

oriented        oriented;

internalField   nonuniform List<scalar> 
68568
(
-1.49984e-07
1.54827e-07
-2.91973e-08
2.43542e-08
1.44308e-07
-7.37866e-08
-7.65734e-08
6.05205e-09
1.74784e-07
-1.33481e-07
-5.93534e-08
1.80503e-08
-4.43048e-09
2.19178e-09
-1.67626e-07
1.69864e-07
-1.2492e-09
1.4048e-07
9.95985e-10
-1.40227e-07
1.38282e-07
-4.75678e-10
-1.27205e-07
-1.06016e-08
8.29088e-08
-8.8089e-08
1.29326e-07
-1.24146e-07
-3.92208e-08
-2.68267e-08
1.48956e-07
1.30185e-07
-1.55136e-08
-1.09796e-07
-4.8749e-09
1.48318e-07
5.31832e-08
-5.71928e-08
1.0006e-07
1.36473e-07
-6.17491e-08
-6.37827e-08
-2.00466e-07
1.90462e-07
-1.39166e-07
6.82053e-08
-5.61228e-09
1.81736e-07
-1.87246e-07
1.35604e-08
-8.05044e-09
-6.97956e-08
-5.1208e-08
1.19834e-07
1.16923e-09
1.27327e-07
8.75158e-08
-1.29993e-07
-8.48489e-08
-5.08513e-08
-7.82951e-08
1.14393e-07
1.47538e-08
1.11989e-07
-1.17101e-07
-4.57391e-08
1.11265e-07
-4.43862e-09
-6.62557e-10
-1.06164e-07
8.52028e-08
-1.54025e-07
7.72279e-08
-8.40568e-09
1.12657e-07
-4.27992e-10
-1.1214e-07
-8.85173e-11
-1.78619e-08
8.98562e-09
1.40098e-07
-1.31222e-07
-4.56684e-08
1.89217e-07
-2.73442e-08
-1.16205e-07
-7.2805e-10
-4.93438e-10
-1.35941e-07
1.37163e-07
-7.47833e-08
-4.86887e-08
1.16569e-07
6.90317e-09
-9.71987e-08
-3.99264e-08
-1.28588e-08
-6.49553e-08
1.41655e-07
8.50324e-09
7.72855e-08
4.56447e-08
-3.05141e-08
-9.24161e-08
-6.82227e-08
-9.97186e-08
1.28721e-07
4.88439e-08
-1.20442e-07
3.3753e-09
1.53404e-07
-8.18135e-08
-1.44497e-07
7.29064e-08
-1.33087e-08
2.51441e-09
1.17418e-07
-1.06623e-07
1.56833e-07
-3.27537e-08
-1.11968e-08
-1.12882e-07
1.19935e-07
-9.19938e-08
-5.90319e-08
3.10906e-08
-5.46858e-10
1.0981e-07
-1.09321e-07
5.83034e-11
1.22077e-07
8.53366e-08
-8.54958e-08
6.29095e-10
-4.69894e-10
4.31995e-08
-1.60055e-07
9.31361e-08
2.37195e-08
-1.62308e-07
1.41044e-07
6.44632e-08
-7.42989e-08
-1.83093e-10
-3.01347e-10
-8.50933e-10
1.14612e-07
-1.10454e-09
1.13295e-07
-1.12905e-07
-5.85348e-10
1.94629e-10
-2.66072e-08
-1.58228e-07
1.20084e-07
1.94642e-07
-1.48172e-07
-1.66554e-07
-6.20574e-08
-1.04032e-07
2.93416e-07
-1.46792e-07
1.64176e-07
-1.37839e-07
1.20454e-07
-1.24321e-07
6.59204e-08
-5.38216e-09
1.15583e-07
-1.1284e-07
-3.57573e-09
8.33126e-10
9.8467e-08
2.52654e-08
1.18155e-08
-1.35548e-07
2.18148e-09
-1.52912e-07
1.48262e-07
3.41511e-08
-2.9501e-08
-8.54286e-09
-9.41597e-08
1.02372e-07
3.30784e-10
-1.429e-07
1.38336e-07
1.79352e-07
-1.72589e-07
-3.73471e-10
-1.99746e-10
2.07416e-09
-1.64176e-09
1.09387e-07
-1.09819e-07
3.96607e-08
-1.15893e-07
-2.06242e-09
9.23439e-08
-9.87326e-08
3.78129e-09
2.60742e-09
-8.60487e-08
1.42709e-07
-6.27831e-08
6.12315e-09
1.47564e-07
-7.64574e-08
-7.45561e-08
3.4492e-09
9.13422e-08
-9.15868e-08
-4.835e-10
-1.12652e-07
-1.72521e-09
1.16569e-07
7.62437e-08
7.19079e-08
-7.7335e-09
-1.40418e-07
-6.03133e-09
1.36406e-07
-1.31194e-07
8.19379e-10
8.91e-08
-1.51018e-07
-3.03758e-09
1.08893e-07
-1.7958e-08
3.3869e-08
-1.24804e-07
1.50473e-07
-2.35446e-08
-1.70569e-07
4.36405e-08
4.09222e-08
8.24418e-08
-1.2099e-08
6.47641e-08
-1.28272e-07
7.03125e-08
-6.80471e-09
1.35587e-07
-1.36683e-07
-1.53163e-10
-1.01063e-07
1.4425e-07
-3.1906e-08
-1.1281e-08
-2.06222e-07
-1.51237e-07
2.89066e-07
6.83928e-08
-1.21024e-07
-4.22293e-10
1.26007e-07
-6.47113e-09
1.3556e-07
-1.43855e-07
-5.4128e-08
6.24233e-08
-1.26322e-07
6.52472e-08
6.70201e-08
-5.94528e-09
-3.13817e-08
-5.32926e-08
-4.88629e-08
-1.01502e-07
1.01746e-07
-4.625e-10
2.18458e-10
4.02497e-08
1.7474e-07
-6.74255e-08
1.05424e-07
-6.35224e-08
5.0442e-08
-7.33857e-08
-8.04611e-08
1.49893e-07
3.95388e-09
-5.54873e-10
-2.20272e-07
-5.94891e-10
2.21422e-07
7.46616e-08
-4.68447e-08
8.54784e-08
-2.285e-10
6.509e-08
-6.49105e-08
4.9075e-11
-1.92684e-08
1.40615e-07
6.76805e-08
-1.89027e-07
1.71138e-07
-8.64979e-08
-8.9735e-08
5.09469e-09
1.19941e-07
3.81039e-08
-3.64326e-08
-1.21612e-07
1.64259e-07
-7.73282e-08
7.65875e-08
-1.63518e-07
3.53153e-08
1.33138e-08
1.1563e-07
-8.89113e-08
8.46066e-08
-1.63321e-07
1.25167e-07
1.01234e-09
-1.22334e-07
-3.84484e-09
-3.9835e-08
-2.80943e-07
1.96457e-07
8.41839e-08
8.66742e-08
-6.68165e-09
-4.2463e-10
5.2747e-10
9.41648e-08
-9.42676e-08
-1.24415e-07
1.24276e-07
-3.54503e-10
-6.01298e-08
1.20014e-07
6.03644e-09
7.38605e-09
8.79082e-08
-5.00274e-09
-9.02916e-08
-1.28616e-07
5.67704e-08
8.98443e-08
-1.79985e-08
-4.43364e-08
-8.1441e-08
-1.01639e-08
-8.35799e-08
1.62223e-07
5.54045e-09
7.25657e-08
7.56724e-08
-1.43102e-07
-5.13588e-09
1.14283e-07
9.45269e-10
-1.15147e-07
-8.12406e-11
-6.15124e-09
-2.01517e-07
-1.41647e-08
2.11108e-07
-6.5398e-09
1.21769e-07
-1.22945e-07
5.76531e-08
-7.50753e-09
9.80948e-08
-4.29446e-10
-9.65932e-08
-1.07217e-09
1.22821e-07
-8.11785e-10
1.36333e-07
-4.64898e-08
8.1295e-08
1.34177e-10
-1.0435e-07
-3.38075e-09
1.12099e-07
-4.36805e-09
9.14157e-08
-5.04155e-08
-9.06275e-08
3.07238e-11
9.04671e-08
1.29705e-10
-3.51285e-08
-1.36687e-07
1.45448e-07
2.63679e-08
-2.1525e-09
1.31224e-07
-1.28672e-07
-3.9965e-10
-8.85846e-08
-3.68498e-08
1.25723e-07
-2.88674e-10
-4.23682e-09
2.06262e-09
-1.10478e-07
-1.64206e-07
8.76006e-08
8.17816e-08
-5.17575e-09
3.35841e-10
-1.01279e-07
1.01201e-07
-2.58175e-10
1.38558e-07
-7.68909e-10
-2.76543e-10
-1.11245e-07
3.00674e-10
1.11221e-07
-3.31746e-08
2.12311e-08
1.96217e-08
1.32016e-07
-7.22034e-08
4.95108e-09
1.41333e-07
-1.40478e-07
-1.41641e-08
-1.24383e-07
1.40448e-07
1.91557e-08
-3.52206e-08
7.23775e-08
-7.36637e-08
1.51759e-07
3.85968e-09
1.13905e-07
1.52944e-07
-1.29989e-09
-1.53797e-07
6.89485e-08
-1.43834e-07
-4.47312e-09
7.93588e-08
1.4378e-07
-7.92106e-08
7.9965e-09
1.00427e-07
-9.82927e-08
-1.13015e-07
5.84364e-08
-3.09174e-08
-1.50614e-07
1.43599e-07
-1.92669e-08
2.62817e-08
1.60963e-07
4.65131e-08
-5.19606e-08
-1.54252e-07
-7.41606e-08
-3.04803e-08
8.10773e-08
2.35636e-08
-1.31197e-07
6.90524e-08
-5.4814e-08
1.16959e-07
-1.53112e-07
-3.37343e-09
1.59501e-07
-3.01553e-09
-1.09675e-07
2.07955e-08
-6.42321e-08
-1.64414e-07
-6.31058e-09
9.52527e-08
-1.39477e-09
-1.13023e-07
-5.46617e-10
-1.09619e-07
1.40573e-07
-7.43464e-08
6.04123e-09
1.56672e-07
-8.37105e-08
-7.94215e-08
6.45999e-09
-1.35086e-07
1.81329e-07
-4.66418e-08
3.9938e-10
8.26802e-08
-8.33539e-08
-1.34412e-07
9.54039e-08
7.37259e-09
-2.34929e-09
6.60505e-10
1.05213e-07
-1.04691e-07
-1.18207e-09
1.91127e-07
-4.85158e-08
-1.04507e-07
-1.09369e-07
7.14051e-08
1.15632e-07
-1.10992e-07
-2.57696e-09
-1.82907e-09
1.0239e-07
-1.00895e-07
3.3419e-10
-9.80595e-09
-1.35778e-07
1.32893e-07
1.26908e-08
-1.40114e-07
1.56936e-07
-9.90083e-09
-6.92203e-09
1.2173e-07
-7.38681e-08
-4.52885e-08
6.21798e-09
-8.06826e-09
-9.83541e-08
9.78795e-08
3.31165e-08
-6.82773e-09
-1.35964e-07
-2.01939e-08
1.11132e-07
-8.47029e-08
-6.23575e-09
1.61246e-07
-6.821e-09
-1.38204e-08
-1.40604e-07
1.57711e-07
1.74906e-10
-2.65845e-09
-1.55228e-07
1.37036e-07
-1.35457e-09
-9.39717e-11
1.29867e-07
-1.30141e-07
2.80342e-10
-6.92846e-12
-1.26153e-07
-8.21261e-08
1.26838e-07
2.12666e-08
-1.71133e-07
-1.11323e-07
1.11096e-07
7.58773e-11
1.51375e-10
-1.34729e-07
-7.27886e-09
1.89467e-09
-1.02546e-07
-1.09571e-11
1.02528e-07
2.83293e-11
-1.22814e-07
-2.43237e-10
1.2319e-07
-1.32381e-10
-8.46015e-09
1.19185e-07
-1.02474e-07
-7.48636e-09
-1.03375e-07
1.02932e-07
1.67236e-10
1.61473e-08
2.87232e-08
8.86535e-08
-1.32015e-07
7.29932e-08
-7.33255e-08
1.44945e-07
-1.44613e-07
1.03807e-07
-8.16621e-08
-2.43185e-08
2.17346e-09
1.22749e-07
-2.35636e-08
-1.08369e-07
1.12659e-08
5.67416e-09
-1.09176e-07
1.23413e-07
-1.9911e-08
-5.81518e-10
1.02733e-07
-1.01696e-07
-4.55644e-10
-1.41374e-07
-8.46938e-09
1.65901e-07
2.06962e-07
-8.8201e-08
1.86887e-07
1.53797e-07
-7.66969e-08
5.57988e-09
-2.92701e-08
2.59025e-08
-1.08827e-07
1.15023e-07
8.85457e-08
9.36514e-08
-7.45699e-09
9.32469e-08
7.25727e-08
-1.59888e-07
-5.93188e-09
8.20682e-08
7.93958e-08
-7.66683e-09
1.21842e-07
-7.54457e-08
8.34711e-08
7.3795e-08
-1.25141e-07
5.96376e-08
-8.29149e-09
6.76485e-10
-9.91597e-08
-1.23539e-09
3.18588e-10
-3.10909e-07
1.85668e-07
1.97043e-07
-1.23426e-07
4.19447e-08
9.47777e-09
4.35529e-08
4.54563e-08
-9.8487e-08
-1.28364e-07
1.95979e-09
1.27552e-07
-1.14822e-09
-9.84755e-08
9.80246e-08
-2.63997e-11
4.77361e-10
1.28873e-07
-1.66801e-07
1.97221e-07
-1.59293e-07
1.55557e-08
-1.40652e-09
1.26331e-07
-3.15963e-08
7.41751e-09
-7.36538e-08
9.78326e-08
-7.19359e-08
1.39725e-07
5.20421e-09
-1.45985e-07
7.58762e-08
7.52938e-08
-5.18508e-09
-1.10758e-07
-2.48839e-08
1.15448e-07
4.95227e-10
7.69424e-08
-8.49344e-11
-7.73527e-08
1.46048e-07
-6.62976e-08
7.70823e-08
1.36134e-09
-1.17178e-10
8.63531e-11
-9.69492e-08
1.78073e-07
-4.75203e-08
-2.94999e-08
-1.01052e-07
9.95278e-10
2.97136e-08
-1.10997e-07
8.4188e-08
-3.38133e-08
2.26135e-08
2.02426e-07
-1.70543e-08
1.66162e-07
-1.76405e-07
-6.26385e-08
-6.71605e-08
5.41628e-09
1.31332e-07
6.29303e-09
-7.07961e-08
-7.18654e-08
1.35368e-07
7.29366e-09
8.5982e-09
1.11118e-07
-1.49496e-07
-1.56385e-10
6.98999e-08
-6.89231e-09
-6.55706e-10
-1.34711e-07
1.37837e-10
1.35229e-07
-1.37269e-07
1.67185e-07
-4.27606e-08
1.1157e-08
-9.51465e-09
5.10764e-08
1.11383e-07
-1.2879e-07
7.51797e-08
-2.70078e-08
8.06181e-08
-1.40955e-07
9.50079e-08
-1.28797e-07
1.27246e-07
2.51129e-10
9.26036e-08
2.19569e-08
-1.66607e-07
-2.16836e-08
1.66334e-07
-1.82936e-07
1.0031e-07
-1.37647e-07
-1.69458e-09
1.65767e-07
2.41969e-08
6.66255e-08
-9.54829e-08
4.66048e-09
6.64165e-08
-3.32026e-08
5.21681e-10
-1.00065e-07
5.31799e-10
-2.3532e-07
2.35281e-07
-5.5637e-10
-9.54834e-08
-1.00055e-07
-9.34186e-08
1.01565e-07
-1.11522e-07
8.41998e-08
-1.06792e-07
1.7133e-08
5.45954e-09
1.25994e-07
-9.08381e-08
-9.25294e-09
-1.55229e-07
-1.10209e-08
2.10166e-08
1.45234e-07
-3.10296e-07
-2.94423e-10
-1.31556e-07
1.30736e-07
3.95329e-10
-9.36043e-08
-7.57802e-11
2.61478e-10
-1.4238e-08
-9.45267e-08
1.51518e-07
-4.27528e-08
1.08571e-07
5.40068e-09
4.37397e-08
-1.35334e-07
1.34463e-07
-3.56757e-09
-5.59163e-08
1.41989e-07
-9.93486e-08
2.93528e-10
-1.28395e-07
-2.62634e-10
9.21291e-08
-9.39993e-08
2.28409e-10
-6.64837e-08
-6.60922e-08
1.24787e-07
7.78898e-09
1.13649e-07
1.76646e-08
-9.74303e-08
-3.38837e-08
5.58061e-08
1.52982e-07
-1.96009e-07
-1.46244e-08
-1.10591e-07
-1.94806e-08
1.27792e-07
4.60352e-11
-1.28138e-07
2.99681e-10
2.41195e-08
7.71272e-09
5.46105e-08
-8.64427e-08
-1.41977e-07
7.62955e-08
-5.11419e-09
-1.1666e-07
1.13714e-07
-6.85582e-09
-3.75829e-10
1.2187e-07
3.47285e-10
-8.04403e-08
-7.21813e-08
1.45505e-07
7.11633e-09
1.29707e-07
-6.97636e-08
-6.68756e-08
6.93188e-09
1.30089e-07
-2.29023e-09
-7.15091e-12
-1.01664e-07
-9.20086e-08
1.00068e-07
-1.31352e-07
-4.71669e-08
6.21644e-09
1.73515e-07
-1.06467e-07
2.97968e-08
-1.29553e-07
2.01263e-10
-1.06007e-07
6.24524e-10
-7.01141e-10
1.35045e-07
2.57684e-08
-2.75354e-08
-1.33278e-07
4.62624e-08
-1.30447e-07
-4.13944e-11
1.24867e-10
3.91233e-08
-1.95232e-07
-7.86962e-08
1.33061e-07
8.98849e-08
2.0801e-08
-1.46642e-07
-1.84827e-08
1.44324e-07
-8.18148e-08
6.25051e-09
1.33785e-07
-1.32555e-07
9.21988e-08
4.18305e-08
-1.47435e-09
-6.09853e-10
1.34209e-10
-9.76227e-08
6.70396e-08
-4.54533e-09
-1.55497e-09
-3.01401e-09
-2.356e-09
9.6092e-08
-9.0722e-08
8.28995e-08
1.05535e-07
-1.04185e-07
-8.42494e-08
1.49874e-07
-1.67307e-07
3.64301e-10
1.41039e-10
1.5817e-07
-1.02542e-08
-1.3893e-07
-4.27772e-08
1.53512e-07
1.09949e-08
1.1941e-07
-1.12614e-07
-5.84866e-09
-9.47953e-10
-1.06306e-09
1.14874e-07
1.65238e-07
-5.74277e-08
-2.38597e-09
9.45463e-08
-8.38592e-08
-5.23054e-10
2.82572e-10
1.41574e-07
-1.57892e-07
7.17151e-09
1.45363e-07
3.12306e-09
-1.20032e-08
1.62984e-07
-2.04276e-07
4.40747e-08
1.02422e-09
9.11003e-08
-8.83547e-10
-9.1241e-08
-1.1816e-07
1.18396e-07
-1.49484e-10
1.14959e-09
-2.18256e-10
-1.12569e-07
1.11542e-07
-3.57141e-11
-1.1056e-07
-2.50724e-10
2.19661e-10
7.18804e-08
-1.03375e-07
-7.69035e-08
1.08398e-07
1.81318e-11
-1.16084e-07
1.16208e-07
-1.43074e-10
-3.8972e-08
7.43394e-08
-5.13932e-09
-1.96991e-08
-1.41825e-07
7.3749e-08
-6.08475e-09
2.83179e-08
-1.60151e-08
1.07107e-07
-1.3632e-07
6.57381e-08
6.33026e-08
7.27943e-09
-1.59644e-07
-1.11657e-07
1.12163e-07
-1.26978e-07
-4.34695e-08
5.82841e-08
1.30646e-07
-1.31413e-07
2.20242e-10
5.46749e-10
-1.78528e-09
-1.85196e-07
1.60028e-10
1.86821e-07
-1.06175e-07
4.6729e-11
1.06175e-07
-1.28519e-07
-1.27031e-10
5.08754e-10
7.28033e-08
-1.28517e-07
-6.92528e-09
2.9172e-10
-1.30277e-07
-1.55369e-10
7.66229e-08
7.7215e-08
-5.57623e-09
-7.40376e-08
-7.42538e-08
1.42028e-07
6.26375e-09
-1.17559e-07
8.75967e-10
1.16465e-07
2.17915e-10
1.25044e-07
3.08933e-08
1.11273e-07
-1.57544e-08
1.08761e-07
-5.61694e-09
-9.9506e-08
4.69176e-08
4.53229e-08
7.26555e-09
2.79094e-08
1.29193e-07
-2.8977e-08
-1.23803e-07
7.39554e-08
-7.19077e-08
-1.32263e-07
-1.06629e-07
1.17182e-07
1.21711e-07
1.0934e-07
-1.40163e-10
1.16244e-07
-1.17662e-07
1.41515e-09
2.78673e-12
-1.31972e-07
-1.29584e-07
8.46905e-10
6.50028e-11
1.71287e-08
3.55593e-08
-1.57589e-07
1.52019e-08
-4.35284e-08
1.97972e-07
1.35091e-07
-1.17526e-07
-1.9341e-08
2.26031e-09
1.94358e-08
-2.14109e-08
1.33935e-07
-3.32402e-08
-7.92837e-08
1.06795e-07
-6.81187e-10
-1.05892e-07
-2.21774e-10
-4.21495e-08
-1.45492e-07
2.89019e-07
-1.01378e-07
1.04911e-07
-7.99312e-08
-7.82962e-10
-1.23872e-11
1.03115e-07
-3.69718e-10
7.39916e-08
-7.45042e-08
1.32608e-07
-1.74672e-07
-1.31032e-07
7.97938e-08
1.27115e-07
-2.33498e-09
-3.03973e-08
-8.26957e-08
7.15152e-08
8.54743e-08
8.24853e-09
1.72976e-07
-1.25506e-07
3.64302e-09
1.48694e-07
-8.04218e-08
7.02182e-09
1.21754e-07
-1.61684e-07
1.28376e-07
-7.72749e-08
-3.51257e-08
-1.39372e-08
1.83825e-09
1.0487e-07
-1.16514e-07
6.85093e-08
-1.2971e-07
-5.28334e-09
1.49801e-07
6.09458e-09
-4.5531e-08
1.37449e-07
-9.2621e-08
-2.14284e-09
-2.56514e-08
1.40198e-07
-1.57364e-07
4.28166e-08
1.17208e-07
2.1103e-08
-5.58687e-08
-2.08536e-09
-1.41229e-07
1.41282e-07
-9.10561e-10
-3.01461e-08
2.28217e-08
-9.78615e-08
1.05186e-07
7.56824e-08
-1.42452e-07
-5.09538e-09
-1.36589e-07
1.3702e-07
-1.39553e-10
-7.67409e-08
1.58429e-07
-1.23838e-07
-7.25954e-08
-7.98588e-08
1.57668e-08
-1.00866e-07
-1.12699e-10
2.08473e-07
3.79786e-08
-1.42047e-07
-1.07234e-07
-7.41569e-08
1.32561e-07
2.30662e-07
-1.11363e-10
-9.00795e-08
-7.5686e-11
9.02666e-08
3.2605e-08
1.1006e-07
-6.56929e-10
1.50125e-07
6.29174e-09
9.73079e-08
5.69288e-08
2.69979e-09
7.38575e-08
-1.42334e-07
-5.56075e-09
-7.32089e-08
-8.24471e-08
1.47001e-07
8.65543e-09
-9.09775e-08
-4.40486e-09
-4.12366e-09
-7.36012e-08
-1.20301e-07
1.14859e-07
-5.30639e-11
-1.24728e-07
-3.37382e-09
1.22071e-07
-9.05129e-08
-1.37255e-07
9.83138e-08
1.29455e-07
-1.1278e-07
3.91657e-08
7.6839e-08
-3.22476e-09
7.08513e-08
7.05801e-08
-1.34468e-07
-6.96373e-09
-7.17664e-08
-6.91817e-08
1.34583e-07
6.3652e-09
5.21064e-08
4.83165e-08
-1.1041e-07
9.98736e-09
-6.78196e-08
1.1316e-07
-3.6828e-08
-8.51236e-09
1.06276e-07
-1.0674e-07
-1.91974e-10
-9.49178e-08
6.71482e-10
8.27037e-08
1.06923e-07
-2.85687e-08
-1.61058e-07
-3.14277e-08
8.97063e-08
3.86655e-08
-9.69442e-08
-9.85847e-08
-1.80922e-11
1.00295e-07
-1.69199e-09
-7.44053e-08
-4.28474e-08
9.58419e-08
1.24997e-07
-3.3258e-09
7.08047e-08
-1.31932e-07
6.62023e-08
-5.07501e-09
-5.96414e-08
4.30364e-08
-1.22818e-07
1.15163e-08
1.30639e-07
-1.06305e-07
-3.45606e-08
7.06329e-08
8.3565e-08
-7.50549e-08
7.94226e-10
-1.23475e-07
-1.33401e-10
1.5838e-08
-6.05401e-09
1.04382e-07
-1.18251e-07
5.70788e-08
5.39916e-08
7.18054e-09
7.43956e-08
-4.92804e-09
3.97934e-08
6.39454e-08
7.39363e-09
8.97593e-09
1.28799e-07
-1.06603e-08
-6.53669e-09
-8.3032e-08
8.12065e-08
1.3576e-07
-7.51291e-08
-1.58599e-07
1.59172e-07
1.6667e-07
5.87564e-08
-5.62846e-08
-1.69142e-07
1.44532e-08
-1.30799e-07
1.40465e-07
-7.93077e-08
-7.21193e-08
1.44647e-07
6.77971e-09
-4.75348e-08
-1.14413e-07
1.93904e-09
6.86648e-08
-6.78819e-09
1.31312e-07
-6.16966e-10
-4.89859e-11
2.2576e-08
-8.70097e-08
9.27517e-08
2.27395e-10
2.39322e-10
-1.37056e-07
-3.08454e-09
8.33414e-08
-8.0664e-08
1.15188e-08
-8.49561e-08
1.45228e-07
-7.17908e-08
-2.82948e-08
-1.36707e-07
1.21191e-09
1.6379e-07
9.43674e-08
-1.81465e-07
7.10033e-08
1.60941e-08
-1.23949e-07
9.12778e-08
-9.88856e-08
1.01569e-07
-6.58228e-10
-1.00611e-07
-3e-10
-4.60163e-08
-1.29726e-07
4.65076e-08
1.29234e-07
-7.33522e-08
-1.24155e-07
1.50213e-07
4.72947e-08
-2.89106e-09
-1.43783e-07
1.44442e-07
2.23196e-09
-1.26661e-07
1.26497e-07
-1.62117e-09
-1.45591e-07
1.28659e-07
-6.47163e-08
1.39176e-07
7.1416e-08
-6.01514e-09
7.74962e-08
-1.38149e-07
-6.44879e-08
-1.27309e-07
8.8751e-08
-1.03419e-07
-1.36278e-08
1.43825e-07
-8.86859e-08
-3.5094e-08
1.21777e-07
-1.19785e-07
-3.36648e-09
1.37409e-09
-9.87877e-08
-2.37287e-09
4.21134e-09
1.38856e-10
-1.51371e-07
1.48342e-07
-9.13998e-08
-3.45126e-10
7.67504e-10
-9.39008e-08
7.89401e-08
1.55681e-08
-6.07362e-10
-5.61763e-08
-1.34589e-07
1.81091e-07
9.67432e-09
1.16927e-07
-4.81662e-10
5.69567e-08
4.85939e-08
-1.14351e-07
8.80077e-09
-1.09994e-07
-5.6056e-10
1.10263e-07
2.91232e-10
-1.07485e-07
1.54005e-08
-2.55779e-08
6.38584e-08
-1.22144e-07
5.16043e-08
6.68146e-09
-4.72244e-09
-9.50535e-08
4.29256e-09
1.52013e-09
-1.35357e-07
1.57391e-09
5.41424e-08
7.54788e-08
-9.50574e-08
1.9635e-08
6.3381e-08
2.0925e-08
1.28496e-07
-1.2904e-07
5.88487e-10
-4.39784e-11
-2.08107e-07
1.96177e-07
8.63284e-08
-7.43988e-08
5.75737e-08
-1.4838e-07
1.1406e-07
-2.32542e-08
7.52541e-08
-6.74231e-09
-6.86669e-10
-6.63889e-11
5.83325e-08
-6.19331e-08
-1.16911e-07
1.66635e-07
-1.38309e-07
1.14727e-07
-1.51042e-08
6.90461e-10
-1.53608e-07
1.52905e-07
1.31674e-07
-1.60391e-07
-1.42949e-09
-8.80441e-08
-8.37402e-08
1.64897e-07
6.88703e-09
9.52847e-08
1.53291e-10
-9.54868e-08
4.88039e-11
-1.48997e-07
7.97283e-08
7.39278e-08
-4.65874e-09
-2.01899e-07
1.25332e-07
-1.40149e-07
2.16717e-07
-1.94739e-07
2.54686e-08
-4.60905e-08
-1.14089e-07
-1.65567e-07
1.01788e-07
3.81271e-08
-1.48388e-08
-1.29603e-07
1.41243e-07
3.19831e-09
-3.35457e-09
-1.13069e-07
-9.72934e-09
1.14922e-07
-1.13296e-07
1.17863e-07
-3.75083e-08
1.68776e-07
1.39564e-07
1.22267e-07
-1.30441e-07
-1.24501e-07
3.96033e-10
1.20474e-07
-1.2094e-07
7.04565e-11
1.0423e-07
-1.12875e-07
3.92244e-09
-8.08705e-08
-6.26537e-10
7.08595e-08
1.06141e-07
-4.56879e-08
6.42673e-08
-1.24247e-07
-4.73659e-09
-3.4679e-10
1.1733e-07
-1.171e-07
1.17102e-10
-1.21107e-07
-3.20392e-10
1.22103e-07
-6.75841e-10
-1.2353e-07
4.53572e-08
-3.44407e-08
-1.20793e-08
1.0184e-07
8.14349e-08
-1.2039e-09
-1.82071e-07
3.07412e-09
-8.9671e-11
-1.74662e-08
8.41934e-08
-1.51101e-07
8.43738e-08
-1.30479e-07
1.32421e-07
6.76815e-08
-6.30042e-09
2.8317e-08
-1.354e-07
-3.82964e-08
1.4538e-07
4.19995e-08
1.18623e-08
3.49502e-08
-8.8812e-08
7.12315e-08
7.78568e-08
-1.42728e-07
-6.36063e-09
-1.0669e-07
1.04931e-07
1.7497e-09
9.42798e-12
-7.03214e-08
7.27952e-09
5.74783e-08
-5.52972e-08
1.29884e-07
-1.32065e-07
-1.0834e-07
2.29703e-07
-4.79299e-08
-7.34338e-08
8.90052e-08
-7.43992e-08
-7.79573e-08
6.33513e-08
7.06933e-08
-5.80882e-08
-1.40955e-07
5.56521e-08
8.56187e-09
6.01965e-08
8.34009e-08
7.78467e-08
8.00703e-08
-1.51792e-07
-6.12534e-09
1.395e-07
8.31214e-09
-6.43216e-09
-1.4138e-07
1.06412e-07
7.54554e-10
-3.71833e-10
1.00356e-07
-1.02278e-07
2.37938e-09
-4.57226e-10
-6.81609e-08
-8.02138e-08
1.41493e-07
6.8815e-09
-1.25482e-07
1.53054e-09
4.21746e-10
-1.10304e-07
-4.53399e-11
3.55196e-10
1.17393e-08
1.28541e-07
1.15948e-07
1.99808e-09
-1.01843e-09
1.51168e-10
-1.07293e-07
1.06581e-07
1.01114e-07
1.78829e-08
2.77997e-09
-1.24777e-08
3.77415e-08
-1.25187e-07
9.99236e-08
1.30096e-07
-1.29871e-07
-1.09411e-10
-1.15936e-10
-3.09127e-08
-1.23498e-07
1.79879e-07
-1.23684e-07
-1.9937e-08
1.48957e-07
-5.33634e-09
1.60523e-07
-1.36189e-07
-2.34715e-08
-2.14732e-08
1.3395e-07
1.31496e-07
-1.3253e-07
4.338e-10
5.99484e-10
1.56324e-07
-4.82349e-08
-1.53883e-07
4.57941e-08
1.29911e-07
-1.30057e-07
1.53782e-07
-1.53636e-07
9.39409e-09
-1.30148e-08
-1.02685e-07
1.06306e-07
2.78443e-08
-1.07211e-07
-4.54777e-08
1.24845e-07
9.04283e-08
8.1998e-08
-1.65183e-07
-7.24354e-09
2.12794e-07
-2.25156e-07
-1.20818e-07
-1.14551e-07
1.06938e-07
-1.36613e-08
1.31354e-08
-1.94461e-07
1.68766e-07
-8.965e-08
1.40134e-07
-2.38233e-07
1.87749e-07
8.29212e-08
-1.66479e-07
-6.09195e-09
2.13107e-08
9.35936e-08
-1.61589e-08
-9.87454e-08
-1.56846e-09
1.24003e-07
-1.48629e-08
-1.0392e-07
-6.16644e-08
1.60582e-07
-1.12056e-07
1.31393e-08
-2.86044e-08
8.25982e-08
-4.64987e-08
-7.49517e-09
3.00398e-10
-1.03859e-07
1.04001e-07
-4.42329e-10
2.79542e-09
1.30084e-07
-1.31736e-07
-1.14281e-09
-3.87007e-08
-1.32195e-07
1.44008e-07
3.30407e-08
-5.46576e-08
1.59367e-07
7.51e-09
-5.01036e-08
-4.63436e-08
1.31958e-07
-2.34721e-07
-2.1364e-08
-1.58382e-07
1.25154e-07
-7.51123e-08
1.28718e-07
-1.25435e-07
-4.87448e-10
-1.02673e-07
1.54481e-09
-2.27732e-09
1.03405e-07
6.46972e-08
-1.99007e-07
-1.5211e-07
-4.18581e-11
1.31685e-07
-1.31412e-07
-2.30424e-10
-1.2607e-07
-4.44958e-08
1.61586e-07
5.96788e-09
-9.5084e-09
1.1568e-07
-1.03657e-07
-1.18984e-08
1.51203e-07
-1.21461e-07
4.53162e-10
-9.8984e-11
6.72446e-08
-1.59193e-07
8.65226e-08
5.42626e-09
-1.48989e-09
-1.24339e-07
-1.56739e-09
1.32785e-07
6.12826e-09
-1.09504e-07
5.5783e-08
5.18443e-08
1.87691e-09
-1.11253e-07
3.04406e-08
1.51506e-07
-6.88136e-11
1.41725e-07
-7.46053e-10
-1.4091e-07
7.63117e-09
1.25067e-07
-2.66391e-08
-1.06059e-07
1.50232e-07
-1.71245e-07
8.87134e-08
-6.77002e-08
4.75155e-08
1.19786e-07
-5.8799e-08
-6.84461e-09
8.66238e-08
1.01451e-07
-1.77349e-07
-1.37717e-08
-6.88775e-09
1.14174e-07
-1.37766e-07
1.21008e-07
3.32118e-10
-1.21381e-07
4.03549e-11
7.61413e-09
1.04871e-07
-3.91466e-09
8.30222e-08
-2.06265e-07
3.27302e-08
-1.37859e-07
2.12347e-09
-7.77359e-08
-6.62395e-08
1.37044e-07
6.93182e-09
-1.1068e-07
-5.0888e-08
3.39994e-08
1.27568e-07
-1.24168e-07
-6.303e-10
-6.83685e-10
-7.27522e-08
1.53715e-07
-8.69729e-08
6.01034e-09
7.7877e-08
-1.54565e-07
8.04997e-08
-3.81146e-09
-1.17192e-07
-2.28967e-10
1.06815e-07
-1.09718e-07
4.82897e-09
-1.92603e-09
1.57557e-07
-8.82651e-08
8.58511e-09
-1.19685e-07
2.02413e-08
-2.03415e-08
6.17966e-08
-1.0222e-07
-2.30988e-08
1.30621e-07
-1.2974e-07
-1.90962e-10
7.08817e-08
6.35663e-08
-6.34146e-08
-7.10334e-08
8.32565e-08
1.55162e-07
-1.67568e-07
8.22916e-08
7.00458e-08
-1.46975e-07
-5.3622e-09
-1.20556e-07
6.36524e-08
4.9495e-08
7.40875e-09
2.15322e-10
1.30913e-07
3.68294e-10
8.2818e-08
7.72632e-08
-1.54613e-07
-5.46821e-09
1.10582e-07
1.21414e-07
-9.95621e-09
-1.07783e-07
-3.67418e-09
9.94374e-08
7.77549e-11
1.53612e-07
-1.55095e-07
-8.50767e-08
8.656e-08
5.19901e-08
6.20916e-08
7.33206e-09
-6.2491e-09
-2.43977e-07
1.9555e-08
1.56032e-07
-3.6321e-09
6.32124e-09
1.58994e-07
1.36644e-07
-2.3178e-07
-1.28105e-07
1.06586e-09
-1.57853e-09
1.28618e-07
7.06146e-10
1.03291e-07
-1.03893e-07
-1.04264e-10
-8.27241e-08
1.88445e-07
-1.85028e-07
5.4051e-08
1.28297e-07
-6.74693e-08
-1.14879e-07
4.78214e-08
6.07668e-08
-1.16146e-07
7.55751e-09
1.55158e-07
-1.19155e-08
2.16549e-08
-1.38734e-07
-5.56708e-09
5.04366e-08
-1.50149e-07
-1.92221e-08
-9.90141e-08
-1.15963e-07
1.09402e-07
2.09389e-08
-5.17461e-09
-2.13229e-08
1.00384e-07
3.03414e-08
3.68916e-08
-8.17486e-08
-3.11647e-09
1.30246e-07
3.86521e-09
1.3306e-10
4.11393e-10
-2.16856e-07
-1.55856e-08
-5.02233e-10
1.08202e-07
1.511e-08
-1.1528e-07
-1.51743e-08
2.84939e-07
-1.25398e-07
-1.44367e-07
-1.75631e-07
1.43294e-07
1.19558e-07
-1.51327e-07
-7.11524e-08
7.69057e-08
-7.88069e-08
7.30536e-08
1.23399e-07
-1.27908e-07
-3.93798e-09
8.44629e-09
-4.11982e-09
-6.62449e-08
8.28519e-08
-1.92238e-07
-8.36701e-08
6.76519e-08
-4.15931e-08
-1.2313e-07
2.76906e-07
-4.30989e-08
-1.02256e-07
-1.38389e-08
-7.98414e-08
1.60872e-07
2.22576e-09
-3.456e-08
-7.41908e-08
9.29426e-08
1.58082e-08
4.14779e-08
-1.86038e-07
8.43118e-08
6.02482e-08
-1.10723e-07
1.10473e-07
-1.31366e-10
3.81919e-10
9.53449e-08
-1.71532e-10
1.44875e-08
1.30154e-07
1.17201e-07
-7.66491e-09
-8.67147e-08
-1.54405e-07
1.85644e-08
8.13792e-10
1.36906e-07
-1.04007e-07
1.54172e-07
-4.77718e-08
-6.00185e-09
3.11662e-09
1.30256e-07
-3.12625e-09
1.09e-07
4.06854e-08
-1.58788e-07
-3.08943e-08
-1.29988e-07
-1.12752e-07
-8.80051e-08
4.55281e-08
-1.14905e-08
1.1252e-07
-8.83123e-09
-9.80139e-08
-1.12739e-07
-3.24763e-09
9.84453e-08
-1.26656e-07
1.02322e-07
-6.58737e-10
-1.01037e-07
-6.26864e-10
-2.67003e-08
-1.5309e-07
-1.83433e-07
1.83082e-07
1.1643e-07
-4.88401e-08
1.11642e-08
-7.87539e-08
1.17062e-07
-6.1606e-10
-1.16324e-07
-1.21417e-10
9.26018e-10
1.05805e-07
-1.07032e-07
3.01242e-10
2.9987e-08
1.23843e-07
-3.78826e-08
-8.03474e-08
-8.48508e-08
1.0633e-08
7.98324e-09
1.13055e-07
-1.17058e-07
-3.98023e-09
-1.29045e-07
1.39274e-07
-2.24541e-09
-1.3759e-07
-3.77979e-09
-1.53773e-07
1.55766e-07
-5.74755e-08
-8.80284e-08
1.51632e-07
-6.1278e-09
1.11053e-07
-1.49166e-08
7.09299e-10
-8.16116e-11
4.83556e-08
1.21661e-08
-8.92683e-10
-3.1633e-10
7.74924e-08
8.47842e-08
-5.95282e-09
-3.47867e-08
1.02993e-07
8.11435e-08
-2.91272e-07
-1.64111e-07
2.9722e-07
1.56634e-07
1.40144e-07
-5.87176e-08
-8.99884e-08
6.18154e-09
-6.97617e-10
-1.27971e-07
-3.71596e-10
5.59364e-08
6.45637e-08
-1.19435e-07
-1.06527e-09
-1.17834e-07
1.1767e-07
1.3746e-10
2.68864e-11
1.08177e-07
3.324e-08
-1.4171e-08
1.4837e-09
1.99256e-07
-4.56237e-09
-5.44825e-08
-8.28492e-08
-3.62326e-09
-8.46081e-08
-2.38468e-08
6.87461e-10
1.10473e-07
-1.10406e-07
8.00956e-08
-1.967e-07
1.09853e-07
-1.07145e-09
-6.04244e-10
7.15821e-08
6.66773e-08
-1.34366e-07
-3.89289e-09
-1.65361e-07
8.25793e-08
-2.33665e-08
-2.75535e-08
-3.79317e-08
1.30533e-07
-6.50473e-08
-3.02241e-08
7.26297e-08
3.15222e-08
-1.43639e-07
-9.12822e-08
9.63902e-08
1.38531e-07
7.82343e-08
-5.80044e-09
6.63885e-08
1.3179e-07
-5.42014e-08
-1.43978e-07
-3.78183e-09
1.19518e-07
1.52036e-08
-1.30939e-07
1.13914e-07
-9.67561e-08
-2.1205e-08
4.04691e-09
1.44957e-07
-1.9548e-07
1.80606e-07
1.4445e-07
-7.00824e-08
-6.74917e-08
-6.87547e-09
4.32803e-08
-1.72876e-07
-1.23668e-07
-1.23571e-07
1.81928e-11
-1.91629e-07
1.61457e-07
-1.67351e-07
1.97523e-07
8.27952e-08
-1.62752e-07
-2.64781e-08
1.21871e-07
-1.20817e-07
-4.65004e-10
-5.88707e-10
6.14247e-08
-1.224e-07
-5.27004e-09
-6.83144e-09
7.96448e-08
-1.76651e-07
8.0766e-08
-1.38588e-07
-2.98968e-11
2.27734e-10
1.38391e-07
-1.22471e-07
1.41632e-07
-1.54765e-07
-8.88741e-08
-2.76969e-08
-7.24005e-09
6.0581e-08
7.05584e-08
-5.98515e-09
-5.36467e-08
-6.10617e-08
-5.8477e-09
-3.76231e-09
-1.05881e-07
-1.02704e-07
-1.06617e-09
-5.7337e-09
7.07384e-08
-7.03855e-08
7.1112e-10
-1.064e-09
1.08986e-07
-1.06832e-07
-1.38631e-09
-7.67518e-10
-1.15362e-09
1.29597e-07
-1.28407e-07
-3.65718e-11
-1.34529e-07
1.44795e-08
1.14355e-07
5.69479e-09
1.29427e-07
-1.22939e-07
-4.50634e-09
-1.98242e-09
-1.09408e-07
-1.18964e-09
1.11261e-07
-6.64289e-10
-1.05686e-07
-6.45326e-08
9.86277e-08
3.46192e-08
-9.66077e-09
-1.23586e-07
7.69805e-08
-8.17875e-08
3.9508e-09
8.56171e-10
4.59968e-08
3.79083e-08
-1.29921e-07
1.11251e-07
-1.08239e-07
-7.42827e-09
4.41673e-09
-5.17198e-08
5.21511e-08
1.55095e-07
5.60331e-09
1.30856e-07
-9.77698e-08
1.22715e-08
-2.80139e-08
-1.19633e-08
-1.03662e-07
-3.09155e-08
1.99967e-07
6.07172e-09
-1.74723e-07
1.32459e-07
-3.4079e-08
-1.9766e-08
2.13558e-08
-8.15052e-08
6.09714e-09
-1.27409e-07
1.27216e-07
5.92351e-08
-7.14488e-08
-3.06337e-08
7.84655e-08
2.1524e-09
6.2127e-08
5.64973e-08
-7.66247e-08
-8.43871e-08
1.16442e-07
-1.28994e-08
-7.15443e-08
5.93488e-09
9.58331e-08
1.15163e-08
2.28354e-08
2.51911e-08
-1.07364e-08
5.22659e-08
6.0585e-08
6.93509e-09
-5.00933e-08
1.63941e-07
-1.70024e-07
-1.77932e-07
8.82939e-08
2.24867e-07
-1.51415e-07
1.0797e-07
-3.29168e-08
6.19958e-08
-1.37049e-07
-1.25285e-07
-4.32174e-08
-1.46891e-07
-5.70215e-09
-1.03312e-07
8.13992e-08
-8.96938e-08
1.11607e-07
8.66842e-09
-1.21756e-07
-1.43515e-07
-7.6552e-09
-3.925e-09
-1.29538e-07
1.17307e-07
1.26146e-07
1.9894e-08
1.04364e-07
2.11495e-09
-1.34933e-07
1.24704e-07
-8.70046e-08
9.72341e-08
-1.03013e-07
1.35122e-08
-2.08029e-08
-3.51645e-08
1.66117e-08
7.63862e-08
-4.70373e-08
-1.1363e-07
-4.43049e-08
1.24422e-08
-7.19452e-08
-8.64052e-08
7.73668e-09
-7.1117e-08
8.16783e-08
8.15581e-08
2.38907e-08
4.31371e-08
-1.48586e-07
4.58994e-08
3.80397e-08
-7.70742e-08
-2.2003e-10
-8.11992e-08
-9.14201e-08
7.2585e-09
6.33487e-08
-7.37719e-08
-4.86555e-08
5.90787e-08
-4.96898e-08
-9.10574e-09
1.49361e-07
-1.885e-07
3.97332e-08
-5.94527e-10
-8.42157e-09
2.77673e-08
8.05572e-08
-9.99029e-08
5.45523e-10
-9.54566e-08
-9.30675e-10
9.58418e-08
-1.02282e-07
1.01765e-07
2.60196e-10
2.57144e-10
1.32273e-07
-7.25238e-08
-1.34003e-07
-6.18883e-08
-3.87342e-08
1.02313e-07
-1.69035e-09
1.56055e-07
1.18335e-08
-1.18288e-07
6.04234e-09
-1.41958e-07
1.67558e-08
-5.46303e-10
-1.30707e-07
-1.15629e-07
1.15925e-07
-3.25666e-10
1.16986e-07
4.14109e-08
-1.44357e-07
-1.23179e-08
-1.47457e-08
2.25705e-07
-8.34805e-10
-7.11054e-08
-8.94538e-10
9.8907e-08
-9.80138e-08
1.31058e-10
-1.52231e-09
1.10222e-08
2.67561e-08
1.24104e-07
-2.69403e-08
1.18315e-07
-9.02873e-09
-3.29939e-09
1.2948e-07
-1.24761e-07
-1.41959e-09
-1.04696e-07
1.10292e-07
-5.59582e-09
1.23527e-07
5.59112e-09
-3.21773e-08
-9.69413e-08
1.20395e-07
1.75288e-09
-1.2009e-07
-2.0572e-09
-7.17583e-08
-5.46058e-08
7.18817e-08
9.05356e-08
1.51342e-09
1.58858e-07
1.96438e-08
-3.64745e-08
-1.47851e-08
3.70355e-09
-7.8998e-08
1.23937e-07