/*--------------------------------*- C++ -*----------------------------------*\
| =========                 |                                                 |
| \\      /  F ield         | OpenFOAM: The Open Source CFD Toolbox           |
|  \\    /   O peration     | Version:  2212                                  |
|   \\  /    A nd           | Website:  www.openfoam.com                      |
|    \\/     M anipulation  |                                                 |
\*---------------------------------------------------------------------------*/
FoamFile
{
    version     2.0;
    format      ascii;
    arch        "LSB;label=32;scalar=64";
    class       volVectorField;
    location    "0.044";
    object      U;
}
// * * * * * * * * * * * * * * * * * * * * * * * * * * * * * * * * * * * * * //

dimensions      [0 1 -1 0 0 0 0];

internalField   nonuniform List<vector> 
31639
(
(0.122532 0.000614243 -0.00058181)
(0.119431 -0.000429318 -1.16224e-05)
(0.121357 -0.00027313 0.000863017)
(0.12472 3.16512e-05 -0.000243599)
(0.121193 -0.000764639 -0.000316296)
(0.12013 -9.44021e-05 -3.87153e-05)
(0.119364 -6.03438e-06 -0.000269411)
(0.122079 -8.66831e-05 -2.82868e-05)
(0.121895 0.000205167 -0.000245681)
(0.122882 -0.000443472 -0.000498186)
(0.123586 0.000460812 -7.14283e-05)
(0.122661 -0.000575253 -0.000791279)
(0.120145 -0.000443405 1.30257e-05)
(0.122768 -6.99455e-06 0.000169776)
(0.118625 -0.000361084 7.5765e-05)
(0.119745 -0.000423916 0.000779319)
(0.121433 0.000378846 0.000167025)
(0.118841 4.96823e-05 0.000410648)
(0.119981 2.23752e-05 -0.000394788)
(0.120894 -9.74251e-05 -0.000164729)
(0.114509 -0.000240811 -0.000419591)
(0.12362 -0.000332103 -0.000604385)
(0.123238 0.000703668 -0.000208485)
(0.119822 0.000168412 -0.000281438)
(0.118371 -0.000169175 -0.000129315)
(0.12159 -0.000228013 8.52776e-05)
(0.120722 4.86845e-06 -0.000154546)
(0.12278 0.00109004 -7.64995e-05)
(0.119253 0.000415088 0.000655898)
(0.123124 -9.87364e-05 0.000578756)
(0.123518 -0.000161971 -8.84929e-05)
(0.118812 -5.21559e-05 -0.00018816)
(0.123388 0.000340743 -0.000493811)
(0.119727 -0.000179524 -7.04947e-05)
(0.116148 0.000108082 0.000238162)
(0.123576 0.000436889 0.000114375)
(0.113376 -0.000359182 -9.4446e-05)
(0.124369 -0.000538761 0.00030857)
(0.123178 -0.000390019 0.000268535)
(0.113309 4.20228e-05 -0.000121114)
(0.117102 -6.4259e-05 -0.000337476)
(0.115693 -0.000473037 7.21744e-05)
(0.122434 9.87702e-05 -4.04877e-05)
(0.124044 -0.00077231 -0.000882166)
(0.122749 -0.00066767 0.000739225)
(0.124009 -0.000847044 -0.00040711)
(0.117517 0.000297614 -0.000295966)
(0.120872 0.000482304 -0.000359833)
(0.120965 -8.22711e-05 0.000206539)
(0.124259 -0.000434443 -0.000252042)
(0.12366 -0.000225782 -0.00052169)
(0.114971 0.000128531 -0.000253069)
(0.123113 0.000610579 0.000239387)
(0.114141 -0.000284197 0.000412487)
(0.121283 -0.000407958 -0.000177542)
(0.120938 0.000167406 8.73582e-05)
(0.115438 -8.39834e-05 -0.000653068)
(0.120765 6.84007e-05 0.000318521)
(0.120247 0.000123299 0.000378329)
(0.116097 0.000256377 -0.000195056)
(0.122365 -0.000204147 -0.000488366)
(0.122912 0.000352464 -0.000177841)
(0.118825 -0.000247911 -0.000334091)
(0.120294 -4.59334e-05 -0.000205674)
(0.121816 0.000414516 0.000237397)
(0.124277 -0.000281661 -0.000516702)
(0.121811 8.36286e-05 -0.0010022)
(0.120531 -0.000312027 0.000122901)
(0.117193 1.01555e-05 -0.000407937)
(0.124263 0.000311728 -0.000195603)
(0.122256 0.000136408 -1.0208e-05)
(0.11728 0.000298198 -0.00122203)
(0.122578 -0.000411788 -0.000830429)
(0.120972 -0.000209233 -0.000201393)
(0.122107 0.000612449 5.23598e-05)
(0.114416 0.00033052 -0.00061799)
(0.123604 -0.000652167 0.00026947)
(0.120253 0.000220181 -0.000643399)
(0.119534 -0.000225506 0.00038018)
(0.122443 0.000261794 -2.05489e-05)
(0.118836 -1.40116e-05 9.67837e-05)
(0.111872 -0.00027055 3.18558e-05)
(0.123705 -0.000379894 0.000152528)
(0.121162 -0.000234499 -0.000272707)
(0.121297 -8.78675e-05 -0.000124937)
(0.123558 -0.000435575 -0.000290124)
(0.124344 -4.2149e-05 0.000133387)
(0.123797 -0.000200207 -0.000470876)
(0.11535 0.000887288 -0.00146241)
(0.122907 -0.000272084 -0.00048949)
(0.121357 -0.000370652 0.00025281)
(0.120029 -0.000488279 -0.000129249)
(0.116343 -0.000513379 -0.00043893)
(0.11858 0.000582612 -0.000814185)
(0.118913 -0.000817094 -0.000404284)
(0.119494 0.000924353 0.000408837)
(0.121303 0.000194399 -0.000488213)
(0.120853 -0.000195347 0.000131624)
(0.120234 0.000175711 0.000300792)
(0.115429 -0.00107905 -0.000109162)
(0.122074 0.000234873 -4.66749e-05)
(0.121813 0.000302663 0.000829803)
(0.118916 -0.000303847 -0.000159224)
(0.114727 7.60758e-05 -0.000176441)
(0.115955 -6.24013e-05 -0.00036749)
(0.124057 -0.000622257 -0.00029616)
(0.114184 0.0003561 -0.000451895)
(0.115278 -0.000909576 -0.000875848)
(0.11773 0.000405093 -3.3765e-05)
(0.113635 -0.000331052 0.000655703)
(0.12199 -0.00128188 0.000328637)
(0.116432 -9.10075e-05 -0.000267356)
(0.120193 7.20152e-05 -0.000195845)
(0.119946 -0.000690866 -0.000662152)
(0.120498 0.00015238 -0.000855281)
(0.114388 -0.000536597 0.000271413)
(0.119959 0.000623558 7.1262e-05)
(0.119431 -0.000745801 -0.000169635)
(0.121917 0.000104617 9.39624e-05)
(0.120062 -0.000355466 6.34562e-05)
(0.121782 -0.000394095 -0.000152904)
(0.122511 -0.000481414 0.000333073)
(0.12327 -4.00757e-07 -0.000611059)
(0.122335 0.000338899 -0.000722299)
(0.122161 -0.000228285 -0.000841531)
(0.123005 -0.00039723 0.000133313)
(0.119978 -2.70301e-05 0.000372458)
(0.118845 0.000163626 -0.000275825)
(0.118576 -0.000615696 -0.000342183)
(0.122852 -0.000248859 0.000174447)
(0.122407 0.000162584 -0.00022134)
(0.123106 0.000141703 -0.000511136)
(0.122246 -0.00058354 -1.45202e-05)
(0.121094 -0.000183684 9.23583e-05)
(0.123361 -0.000144464 -0.000128195)
(0.120879 -0.000106556 2.76573e-05)
(0.11623 -0.000156694 -0.000307526)
(0.115268 -0.000717622 -0.000448867)
(0.12337 0.000383369 0.000589804)
(0.120391 -0.000463708 -0.000485351)
(0.120066 -0.000218297 -0.000411338)
(0.123972 0.000275463 0.00109144)
(0.123006 0.000450724 0.000299203)
(0.114716 -0.000356434 -0.000485148)
(0.11509 -0.000109376 -0.000680267)
(0.122763 -0.000235245 1.6224e-05)
(0.122494 -0.00010852 -0.000245787)
(0.115785 -0.000265289 -0.000448052)
(0.116345 -0.00010389 0.000168918)
(0.12319 -0.000455807 0.000104539)
(0.118407 -0.000130909 -0.00119678)
(0.119928 -4.45687e-05 0.000213472)
(0.12065 -0.000427336 -0.00086421)
(0.122988 -0.000148488 7.25494e-05)
(0.116679 0.000624836 -0.00124834)
(0.124715 -3.98568e-07 1.53802e-05)
(0.122202 -0.000325767 -0.000254655)
(0.117122 -0.00124926 -0.000193961)
(0.115598 -0.000748295 0.000979837)
(0.119622 -0.000391903 -0.000168637)
(0.123987 -0.000169766 -0.000463117)
(0.114495 0.000236917 0.000110098)
(0.116321 0.000171982 -0.00110723)
(0.115433 -0.000425487 0.000154282)
(0.114619 -0.00116817 6.64565e-05)
(0.118847 0.000306911 -0.000299606)
(0.115549 0.000362175 0.000151495)
(0.1236 -0.000687866 0.000219477)
(0.12354 -0.000471728 0.000248418)
(0.115601 0.000236727 -0.000794001)
(0.116344 -0.000789403 0.000390642)
(0.119666 0.000692569 -0.000591497)
(0.116005 -7.12555e-05 -3.86259e-05)
(0.120936 -8.97554e-05 0.000500987)
(0.124181 -0.000273471 -0.000241059)
(0.122273 -0.000647265 -0.000466173)
(0.120583 0.000627414 0.000248079)
(0.122843 0.000310136 0.000405412)
(0.121167 -0.000496564 -7.70037e-05)
(0.119414 -0.000423048 -0.000133928)
(0.119688 0.000145246 -6.81638e-05)
(0.119825 -0.000588109 0.000739582)
(0.118844 5.28323e-06 0.000214408)
(0.113613 0.00105615 -0.000611652)
(0.12154 -0.000141054 0.000101711)
(0.123779 0.000180164 -0.000249139)
(0.1193 0.000139664 0.000654735)
(0.123275 0.000221287 -0.000104391)
(0.116312 -0.000247595 8.4228e-05)
(0.114119 -0.000166424 0.000401349)
(0.124242 -0.000258089 -6.36848e-05)
(0.122979 -0.000242147 -0.000310796)
(0.120873 -0.000331439 0.000520912)
(0.119961 -0.000113552 0.000273701)
(0.120446 -0.000171696 -0.000418997)
(0.120909 -0.000187427 -0.000711033)
(0.120611 0.000608993 0.000431639)
(0.122676 0.000411623 -0.000486402)
(0.116084 -0.000166654 -0.000320655)
(0.119551 0.000126522 -0.000214875)
(0.123921 4.93475e-06 0.000227366)
(0.122695 -0.000289462 8.4619e-05)
(0.121863 -0.000286729 0.000185645)
(0.120394 -0.00154254 -0.000683203)
(0.121018 -0.00060482 -0.000465492)
(0.119139 4.52484e-05 -0.000383654)
(0.12032 -0.000243812 -0.000470625)
(0.11884 0.000589475 -0.000614735)
(0.12294 7.44451e-05 -0.0005632)
(0.114519 -0.000166247 -8.76884e-06)
(0.120418 -7.87256e-05 -0.000145733)
(0.120042 0.000447348 9.21932e-07)
(0.12131 7.55673e-05 -0.000438329)
(0.123342 -0.000113647 -0.000515821)
(0.122735 -0.000549482 -0.000405668)
(0.123608 -0.000161608 -0.000299311)
(0.116145 -0.00109575 -0.000381062)
(0.11863 -0.000635409 0.000487345)
(0.122787 -0.000382202 -0.000259095)
(0.123568 -0.000190066 0.000283935)
(0.12244 4.31793e-05 0.000310817)
(0.120785 -0.000426572 -0.000528367)
(0.1129 -0.000297272 0.000628833)
(0.120234 -0.000549084 0.000508042)
(0.115582 -0.000652518 -0.000310484)
(0.11871 0.000402434 8.93692e-05)
(0.122866 -0.000475539 0.000531786)
(0.118803 0.000113001 0.000468118)
(0.114867 0.000424068 -0.000270183)
(0.121042 0.000174219 0.000225536)
(0.122288 0.000496229 -0.000246218)
(0.12391 -0.000452961 -4.92437e-05)
(0.115282 -0.000329209 -1.20759e-05)
(0.114466 -0.000769951 0.000265425)
(0.121534 -0.000337234 0.000369588)
(0.123198 -5.31617e-06 -0.000636944)
(0.115706 1.13749e-05 0.000478737)
(0.123202 -0.000715159 0.00028827)
(0.118324 1.03456e-05 -0.000487344)
(0.116284 -0.000472651 0.000178617)
(0.11975 0.000244721 -0.000395468)
(0.121929 -0.000334599 6.07039e-05)
(0.118899 -0.00104291 -0.000100572)
(0.118007 0.000217861 0.000946316)
(0.119161 0.000356201 0.000392974)
(0.1209 -0.000165273 -0.000145711)
(0.119198 0.000493818 -0.000521958)
(0.118177 0.000581029 -0.00105413)
(0.114596 -0.000475135 0.000539078)
(0.119322 0.000299183 -0.000644064)
(0.119755 0.000122812 -0.000712909)
(0.117328 -0.000110481 -2.25611e-05)
(0.119001 -0.00113518 0.000362483)
(0.123282 0.000157114 -0.000176277)
(0.12353 0.000603035 0.000163376)
(0.120948 0.000465248 -8.56183e-05)
(0.116196 0.000175438 -2.02054e-05)
(0.123017 0.000283915 -0.000180624)
(0.122554 0.000353685 -0.000525042)
(0.120764 -0.000434783 -0.000315453)
(0.124362 0.000125182 0.00083331)
(0.123887 0.000109515 -0.000405699)
(0.122048 0.000216455 -0.000436973)
(0.1237 -6.59169e-05 7.60545e-05)
(0.118912 0.000445077 0.000194151)
(0.120679 -0.000299149 -0.000666895)
(0.114706 0.000303147 -0.00161094)
(0.11888 -3.18409e-05 -0.000149722)
(0.122901 -0.00101149 0.000312814)
(0.118804 3.71032e-05 0.000375491)
(0.123005 0.000360064 -0.00015002)
(0.120143 0.000484919 -0.000706278)
(0.121315 -0.000214243 9.51749e-05)
(0.122142 0.000246731 0.000394957)
(0.124013 -6.47477e-05 -0.000711454)
(0.120998 0.000654137 0.000156899)
(0.115529 0.000283122 -1.987e-06)
(0.119904 0.000199126 0.000214317)
(0.116954 0.00162481 -0.000362793)
(0.123473 -0.000323189 -0.000970297)
(0.120062 -0.000609119 -0.000382952)
(0.123035 9.98032e-05 -0.000456629)
(0.12126 0.000201581 -0.000134851)
(0.119108 -0.000155005 -0.000469786)
(0.114609 -6.89882e-05 -2.97378e-06)
(0.116807 8.07763e-05 -0.000576765)
(0.116004 0.000324929 0.000287511)
(0.114434 -0.000347893 0.000116161)
(0.123795 -0.000362419 -0.000438257)
(0.115022 -0.000483394 -0.000606127)
(0.121607 -0.000432567 0.000253935)
(0.120865 0.000548933 -0.000297173)
(0.120013 5.40785e-05 -0.000233236)
(0.116401 -0.000220433 -0.000276497)
(0.123532 -0.000814714 -1.14186e-05)
(0.120239 0.000101256 -0.00076107)
(0.118102 0.000124273 0.000671008)
(0.123274 0.000147495 -0.000456238)
(0.121767 -0.000134111 -8.00069e-05)
(0.11688 0.000500428 0.000483029)
(0.118972 0.000150643 -6.27511e-05)
(0.115967 0.000197749 -5.45309e-05)
(0.120708 0.000293189 -0.000364772)
(0.119382 0.000341854 -0.000183109)
(0.11627 0.000425354 0.000907916)
(0.120637 -6.7971e-05 -0.000219258)
(0.11914 0.00110727 0.000544571)
(0.113628 9.79249e-05 -0.00123422)
(0.11358 0.000340353 0.000253475)
(0.122235 -0.000494912 0.000202832)
(0.123437 0.000139666 -6.86979e-05)
(0.124066 0.000265155 -0.000144698)
(0.115041 0.000324343 0.000220262)
(0.116636 -6.00375e-05 0.000522547)
(0.122626 0.000225046 0.000365662)
(0.117886 -0.000236975 -0.000266529)
(0.117876 0.000633741 -0.000847992)
(0.122588 0.000339491 0.000277504)
(0.123248 -0.000567837 -8.49854e-05)
(0.119824 -0.000779067 0.000141551)
(0.123113 -0.00100314 -0.000285733)
(0.124144 9.0657e-05 -0.00023862)
(0.115795 -0.000185591 -0.00025516)
(0.124009 -0.00114926 -0.000277232)
(0.113557 0.000243441 -0.00021042)
(0.114756 -5.00647e-05 -4.7848e-05)
(0.123588 -0.000449737 -0.000270787)
(0.12282 -0.000516497 -0.000145097)
(0.123811 8.34053e-05 -0.000738352)
(0.124102 0.000427076 -0.00105143)
(0.122906 -0.00018594 -0.000813493)
(0.11694 0.00123619 -0.000599236)
(0.118555 -0.00102097 0.000748158)
(0.119544 -9.47054e-05 -0.000283721)
(0.121996 -0.000971315 0.000127939)
(0.123659 0.000956358 0.000881048)
(0.124119 -0.000811258 0.000321156)
(0.120082 0.000182903 -0.000269207)
(0.117965 -0.00104185 0.000477162)
(0.119968 -4.17399e-05 -9.27371e-05)
(0.123023 -8.98556e-05 -0.000164895)
(0.122627 -9.00006e-05 -0.0010019)
(0.118943 0.000104988 -0.000240802)
(0.121555 -0.00023138 -4.80152e-05)
(0.119573 0.000626623 -0.000629077)
(0.119746 -0.000402565 -0.000388454)
(0.122044 -0.000391058 0.000319681)
(0.118282 -0.00107261 0.000953842)
(0.115865 -0.000168482 -1.72431e-05)
(0.120851 0.000829678 -0.00056551)
(0.122024 8.90857e-05 0.000387843)
(0.119354 0.000223976 -0.00018236)
(0.122151 0.000387706 0.000346622)
(0.12303 -0.000534203 0.000285429)
(0.120608 0.000138688 -0.000413315)
(0.1167 0.000197394 -0.000518146)
(0.119856 0.000452145 -0.000424756)
(0.119003 0.00045298 0.000473208)
(0.114786 0.000243301 -0.000482529)
(0.122749 -0.000880958 0.000247645)
(0.114636 0.000555558 0.000464833)
(0.12209 -0.000105645 -0.00049055)
(0.123787 -0.000825012 -0.000267519)
(0.115557 -0.000339486 0.000192578)
(0.120556 0.000334788 3.49929e-05)
(0.119191 0.000409351 0.000419527)
(0.115269 -0.000266797 4.14437e-05)
(0.121719 -0.000169465 -0.00019889)
(0.116711 3.97892e-05 -0.000123695)
(0.120182 -2.98291e-05 0.000683944)
(0.123363 0.00039664 8.4256e-05)
(0.121891 0.000150473 0.000168303)
(0.114481 0.000335841 -1.50422e-05)
(0.122198 0.000293583 2.921e-05)
(0.116568 0.000130994 -0.000390506)
(0.12216 -8.43454e-05 -1.08203e-05)
(0.122243 0.000283618 0.000140899)
(0.122691 -0.000204836 -0.000560909)
(0.123372 -0.000202396 -0.000511371)
(0.115487 -5.36698e-05 -0.000650758)
(0.122187 -0.000891334 0.000124278)
(0.114796 4.91644e-05 -0.000549073)
(0.119337 3.67649e-05 -0.000465005)
(0.115674 8.52435e-05 -0.000402585)
(0.124404 -8.66743e-06 -0.000524499)
(0.123237 9.49068e-05 -0.000518694)
(0.124085 -1.12138e-05 1.39109e-05)
(0.123585 -0.000366087 -0.000546412)
(0.121215 -4.94467e-05 -0.000606992)
(0.122603 -8.74827e-05 0.000227006)
(0.119608 0.00027601 -7.15266e-05)
(0.121165 0.000227333 -0.000291728)
(0.120271 0.000110147 -0.000383225)
(0.116576 0.000108764 9.93942e-05)
(0.122524 -1.24622e-05 -0.000431777)
(0.120749 -0.000363529 -0.000100486)
(0.120906 -0.000214659 -0.000286108)
(0.122967 0.000121686 0.000130372)
(0.122629 -4.33349e-05 -0.000522311)
(0.123015 4.36083e-05 0.000217383)
(0.120011 -0.000706395 0.000155288)
(0.114883 -0.000146621 0.000718081)
(0.119763 0.000242297 0.000183048)
(0.122181 0.00013864 0.000389929)
(0.121429 -0.000264875 9.64372e-05)
(0.115601 -0.000606875 -0.000466854)
(0.12332 9.35345e-05 -0.00034809)
(0.123076 -0.000168398 -0.000830133)
(0.118517 0.000293701 -0.000446268)
(0.121981 -0.000326817 -0.000524511)
(0.12246 -0.000310844 -0.00113439)
(0.122241 -0.000364736 -0.000641715)
(0.12237 -0.000370269 -0.000105764)
(0.115165 -0.000151918 -9.64624e-05)
(0.121655 -0.000420878 8.3517e-05)
(0.122166 -0.000503634 0.000270179)
(0.113469 0.000141808 -8.35355e-06)
(0.121339 -0.000852594 -6.32079e-07)
(0.12164 -0.000308418 -0.000188565)
(0.118044 0.000133422 0.000279207)
(0.114445 -0.000101382 0.000147185)
(0.114292 -0.000315493 0.000656456)
(0.119565 -0.000918891 0.000203839)
(0.113937 0.000521255 -0.000464531)
(0.119919 2.60594e-05 0.00019235)
(0.120897 -8.12026e-05 -3.79578e-05)
(0.118441 0.000573074 0.00028297)
(0.122241 0.000510884 0.000105916)
(0.115288 -0.000210016 0.000173441)
(0.12177 0.000378606 6.8338e-05)
(0.124281 0.000244824 1.59765e-05)
(0.119822 -0.000152813 0.000100958)
(0.122039 -0.000121707 0.000601929)
(0.119765 7.46304e-05 2.77719e-05)
(0.123471 0.000900066 -7.37278e-05)
(0.121174 0.000424632 2.64136e-05)
(0.12139 -0.000208322 -0.000619255)
(0.124389 6.53353e-05 -0.000450788)
(0.120453 7.61462e-05 -0.000405675)
(0.115471 0.000113247 0.000193891)
(0.11999 3.59798e-06 -0.000183446)
(0.123935 0.000262012 -0.00110805)
(0.123031 0.000289366 -0.000701197)
(0.122359 -0.000153486 0.000638405)
(0.123326 8.2536e-05 1.67749e-05)
(0.120173 -0.000694232 0.000562576)
(0.122594 -0.000230338 0.000196706)
(0.121457 0.000131312 0.000265463)
(0.122648 0.00019678 -0.000198834)
(0.123085 -0.000458635 -0.000446557)
(0.114272 -0.00048764 -0.000291747)
(0.119627 -0.000343924 0.00022692)
(0.113097 -0.000211375 0.000202579)
(0.119763 0.000471735 0.000717916)
(0.118772 -0.000105226 -0.000660787)
(0.115404 -0.000360171 0.000682214)
(0.114442 -0.000498751 -0.000359168)
(0.120625 0.000355732 -0.000257336)
(0.121652 -0.000399708 -0.00018926)
(0.12317 3.89979e-06 -0.000624417)
(0.115792 -0.000159568 0.00059376)
(0.12209 -0.000152697 6.25709e-05)
(0.120147 -6.42153e-05 0.000229777)
(0.120144 -0.000185052 -0.000471625)
(0.121594 2.48811e-05 -0.000603631)
(0.114384 6.0567e-06 0.00196409)
(0.120141 -7.29438e-05 -0.000516108)
(0.115067 0.000116686 0.000351559)
(0.11854 -0.000433555 -0.000410147)
(0.122443 -0.000195497 3.72282e-06)
(0.124654 0.00131531 0.000381158)
(0.122814 0.000222036 -0.00101276)
(0.121219 0.000569268 -0.000690264)
(0.113907 0.000202367 0.00121755)
(0.122083 -0.000192872 0.000128458)
(0.121388 -8.10832e-05 -0.000461644)
(0.122666 -0.000211267 -0.000386021)
(0.114544 7.53722e-07 -6.9959e-06)
(0.116894 -0.000156605 0.000503244)
(0.119151 0.000457181 0.00056462)
(0.116744 0.000409784 -0.000261727)
(0.113744 -0.000589132 -0.00014692)
(0.122589 -5.76335e-05 -0.000368204)
(0.11641 -8.56594e-05 4.79154e-05)
(0.118941 0.000826873 0.000189361)
(0.115344 -0.00043859 -0.0009484)
(0.122162 0.000328334 6.92757e-05)
(0.115948 9.02215e-05 -0.000285748)
(0.123513 -0.000146754 0.000574106)
(0.122251 0.000159689 -0.000431538)
(0.123639 -8.70353e-05 0.000516188)
(0.123772 -0.000112886 -0.000443549)
(0.116175 2.69707e-05 0.00021377)
(0.122851 0.000104896 0.000230797)
(0.123949 -0.00019978 -0.000113138)
(0.121172 -0.0004239 0.000358335)
(0.122135 0.000556351 -0.000187062)
(0.121336 -0.000458555 -0.000254726)
(0.123383 0.000412689 -0.000112759)
(0.122599 4.92538e-05 0.00044261)
(0.118482 6.58408e-05 -0.000428599)
(0.124704 -0.000179734 -8.5803e-05)
(0.124129 -0.00029648 -0.000191723)
(0.12067 -0.000225169 -0.000210558)
(0.119815 -0.000306339 -0.000800119)
(0.123378 -0.00039693 -0.000243199)
(0.120944 0.000310911 1.66963e-05)
(0.113733 0.00065656 -0.000241316)
(0.113875 0.000415083 -6.25357e-05)
(0.120181 2.16263e-05 0.000116149)
(0.122787 7.2543e-06 0.000160898)
(0.124092 -0.00019967 -0.000220571)
(0.118349 -0.000239834 -9.16379e-05)
(0.123059 0.000480923 0.000245055)
(0.121959 -6.1387e-05 0.000214645)
(0.123362 0.000990475 0.000832341)
(0.120613 -1.37349e-05 -9.96454e-05)
(0.120533 0.000500673 -0.000417886)
(0.121519 -0.00159431 0.000660262)
(0.115156 -2.61493e-06 -0.000244158)
(0.11975 0.000157341 5.73549e-05)
(0.121587 2.753e-05 -0.000266346)
(0.123493 2.15686e-05 -1.80016e-05)
(0.116549 -0.000233724 7.68253e-05)
(0.117292 0.000635402 -0.00068355)
(0.118249 -9.82136e-05 -0.000332078)
(0.11793 -0.000368738 -8.86259e-05)
(0.120081 -0.000168709 -0.000539623)
(0.114847 -0.000100687 -0.000402241)
(0.122827 0.000225096 -0.000866103)
(0.119158 6.33229e-05 -0.000272152)
(0.122062 0.000103352 0.00101769)
(0.119827 -0.000260122 -8.85633e-05)
(0.12404 -0.000239718 -0.00027221)
(0.120813 -0.000214609 -0.00087145)
(0.115021 0.000186239 0.00056915)
(0.121346 0.000824888 7.40382e-05)
(0.124221 -0.000233014 -0.000970581)
(0.11584 0.00036669 0.0011158)
(0.123076 -0.000130743 -0.000743963)
(0.124869 -0.000989533 -0.00059543)
(0.120802 -0.000256598 -3.38676e-05)
(0.119325 0.000243216 0.000127582)
(0.123269 3.01437e-05 -0.000953715)
(0.118325 -1.63854e-05 -4.08264e-05)
(0.120398 -0.000436963 4.17137e-05)
(0.120149 0.000172432 0.000267975)
(0.115892 -6.39551e-05 2.39275e-05)
(0.116311 -0.000144189 -0.00117991)
(0.119396 0.00021249 0.000440918)
(0.118461 0.000606363 0.000150063)
(0.122654 -0.000123175 -0.000307157)
(0.11814 -0.000405669 0.000305783)
(0.119617 0.000443812 0.000435591)
(0.123721 0.000185507 0.00034902)
(0.119374 0.000212005 -1.00273e-05)
(0.114287 0.000211709 0.000326584)
(0.118416 0.000300532 0.000162523)
(0.120469 0.000429531 -0.000275857)
(0.124058 -0.000190647 0.000252686)
(0.114892 0.000715497 0.000412784)
(0.11473 -0.000113225 0.000281734)
(0.123907 0.000311362 0.00090199)
(0.115039 0.000257473 2.34421e-05)
(0.121379 -5.21467e-05 -0.000107714)
(0.122764 0.000198394 -0.000251016)
(0.116454 -0.000159523 -0.000830255)
(0.120534 0.000141763 -0.000309526)
(0.123507 0.000488242 -0.000634241)
(0.120347 -1.05184e-05 0.000627615)
(0.113365 4.79029e-05 0.000194447)
(0.123124 0.000234162 -0.000118199)
(0.1204 -6.15994e-05 -0.00031053)
(0.113978 0.000525014 2.20891e-05)
(0.123487 0.000242337 -0.000197238)
(0.118848 -0.000137143 -0.000246578)
(0.11936 0.000514531 -0.000391408)
(0.12205 -9.35965e-05 -7.67664e-05)
(0.114262 0.000815396 -0.000452368)
(0.119272 -7.20719e-05 -0.00102476)
(0.118714 -0.000602564 2.21824e-05)
(0.120458 1.28968e-05 -0.000486352)
(0.116385 -0.000109032 0.000431975)
(0.118077 -5.57345e-05 -9.65048e-05)
(0.122319 0.000483564 0.000431312)
(0.124465 -0.000827944 -0.000632799)
(0.125314 -0.000323016 3.47659e-05)
(0.123985 0.000469514 -0.00032944)
(0.123431 -0.00057912 -0.000208485)
(0.122375 0.000109693 -0.0012883)
(0.117758 -0.000239993 0.000403551)
(0.124638 0.000175143 -0.00102522)
(0.122522 -7.90305e-05 -4.33902e-05)
(0.121737 0.000578392 0.000149738)
(0.116622 0.000846306 -0.000339892)
(0.120911 -0.000160626 -0.000219804)
(0.121772 0.000430631 0.000584361)
(0.125125 0.000905449 3.80276e-05)
(0.114914 -6.3216e-05 0.000293421)
(0.113775 -0.000497159 0.000386486)
(0.123412 0.000148415 -0.000620539)
(0.118444 -4.51873e-05 -0.000344516)
(0.123426 7.51236e-05 -3.78823e-05)
(0.119044 8.84665e-05 -0.000455952)
(0.116425 -0.000268176 -0.000811335)
(0.121552 -5.19606e-05 -0.000875238)
(0.123281 0.00036571 -8.9244e-05)
(0.121004 0.000259535 0.000113057)
(0.122706 0.000939917 -0.000316052)
(0.115604 4.79496e-05 -0.00169202)
(0.122837 0.00104327 0.000348284)
(0.122491 -0.000249446 -0.000499686)
(0.114211 0.000357874 -4.49826e-05)
(0.122327 -0.00020665 -0.000531498)
(0.122135 -0.000234398 1.16526e-05)
(0.120841 0.00010294 0.00145616)
(0.115866 -0.000605181 -0.00089461)
(0.114681 0.000287785 -0.000777067)
(0.119847 0.000316517 -0.000305735)
(0.119961 -3.57747e-07 0.000937697)
(0.120574 -0.000179235 0.000184324)
(0.119875 0.000535026 0.000167626)
(0.119328 0.000482705 0.000711651)
(0.123045 0.000112485 4.11692e-05)
(0.120787 -0.000112012 0.000217671)
(0.121066 0.00037549 0.000257786)
(0.116623 -0.000280498 0.000676278)
(0.123965 -8.36986e-05 -0.000988964)
(0.115244 -0.000218477 1.24933e-05)
(0.120387 0.000708375 -8.86711e-06)
(0.119847 0.000343311 -8.42713e-05)
(0.120032 -0.000816895 -0.000678185)
(0.121656 0.000476802 4.95559e-05)
(0.118411 -0.000191696 -0.000443454)
(0.115725 -0.00081498 -0.000508377)
(0.114431 -0.000185488 -0.000531608)
(0.115856 -0.000315825 -0.000261765)
(0.119848 -0.000516303 -0.000374679)
(0.122238 0.00067361 0.000237212)
(0.115083 0.000453913 0.00178402)
(0.122744 -0.000178178 -7.18825e-05)
(0.120248 1.39753e-06 -0.000760615)
(0.123619 -0.00038195 -0.000404915)
(0.114958 5.87308e-06 -0.000750632)
(0.118372 0.000398116 0.000552214)
(0.122458 0.000220807 -0.000789474)
(0.123792 -0.000866776 -4.27184e-05)
(0.122355 0.000360624 -0.000400163)
(0.123389 -0.000229745 -0.000264034)
(0.12088 0.000126356 0.000178152)
(0.120048 0.000522094 0.000165692)
(0.124022 -2.18311e-05 0.000293006)
(0.123726 0.000399588 -1.69822e-05)
(0.123722 0.000275365 0.000103599)
(0.11691 0.000977639 -0.000445803)
(0.123703 -0.000802823 -0.000736607)
(0.114458 -0.000316305 0.000427794)
(0.123867 0.00069656 4.73807e-05)
(0.121121 0.000153184 -0.00019773)
(0.119864 0.000120722 -0.000548752)
(0.115756 0.000851128 -2.43527e-07)
(0.120094 0.00114844 -0.000751681)
(0.113166 -0.000809433 -0.000672269)
(0.12276 0.000223286 -0.000565382)
(0.120412 0.000131111 -0.000261276)
(0.123049 -0.000175994 -0.000248744)
(0.11934 0.000364976 -0.000279852)
(0.119138 0.00119275 -0.000332923)
(0.115079 -0.000308603 0.000709569)
(0.124337 0.000242273 -7.65718e-05)
(0.11641 -0.000556709 0.00025701)
(0.113588 -0.000288863 -0.000333745)
(0.116216 -0.000220817 4.90084e-05)
(0.116579 0.000329992 0.000145437)
(0.115885 0.000748885 -0.000109679)
(0.120252 -0.000324979 0.00010592)
(0.115246 0.000122822 -8.49848e-05)
(0.121858 -0.00114343 0.000458684)
(0.122446 1.29303e-05 -0.000468413)
(0.113519 -7.31953e-05 -4.57817e-05)
(0.122012 0.000332447 -0.000131326)
(0.115604 0.000346441 -0.000751272)
(0.119618 0.000691975 -0.0001559)
(0.120534 0.000337569 -0.000140368)
(0.120124 -0.000254394 -0.000975971)
(0.122531 0.000117116 -9.40272e-05)
(0.124473 0.0002559 -0.000865214)
(0.122626 -4.10153e-05 0.000349218)
(0.121778 4.90976e-05 -0.00011976)
(0.121449 -0.000194289 -0.00113443)
(0.12224 0.000373176 0.000190943)
(0.119353 0.000323233 1.26147e-05)
(0.119832 0.000395484 0.000169121)
(0.114139 0.000588276 -0.000853976)
(0.110898 0.000969017 0.00353355)
(0.123225 4.55305e-05 8.26898e-05)
(0.120263 6.82874e-05 -0.000221936)
(0.122464 -0.000294689 -0.000134914)
(0.122389 -5.94442e-05 0.00021552)
(0.114542 -0.000546491 -5.70788e-05)
(0.123177 -0.000131416 -0.000323644)
(0.123537 0.000574006 8.0108e-05)
(0.123227 5.58927e-05 0.000140151)
(0.12319 0.000271108 0.000472665)
(0.121631 0.000367336 0.000439095)
(0.121155 -0.000545548 -0.000219674)
(0.123188 -6.44732e-05 8.62772e-05)
(0.123994 -0.000159685 0.00052)
(0.121375 0.000346732 0.000341146)
(0.123567 0.000264112 -0.000227284)
(0.122956 -0.000369961 -0.000449216)
(0.117059 -0.000331573 -0.000477311)
(0.123165 -0.000144203 0.000264159)
(0.117568 -0.000139103 0.000534573)
(0.120553 9.47025e-05 -0.000111767)
(0.120588 -0.000861656 5.4336e-05)
(0.119981 -0.000500921 0.000202702)
(0.119487 0.000668494 8.10765e-05)
(0.12231 0.000393256 -8.95924e-05)
(0.1197 0.000258674 0.000232341)
(0.121084 0.000490899 -0.000535372)
(0.11956 0.00119738 -0.000627294)
(0.114504 0.00125484 -0.00086625)
(0.124386 0.000462692 -0.00034211)
(0.122265 0.000632592 -0.000169223)
(0.119259 9.27821e-06 0.000727337)
(0.115104 -0.00045261 -1.04528e-05)
(0.122572 -0.000364093 -7.56005e-05)
(0.114662 -0.000596213 -0.000573656)
(0.123418 -0.000332911 7.7795e-05)
(0.122781 -8.02385e-05 0.000334818)
(0.119013 0.00118882 -0.000531524)
(0.122375 -0.000363464 0.000175539)
(0.123869 0.000114545 -0.000458743)
(0.121237 -0.000472384 -0.000161234)
(0.11431 -0.000107084 0.00023455)
(0.119656 4.21054e-05 0.000145505)
(0.117373 0.000632972 -0.000461653)
(0.120214 0.000163071 -0.000211044)
(0.114655 -0.00049832 -0.000927171)
(0.122012 -0.000125329 -0.000353244)
(0.122529 -0.000486451 0.000605212)
(0.118021 0.000715818 -0.00074911)
(0.120089 0.000107895 5.00861e-05)
(0.117339 8.39817e-05 -0.000405021)
(0.122803 3.0025e-05 -0.00043275)
(0.119399 -0.00070596 0.000120038)
(0.120378 0.000438705 0.000505636)
(0.115171 -0.000194649 4.69008e-05)
(0.123067 -9.15811e-07 1.46146e-05)
(0.121305 -0.000364107 -0.000157784)
(0.123244 1.9475e-05 -0.000130471)
(0.117694 0.000530075 -0.000364739)
(0.120155 -5.92245e-05 -0.000326962)
(0.121141 0.000117936 -0.000318141)
(0.118984 -0.000149916 0.000241105)
(0.121075 -6.96348e-05 0.000300215)
(0.120557 -0.000253528 0.000576959)
(0.122774 -0.000418211 0.000112474)
(0.120241 -0.000201601 -0.000114398)
(0.115701 5.33083e-06 -0.000204351)
(0.113779 -0.000168694 -0.000671007)
(0.121748 -0.000690199 0.000127979)
(0.114619 0.00052831 -0.00114851)
(0.118349 -0.000699628 -0.00137099)
(0.120267 0.000267855 -0.000249425)
(0.120409 0.000305785 0.000112752)
(0.123861 0.000487078 -0.000327195)
(0.114489 8.87199e-06 -3.66996e-05)
(0.119801 -0.000117245 -0.000707556)
(0.12427 0.000102802 -0.000433944)
(0.115894 0.000825696 -0.00274766)
(0.116097 0.00136948 7.57781e-05)
(0.119469 9.8306e-05 -0.000800531)
(0.116023 3.36828e-05 1.05249e-05)
(0.121869 0.00076016 -0.000832058)
(0.116228 -0.000327969 8.67135e-05)
(0.123702 -0.000813109 -0.000343363)
(0.117866 0.000244187 0.000492659)
(0.119039 0.000503291 0.000500141)
(0.12468 0.00043256 0.000862073)
(0.113722 -0.000157478 0.000520511)
(0.118306 0.000106542 0.00038469)
(0.118307 2.12767e-05 0.000562744)
(0.123155 -5.43305e-05 -0.000757047)
(0.123308 5.04486e-05 0.000297148)
(0.123215 4.76828e-05 -0.000152252)
(0.115361 0.000721209 0.000325737)
(0.122044 0.000129461 -0.000340199)
(0.122908 0.000112302 0.000954343)
(0.118095 -0.000173422 -0.000199459)
(0.123102 0.000389661 -0.000109541)
(0.122494 0.000395903 0.000208063)
(0.122345 0.000381842 -6.26138e-06)
(0.123543 -6.59368e-06 -0.000626303)
(0.120313 6.40168e-05 -0.000159209)
(0.124551 -1.72506e-05 0.00039761)
(0.123917 0.000719556 0.000828616)
(0.123354 8.14747e-05 -0.000548683)
(0.121151 0.000505085 0.000301202)
(0.119429 -0.000263518 -0.00035004)
(0.120475 0.000410755 8.10695e-05)
(0.120145 0.000167389 -0.00033815)
(0.114135 -0.000896543 -0.000273801)
(0.119184 -0.0004046 8.29887e-05)
(0.121275 -0.000263689 0.000463698)
(0.12315 -0.000293031 -0.000294687)
(0.123719 -0.000282286 -0.000711406)
(0.119507 -0.000452252 1.87343e-05)
(0.124485 0.00117176 -0.000200848)
(0.122275 -6.22056e-05 -4.65715e-05)
(0.118396 -0.00069226 0.000545226)
(0.122631 -0.000122696 -0.000406896)
(0.123276 1.55843e-05 -0.000223054)