/*--------------------------------*- C++ -*----------------------------------*\
| =========                 |                                                 |
| \\      /  F ield         | OpenFOAM: The Open Source CFD Toolbox           |
|  \\    /   O peration     | Version:  2212                                  |
|   \\  /    A nd           | Website:  www.openfoam.com                      |
|    \\/     M anipulation  |                                                 |
\*---------------------------------------------------------------------------*/
FoamFile
{
    version     2.0;
    format      ascii;
    arch        "LSB;label=32;scalar=64";
    class       surfaceVectorField;
    location    "0.044";
    object      Uf;
}
// * * * * * * * * * * * * * * * * * * * * * * * * * * * * * * * * * * * * * //

dimensions      [0 1 -1 0 0 0 0];

internalField   nonuniform List<vector> 
68568
(
(0.121768 0.00022503 -0.000137892)
(0.121029 0.000564568 -0.000190885)
(0.120726 0.000370331 -2.84901e-05)
(0.123257 0.000792106 -0.000361462)
(0.121028 -0.000425159 -0.000246041)
(0.120992 -0.000487893 -0.000480739)
(0.119801 -0.000432545 1.37861e-05)
(0.113869 -0.000218088 -0.000237288)
(0.122358 0.000209199 0.000312064)
(0.122076 -0.000490144 0.000755303)
(0.120688 -0.000277241 0.000161653)
(0.117041 -0.000646983 0.000786337)
(0.124478 -0.000197077 -0.000225951)
(0.123334 -5.99401e-05 -0.000440562)
(0.124326 -0.000130431 -0.000327369)
(0.124658 -0.000212264 -0.000345369)
(0.119196 -0.000222824 -0.000267084)
(0.122074 -0.000503702 -0.000314183)
(0.11858 -0.000230326 -0.000323525)
(0.121693 -0.000499115 -0.000360509)
(0.121643 -0.000153773 -2.38292e-05)
(0.12022 -8.68561e-05 0.000143045)
(0.121834 -9.41881e-05 0.000159115)
(0.115255 -9.70061e-05 -0.000275779)
(0.120646 -4.09796e-05 -0.000180489)
(0.116098 -0.000188672 0.000149934)
(0.117924 0.000100695 -0.000459689)
(0.120722 -6.22092e-05 -0.000246495)
(0.120586 0.000254828 0.000453348)
(0.12282 0.000133334 4.36239e-05)
(0.121541 -4.9765e-05 -1.17978e-05)
(0.121971 -0.000169825 -0.000367644)
(0.120761 9.86235e-05 -0.000273201)
(0.120814 0.000285085 -0.000619742)
(0.122768 -0.000261781 -9.39925e-05)
(0.121561 -0.000541924 -0.000362697)
(0.123286 -0.00013435 -0.000587363)
(0.123478 -0.000517848 -0.000424106)
(0.123564 0.000465357 4.35391e-05)
(0.122321 0.000307051 -6.04465e-05)
(0.123402 0.00027857 -8.16584e-05)
(0.119795 -0.000135101 -0.000527448)
(0.123802 -0.000460409 -0.000752569)
(0.123368 -0.000572483 -0.000673682)
(0.121088 -0.000247337 4.72302e-05)
(0.120043 -0.000455323 -2.61694e-05)
(0.11435 2.39784e-06 -0.000340284)
(0.123295 -0.000167048 -0.000138223)
(0.123171 -0.000152781 0.000267115)
(0.122298 -0.000168619 0.000178548)
(0.120399 -8.77273e-05 0.0001777)
(0.118785 -0.00031952 -1.43938e-05)
(0.120466 -0.000283928 -0.000136847)
(0.119756 -0.000254408 -3.27438e-05)
(0.113866 -0.000304298 -6.38732e-05)
(0.120829 -0.000441241 0.000808583)
(0.116242 -0.000376476 0.000522015)
(0.117994 -0.000401092 0.000747624)
(0.121121 -0.000325655 0.000291471)
(0.120206 0.000179065 0.000251656)
(0.121124 0.000333335 0.000268989)
(0.120676 0.000267019 0.000193218)
(0.122215 8.94642e-05 0.000160768)
(0.11647 0.000423006 0.000449738)
(0.11661 -0.000325851 0.000701966)
(0.120397 -6.0304e-05 0.000265085)
(0.120617 1.43159e-05 -0.000600743)
(0.11811 -0.000393661 -4.20059e-05)
(0.116841 8.30151e-05 -0.000699818)
(0.121071 -0.000213603 -0.000351212)
(0.120833 8.32264e-06 -0.000146797)
(0.122286 -0.000311689 -5.86449e-05)
(0.121856 -0.000482796 2.78966e-05)
(0.116422 -0.000136555 -5.88081e-05)
(0.115851 -0.000186103 -0.000379133)
(0.117548 6.3582e-05 -0.000318658)
(0.116191 0.000269663 -0.000327084)
(0.10593 -0.000147023 -0.000470092)
(0.122345 -0.000464255 -0.000562519)
(0.123811 -0.000221494 -0.00064234)
(0.122864 -0.000327099 -0.000639718)
(0.123308 -0.000361725 -0.000747724)
(0.122812 0.000382559 -0.000237324)
(0.122876 0.000458119 -0.000116536)
(0.12058 0.000491333 -1.66481e-06)
(0.12362 0.000560706 -0.000265524)
(0.117633 0.000284698 -0.000271632)
(0.118026 -0.000126806 -0.000261731)
(0.120655 0.000180147 -0.000404648)
(0.121105 4.55623e-05 -6.48356e-05)
(0.115506 -4.20816e-05 7.41511e-05)
(0.119725 -0.000140383 -8.46871e-05)
(0.117377 0.000232563 -0.000471843)
(0.119781 -0.00012915 0.000244571)
(0.120391 -2.68097e-05 -7.55003e-05)
(0.120413 -0.00042849 0.000169387)
(0.122494 -0.000295252 0.000749406)
(0.120553 -8.91262e-05 -0.000279379)
(0.121933 -0.000172649 -0.0001568)
(0.116063 -0.000124314 0.000275999)
(0.123215 0.000857541 0.000387363)
(0.120939 0.0010257 -0.000252548)
(0.122955 0.00102809 0.000191612)
(0.121252 0.000709737 -0.000651548)
(0.121546 0.000180698 0.000444383)
(0.115538 0.000435353 -0.00024912)
(0.117377 0.000467832 0.000152673)
(0.123257 7.0542e-05 0.000330426)
(0.122375 -0.000115198 0.000306587)
(0.123313 -1.54984e-05 0.000329243)
(0.123881 -0.00029285 -0.000201211)
(0.122126 -5.99143e-05 1.2907e-06)
(0.124025 -0.00023569 -0.00014213)
(0.121591 -0.000141747 -0.000180659)
(0.120196 -0.000207828 -0.000180746)
(0.120243 -8.70429e-05 -0.000305919)
(0.116681 0.000346009 4.78086e-07)
(0.116195 -0.000285845 0.000334629)
(0.122885 0.000271763 -0.000477019)
(0.122185 3.61018e-05 -0.000293395)
(0.12307 1.07062e-05 -0.000432693)
(0.123442 1.43301e-06 -0.000297471)
(0.117775 -0.000127247 -0.000228465)
(0.116619 -0.000261021 0.000116972)
(0.121071 -0.000201545 4.47413e-05)
(0.121238 -1.65051e-05 0.000136824)
(0.11788 0.000350769 0.000261013)
(0.115607 0.000222001 0.00023165)
(0.115558 0.000105583 -8.62785e-05)
(0.106771 8.71923e-05 0.000231517)
(0.123301 0.000461961 -0.000105634)
(0.115382 -1.7206e-05 -8.30173e-05)
(0.115602 -0.00048317 -0.000228353)
(0.113233 -0.000264173 5.91553e-05)
(0.106113 -0.000308458 -5.59797e-05)
(0.123841 -0.000475244 0.000289116)
(0.123832 -0.000630682 0.000159913)
(0.124 -0.000220118 0.000426567)
(0.123289 -0.000580064 0.000286506)
(0.121736 -0.000324961 0.000329862)
(0.121796 -0.000347256 0.000546179)
(0.123332 -0.000392857 0.000593727)
(0.114229 0.000531677 -0.000465359)
(0.115513 -0.000312035 -5.00111e-05)
(0.107059 5.69251e-05 -0.000125867)
(0.119012 -7.78721e-05 -0.000102925)
(0.116444 -0.000104807 -0.00039022)
(0.107215 0.000137963 -0.000487123)
(0.117306 -0.000232891 9.95836e-05)
(0.117327 -0.000516891 -0.000129418)
(0.118333 -0.00044331 -0.000117909)
(0.10644 -0.000342348 0.00010021)
(0.123068 -0.000201892 0.000154746)
(0.121003 -0.000185891 4.36695e-05)
(0.122427 -0.000308665 -0.000505117)
(0.123468 -0.000838985 -0.000460663)
(0.122156 -0.000781404 -0.000777551)
(0.123634 -0.000555885 -0.000905673)
(0.122829 -0.000575678 0.000628702)
(0.123243 -0.000739896 0.000237786)
(0.122599 -0.000310349 0.000314983)
(0.124015 -0.000649368 -0.000245119)
(0.122633 -0.000720492 -3.64931e-05)
(0.122016 -0.000430902 -0.000361209)
(0.123921 -0.000293947 -0.000499092)
(0.119884 1.88889e-06 -0.000357234)
(0.118103 0.000522448 -0.000517347)
(0.112811 -4.04572e-05 -0.000350421)
(0.12138 0.000355788 -0.000471372)
(0.121708 2.23859e-05 -0.000339793)
(0.119108 0.000218785 -0.000748744)
(0.117731 0.000116644 -0.000256033)
(0.119964 -0.000226741 0.000216607)
(0.1197 -2.88629e-05 4.50526e-05)
(0.121897 -1.48382e-05 -0.000269779)
(0.12078 -0.000228242 0.000122625)
(0.123182 -0.00013759 -0.000361446)
(0.121988 -0.000297611 -0.000543027)
(0.122218 3.9199e-05 -0.000452919)
(0.1239 0.000125352 -0.000843058)
(0.124333 -0.00012541 -0.000414396)
(0.117941 -0.000255281 -0.00058094)
(0.115605 2.5154e-05 -0.000277082)
(0.116355 2.98682e-06 -0.000179709)
(0.10557 1.52432e-05 -0.000345053)
(0.12241 0.000702223 0.000201626)
(0.121636 0.000564701 0.000272347)
(0.123221 0.000646493 0.00022727)
(0.122798 0.000459698 0.000168601)
(0.114814 -0.000438675 0.000113441)
(0.106637 -0.000161952 0.00038894)
(0.118806 -0.000195966 -0.000264174)
(0.118653 -0.000449219 -9.18379e-06)
(0.121895 -0.00024724 -0.000287043)
(0.121938 -0.000361444 -7.48051e-05)
(0.119303 0.00023594 0.000218206)
(0.119912 0.000119854 0.000175011)
(0.121867 -0.000118676 -8.27463e-06)
(0.117438 -7.72317e-05 -0.000719955)
(0.116088 -8.3354e-05 -0.00034106)
(0.117657 8.71936e-05 -0.000163449)
(0.106534 0.000347893 -0.000276857)
(0.122273 0.000126009 0.000455361)
(0.121819 -0.000214014 0.000117635)
(0.120704 -3.98642e-06 0.000418329)
(0.116359 2.15597e-05 0.000353131)
(0.12196 -0.000277214 0.000167488)
(0.120626 7.06156e-05 0.000462583)
(0.121939 -6.82016e-05 -4.73543e-06)
(0.115362 7.30613e-05 0.000256529)
(0.115395 1.76499e-05 -0.000145986)
(0.115559 0.000491547 -0.000156893)
(0.107466 0.00017336 -0.000131827)
(0.120836 -0.000486809 -0.000548047)
(0.120513 -4.30735e-05 -0.000377859)
(0.120765 -0.000158101 -0.000219952)
(0.12267 0.000365015 0.000100426)
(0.12131 0.000428309 0.000187527)
(0.123447 0.000133178 -0.000139693)
(0.121974 0.000242737 -0.000196647)
(0.120555 -0.000162249 -0.000405538)
(0.117788 -0.000245531 -0.000531588)
(0.117859 -0.000236251 -0.000288823)
(0.107416 -0.000323675 -0.000206089)
(0.12184 -0.000125723 -0.000136161)
(0.121934 1.86573e-05 6.14171e-05)
(0.114719 4.52285e-06 -0.000244324)
(0.120274 0.000131839 9.52561e-06)
(0.120589 0.00040321 0.000155511)
(0.122156 0.000459696 0.000214472)
(0.120734 0.000423 0.000324179)
(0.123832 -0.000142472 -0.000594624)
(0.124123 -0.000215229 -0.00048891)
(0.124018 -0.000345123 -0.000417999)
(0.123458 -0.00024007 -0.000353907)
(0.119911 0.000275496 -0.00105006)
(0.122176 0.000158573 -0.000903388)
(0.122835 -0.000282562 -0.000731416)
(0.120359 -0.000454032 4.46939e-05)
(0.121731 -0.000296322 3.2191e-05)
(0.120321 -0.000141265 0.000214885)
(0.115623 -6.14782e-05 -0.000230971)
(0.117769 -0.000940897 -0.000501857)
(0.118342 0.000270044 -0.000406189)
(0.106583 -6.30956e-05 -0.000477848)
(0.123719 0.000283209 6.10829e-05)
(0.124091 0.000216909 -0.000304307)
(0.123702 2.10362e-05 -9.40289e-05)
(0.124271 6.34795e-05 -0.000443955)
(0.122808 0.000312988 6.11568e-05)
(0.120739 0.000298052 0.000148112)
(0.121979 0.000104032 0.000125342)
(0.121928 0.000189718 -0.000144811)
(0.117895 4.65422e-05 -0.00112585)
(0.117348 0.000215605 -0.00050798)
(0.118989 6.22811e-05 -0.000833501)
(0.109749 -0.000641534 -0.00081957)
(0.121046 -0.000281294 -0.000655454)
(0.121128 -0.000323202 -0.000872)
(0.123135 -0.000308534 -0.000487942)
(0.122803 -0.000273257 -0.000616958)
(0.12235 -0.000250473 -0.000209733)
(0.120713 -0.000353804 -0.000363244)
(0.120706 1.33273e-05 -0.00010202)
(0.11594 6.2211e-05 -0.00058505)
(0.122573 0.000643942 0.000305022)
(0.122014 0.000674583 4.31479e-05)
(0.120851 0.000432048 -0.000113528)
(0.115676 1.05734e-05 -0.000639962)
(0.115213 0.000150901 -0.000423697)
(0.117022 0.000351438 -0.000656532)
(0.105885 0.000399737 -0.00018183)
(0.122921 -0.000564458 -0.000117706)
(0.122589 -0.000591687 0.000138276)
(0.124051 -0.000498037 6.16022e-05)
(0.118324 0.00104072 -0.000620184)
(0.12168 1.86974e-05 -0.0004366)
(0.121147 0.00014248 -0.000455741)
(0.120309 -0.000284979 0.000495383)
(0.120774 -1.86614e-05 0.000243474)
(0.121236 3.26587e-05 0.000341524)
(0.114702 -0.000130507 0.000345044)
(0.117779 -0.000214317 -0.000135265)
(0.122807 -1.91585e-05 6.16181e-05)
(0.120656 0.000243146 6.43217e-05)
(0.122771 0.000432266 -9.95828e-05)
(0.115989 0.000321237 -0.000329108)
(0.119894 -0.000162396 -0.000115094)
(0.120158 -5.86497e-05 7.97348e-06)
(0.112957 -0.00011894 -0.00031477)
(0.114058 -5.21076e-05 0.000256642)
(0.113682 -0.00034132 9.6893e-05)
(0.106549 -0.000202993 0.000115958)
(0.123954 -5.41374e-05 0.000211705)
(0.122043 -0.000116138 -0.000107613)
(0.123878 -0.000306096 0.000176022)
(0.123048 -0.000534124 0.000218155)
(0.122892 -0.000475382 -0.000300406)
(0.122454 -2.93882e-05 -0.000162607)
(0.122276 -9.59667e-05 -0.000297574)
(0.11523 -0.000161811 1.96622e-05)
(0.119964 -0.000286119 -0.000106164)
(0.12201 -0.000307631 -0.000119195)
(0.122441 -0.000133951 -0.000179377)
(0.119955 1.56047e-05 0.000122956)
(0.123794 -0.000180881 -0.000141504)
(0.121816 -0.000131632 -0.000290328)
(0.122035 4.99809e-05 3.46819e-05)
(0.123774 -0.000256286 -4.96271e-05)
(0.123832 4.4892e-06 0.000195607)
(0.123349 -0.000184351 2.67752e-05)
(0.124119 -0.000160854 -0.000164999)
(0.122193 -0.000165228 -0.000278595)
(0.121931 -0.000282234 -0.000475157)
(0.123734 -0.000111965 -0.000630188)
(0.115586 0.00135698 -0.000952869)
(0.118743 0.000164631 -0.00135456)
(0.11769 0.000565354 -0.000888741)
(0.104361 8.59181e-05 -0.000384798)
(0.122502 -0.000174019 -0.000259412)
(0.122549 -0.000267892 -0.000325718)
(0.123836 -0.000215418 -0.000559121)
(0.121107 -0.00027937 0.00019564)
(0.122754 -0.00021762 6.01655e-05)
(0.11515 -0.000103123 -9.2981e-05)
(0.118073 -0.00026867 1.79384e-05)
(0.117623 -2.63911e-05 4.38017e-05)
(0.120993 -0.000309796 0.000258982)
(0.120796 -0.000364248 -8.279e-05)
(0.117056 -0.000392551 -0.000995276)
(0.117641 -0.000556791 -0.000159909)
(0.105779 -0.00039272 -0.000178773)
(0.118495 0.000510392 -0.000831437)
(0.120323 0.000262933 -0.000965648)
(0.113824 -0.000281001 -0.000497675)
(0.116999 -0.000585172 -8.44372e-05)
(0.120265 -0.000668758 -0.000170822)
(0.116561 -0.000445942 -0.000430184)
(0.120058 -0.000462395 -0.000232421)
(0.121323 0.000470837 0.000146625)
(0.121108 0.000784394 7.7076e-07)
(0.119332 0.00106482 0.000522529)
(0.115759 0.000569642 0.000376543)
(0.119546 0.000278598 -0.000259606)
(0.120429 -7.07848e-05 -0.000289969)
(0.122512 0.00022814 -0.000123815)
(0.122857 -0.000259745 -7.96593e-05)
(0.122445 -0.000213781 -1.34648e-05)
(0.114972 -0.000201173 4.16363e-06)
(0.120101 8.39573e-05 0.000329605)
(0.119629 0.000374912 0.000267457)
(0.121145 7.63051e-05 0.000264557)
(0.114517 5.9941e-05 -0.000154473)
(0.116713 -0.000907827 0.000156694)
(0.1172 -0.000393177 -1.62688e-05)
(0.116098 -0.00108768 -0.00034895)
(0.106131 -0.000748474 0.000188651)
(0.121895 0.000358343 0.000223313)
(0.122074 3.52372e-06 0.000192437)
(0.120069 0.000281199 -0.000245371)
(0.122254 -6.09778e-05 -0.000171431)
(0.121902 0.000147194 0.000248057)
(0.120282 -0.000107355 0.000421351)
(0.120082 0.000539665 0.000310417)
(0.11859 -0.000384502 -0.000425551)
(0.114087 -9.31831e-06 -0.000169622)
(0.115509 -3.97947e-05 -0.000231647)
(0.117335 -0.000358816 -0.000315066)
(0.116429 0.000129524 -0.000355595)
(0.106487 -4.68734e-05 7.78919e-05)
(0.117903 -5.74941e-05 -0.000284863)
(0.106038 -3.0454e-05 -0.000319257)
(0.122276 -0.000419979 -2.08381e-05)
(0.124151 -0.000203787 0.000274072)
(0.124248 -0.000300032 -9.57073e-05)
(0.107625 1.94588e-05 0.000235038)
(0.116351 -0.000671087 -0.000723437)
(0.11751 -0.000517321 -0.000307899)
(0.117026 -0.000893338 -0.000687479)
(0.105466 -0.000406305 -0.000978718)
(0.116162 0.00062971 -0.000196343)
(0.119685 0.000411775 -8.96209e-05)
(0.115486 -0.000390333 0.000704509)
(0.114312 -3.58893e-05 0.0003357)
(0.11621 0.000213748 0.000688842)
(0.106221 -0.000323676 0.000324643)
(0.122544 -0.00111475 0.000330801)
(0.12019 -0.00114456 0.000593425)
(0.120589 -0.00101606 0.000447898)
(0.122548 -0.0010584 0.000192681)
(0.119135 -0.000344569 -0.00065407)
(0.118001 -0.000307535 -0.000264309)
(0.117169 -0.000159356 -0.000264026)
(0.105856 0.000126918 -0.0002886)
(0.121666 0.000362156 -9.61115e-05)
(0.120647 0.000253295 -0.000138867)
(0.12122 -0.000403611 -0.000111241)
(0.116348 0.000153199 -0.000334115)
(0.117973 -0.000479873 -0.000475893)
(0.117909 -0.000486366 -0.000622796)
(0.120761 -0.000543815 -0.000605999)
(0.121816 8.8953e-05 -0.000665079)
(0.121618 0.000163426 -0.000670531)
(0.120548 0.000115043 -0.000639376)
(0.114424 0.000422509 -0.000769212)
(0.117074 -8.56331e-05 6.15127e-05)
(0.115295 -0.00044192 9.30882e-05)
(0.11628 -0.000583715 0.000445127)
(0.106009 -0.00044155 -3.9017e-05)
(0.121657 0.000562449 0.000312986)
(0.11766 0.000452407 -0.000287656)
(0.117456 -0.000238875 -4.75185e-05)
(0.121276 -0.000776482 -9.95551e-05)
(0.117608 -0.000529008 -4.27139e-07)
(0.121038 -0.00067087 0.000246983)
(0.12223 0.000138427 0.000191045)
(0.12137 6.61835e-05 -3.90085e-05)
(0.122114 6.23008e-05 -8.24724e-05)
(0.121574 7.15923e-05 0.000195664)
(0.121726 -0.000289256 -5.42886e-05)
(0.115467 -0.000302918 6.59759e-05)
(0.120735 -0.000382313 -0.000264544)
(0.121191 -5.85479e-05 -0.000496794)
(0.122526 2.03063e-05 -0.000277958)
(0.120731 -0.000240101 -0.000132007)
(0.121203 -0.000325684 0.000292887)
(0.122897 -0.000167689 0.000159607)
(0.123612 -0.000335908 0.000112242)
(0.121714 -2.87003e-05 -0.000590442)
(0.121619 -7.55824e-05 -0.000501501)
(0.123846 5.46808e-06 -0.000628508)
(0.120492 0.000243917 -0.000495494)
(0.122287 0.000179136 -0.000351013)
(0.122637 -0.000191153 -0.00069742)
(0.118961 -0.000786072 -0.000243496)
(0.123453 0.000104163 -0.000644763)
(0.121225 -0.000455266 0.000272674)
(0.122902 8.64741e-05 0.000421115)
(0.122792 -7.5033e-05 0.000180798)
(0.122943 -0.000332035 0.00019178)
(0.121012 8.57092e-05 0.000149296)
(0.121813 -0.000166894 0.000279715)
(0.114343 -4.05282e-05 8.32501e-05)
(0.116185 -0.000108386 -0.00058408)
(0.116247 -0.000330672 -0.000277919)
(0.116872 -0.000704835 -0.000347065)
(0.120117 -0.000629378 -0.000395051)
(0.120606 -0.000506991 -0.000409579)
(0.121276 -0.000387218 0.000189956)
(0.121016 -0.000317078 -2.04973e-05)
(0.123346 -0.00023671 -0.000286576)
(0.123322 -0.000226082 5.05904e-05)
(0.122514 1.33463e-06 -0.00023466)
(0.120968 -0.000237983 -0.000404423)
(0.120563 0.000200721 -0.000127743)
(0.122469 0.000347555 -2.80015e-06)
(0.122198 0.000305537 -0.000426062)
(0.123617 -2.68243e-05 -0.000716215)
(0.122708 8.63794e-05 -0.000251311)
(0.123515 -0.000163157 -0.000645121)
(0.122303 -0.000480434 -5.77922e-05)
(0.121292 -0.000283406 -4.89275e-05)
(0.120045 -0.000944423 0.000179554)
(0.122733 -0.000682734 6.78187e-05)
(0.122147 -0.000164063 6.93413e-05)
(0.118631 -0.000174988 -0.000335696)
(0.122941 -0.000179307 4.4643e-06)
(0.118455 6.54033e-05 -0.000680491)
(0.123092 -6.30266e-05 -1.16922e-05)
(0.123865 -0.000205763 -0.000407042)
(0.122721 -3.9454e-05 -0.000246358)
(0.122285 -2.98942e-05 0.000294203)
(0.114745 -1.26481e-05 -9.62235e-05)
(0.115653 -0.000236598 -0.000429212)
(0.107351 -0.000104308 -0.000272172)
(0.116214 -0.000612556 -0.000880955)
(0.10591 -0.00030252 -0.000224039)
(0.123833 0.000204789 0.00072548)
(0.121794 0.000221564 0.00021468)
(0.120523 -0.000533672 -0.00046304)
(0.114697 -0.000343387 -0.000349766)
(0.121915 -0.000185692 -0.000791327)
(0.121618 -0.000203071 -0.00059088)
(0.120364 -0.000339081 -0.000318725)
(0.114175 -0.000318059 -0.000409455)
(0.123464 0.00031956 0.000696271)
(0.123513 0.000120383 0.00072598)
(0.123628 0.000195718 0.000625617)
(0.122669 0.000345762 0.000683346)
(0.121713 0.000614425 0.000334087)
(0.121846 0.00034423 0.000243092)
(0.12315 0.000424506 0.000288159)
(0.115349 -0.000230066 -0.000403277)
(0.117153 -9.83425e-05 -0.000228408)
(0.105544 -0.000347591 -0.000426106)
(0.118057 0.000266339 -0.000343744)
(0.116816 -9.95206e-05 -0.00027016)
(0.116148 0.000300461 -0.000342589)
(0.106436 -5.48684e-05 -0.000699171)
(0.123202 -0.000118704 8.46397e-05)
(0.121656 -0.000264056 -0.000399685)
(0.123234 -0.000424733 -0.000102547)
(0.120348 -2.27565e-05 -0.000230052)
(0.122098 -0.000162118 -0.000325217)
(0.116645 -0.000344325 -0.000513623)
(0.117318 -0.000220971 -0.000626134)
(0.106324 -0.000380219 -0.000390989)
(0.118099 -0.00034403 -0.000124513)
(0.115873 -8.24918e-05 1.05266e-05)
(0.11545 4.0593e-07 0.000252815)
(0.107383 -0.000114042 0.000136726)
(0.123718 -0.000656814 0.000214976)
(0.121966 -0.000428646 0.000470426)
(0.121792 -0.000445181 9.12377e-05)
(0.123597 -0.000410935 -3.1367e-05)
(0.117723 -0.000126797 -0.0012929)
(0.117483 8.83782e-06 -0.000863645)
(0.120423 -0.00026211 -0.000854284)
(0.106635 -0.000295599 -0.00115267)
(0.120299 0.000197351 0.000193851)
(0.120732 -0.000441741 0.000231024)
(0.120834 -0.000163455 0.000223846)
(0.114963 -0.000307581 0.00027225)
(0.118129 -0.000657503 -0.000455446)
(0.121391 -0.000356296 -0.000649677)
(0.121208 -0.000101232 -0.000828077)
(0.121816 -0.000113002 -7.90414e-05)
(0.123518 -0.000166225 0.000111104)
(0.122574 6.92699e-05 0.000381623)
(0.118796 0.000187086 -0.00115749)
(0.116364 0.000410091 -0.000838128)
(0.118246 0.000823261 -0.000879319)
(0.105032 -0.000367281 -0.000883797)
(0.124754 -7.45289e-05 5.94007e-05)
(0.124484 -0.000237985 -1.53278e-05)
(0.122912 1.95648e-05 -6.10208e-05)
(0.124544 2.61601e-05 -4.65081e-06)
(0.122742 -0.000145922 -0.000460017)
(0.120055 -0.000177434 -0.000303086)
(0.119537 -4.6492e-05 -0.000687551)
(0.122459 -0.000272291 -0.000192562)
(0.118858 -0.00101861 -0.000377062)
(0.119215 -0.000933568 -7.50958e-05)
(0.106408 -0.000307476 -0.000528984)
(0.117681 -0.000666984 0.000914635)
(0.116497 -0.000283487 0.000901795)
(0.118289 -0.000554266 0.000659996)
(0.105038 7.97604e-05 0.000175473)
(0.12094 -0.000330713 2.86918e-07)
(0.115999 -0.000293318 3.87852e-05)
(0.118305 -0.00030092 -0.000720959)
(0.124462 -0.000193082 -0.000210445)
(0.122883 -0.000175707 -0.00033165)
(0.116306 0.000258261 0.000250006)
(0.115437 0.000130229 0.000258762)
(0.117357 -0.000155937 -0.000149226)
(0.105315 -0.000159026 0.000178952)
(0.118672 -0.000191994 -0.000820375)
(0.118487 0.000372912 -0.000550476)
(0.106511 -0.00040163 -0.00092606)
(0.115753 -0.000197012 0.000294125)
(0.11825 -9.89164e-05 0.000288308)
(0.11607 -0.00052201 9.99323e-05)
(0.106922 -0.000299757 0.000100974)
(0.115798 -0.00100432 -0.000379533)
(0.118642 -0.000711639 0.000228263)
(0.11689 -0.00102938 -0.000231899)
(0.104784 -0.000547773 -0.000375026)
(0.118527 0.000472632 -0.000570823)
(0.119992 0.000251171 -5.08041e-05)
(0.120363 4.30429e-05 -0.000381473)
(0.113808 0.000269214 -0.000286371)
(0.116834 0.000324065 0.000170502)
(0.116026 0.000233855 0.000317381)
(0.106898 1.24064e-05 0.000233162)
(0.123277 -0.00055563 1.60705e-05)
(0.122852 -0.000377093 0.000159092)
(0.12368 -0.000503845 -3.24507e-06)
(0.123269 -0.00047036 0.000196745)
(0.121788 -0.000330275 0.000237554)
(0.121966 -0.000246089 2.78485e-05)
(0.123866 -0.000328955 0.000295353)
(0.124137 -0.000334731 0.000267766)
(0.114703 0.000171739 -0.00108929)
(0.114808 0.000116422 -0.000449805)
(0.116835 0.000212715 -0.000749902)
(0.107733 -0.000244794 -0.00055418)
(0.117357 -0.000412974 0.000541863)
(0.117687 -0.00134236 -0.000110477)
(0.117964 -0.000676373 0.000207444)
(0.109906 -0.000534415 9.42997e-06)
(0.119394 0.000958335 -0.000156795)
(0.12127 0.00060124 -0.000388823)
(0.121292 0.000553962 -0.000625697)
(0.11566 0.00023906 -0.000664517)
(0.117888 5.0349e-05 0.00013262)
(0.115387 -5.61645e-05 -4.00747e-05)
(0.114751 -0.000218347 -0.00019673)
(0.106862 0.000174821 -7.15886e-05)
(0.122056 -4.74236e-05 0.000468136)
(0.115754 4.99858e-05 -1.5915e-05)
(0.122264 -0.00049058 -0.000365211)
(0.123467 -0.000112473 -0.000377784)
(0.122543 -0.000125113 -0.000237478)
(0.122494 -0.000126131 -0.000291318)
(0.120605 0.000417426 9.61683e-05)
(0.119424 0.000337646 0.000220545)
(0.115406 0.000450071 0.000324676)
(0.122887 0.000208228 -4.9448e-05)
(0.121951 0.000265797 0.00038137)
(0.122646 0.000174772 0.00026523)
(0.122621 0.000345834 0.000326497)
(0.122472 -0.000141056 -7.00964e-05)
(0.122401 -0.000447486 -0.000149804)
(0.115059 -0.000274258 -0.000142589)
(0.120695 -0.000236795 -0.000196989)
(0.119443 -0.000362584 4.61274e-05)
(0.120659 -0.000387385 0.00014538)
(0.113157 -0.000139039 -0.000267279)
(0.120761 -1.82529e-05 -1.14406e-05)
(0.12109 0.000252454 9.75718e-05)
(0.114649 0.000177845 0.000229742)
(0.117154 -0.000488552 0.000636294)
(0.120807 -0.000497491 0.000399526)
(0.121029 -0.000744946 0.000611839)
(0.118786 -1.34567e-05 0.000238033)
(0.120318 -0.000345407 -0.000115198)
(0.120507 -0.000308414 9.85746e-05)
(0.114497 -0.000146774 0.000216706)
(0.117315 0.000385479 -0.000158676)
(0.114689 0.000245369 -0.000509753)
(0.105751 0.000878908 -0.000508812)
(0.122206 -0.00019996 -5.02647e-05)
(0.123576 -0.000190208 -0.000122491)
(0.124163 0.00036589 -0.000196592)
(0.120516 -4.10174e-05 0.000359937)
(0.121095 -6.34045e-05 0.000552591)
(0.113937 -0.000382106 0.000717266)
(0.122523 0.000281474 7.82414e-05)
(0.123226 -6.73624e-05 9.37479e-05)
(0.123085 0.000237867 -8.57259e-05)
(0.123301 0.0002513 -6.94383e-05)
(0.117495 -6.67032e-05 -9.73997e-05)
(0.118235 -0.000145334 0.000176533)
(0.117643 -0.000365061 9.29384e-06)
(0.105623 0.000114849 9.9795e-05)
(0.115513 3.3917e-05 0.000403782)
(0.115343 -0.000199719 0.000399603)
(0.116734 -9.69215e-05 0.000617108)
(0.105974 -0.000257554 0.000357488)
(0.122076 -0.000310405 -0.000247945)
(0.122904 -0.000179329 0.00024208)
(0.123752 -0.000412321 1.84377e-05)
(0.123444 -8.68471e-05 0.000220022)
(0.122019 -0.000382012 -0.000363488)
(0.123192 2.88457e-05 -0.000477404)
(0.121592 0.000150601 -0.000370533)
(0.119431 -0.000234878 0.000708618)
(0.121549 -0.000289129 0.000145629)
(0.121153 -0.000174321 0.00027524)
(0.119947 -0.000239484 0.000748676)
(0.119902 -0.000112089 0.000184993)
(0.121598 -0.000390431 8.01454e-05)
(0.115024 -0.000117149 0.000305628)
(0.121988 -0.000329574 -0.000687793)
(0.122146 -5.5334e-05 -0.000584824)
(0.120017 -0.0001288 -0.00032766)
(0.114618 0.000150424 -0.000586017)
(0.121631 -0.000158119 -0.000791251)
(0.118111 -0.000235825 -0.000745586)
(0.121511 6.30788e-05 -0.000652104)
(0.117906 0.000329687 0.000297522)
(0.1214 0.000470118 0.00044239)
(0.118827 0.000203775 0.000643472)
(0.121792 0.0003331 0.000273328)
(0.123157 0.000233121 -0.000550614)
(0.120429 0.00038909 -0.000550253)
(0.121036 -5.30142e-05 -0.00079039)
(0.118024 -4.46129e-05 -4.83855e-05)
(0.106517 -0.000179788 -0.000337691)
(0.11736 -5.67461e-06 -7.38591e-05)
(0.12051 -0.000234086 -9.4628e-05)
(0.123731 0.000233617 0.000127489)
(0.123517 -9.88857e-05 9.03421e-05)
(0.123102 7.41403e-05 0.000319936)
(0.123588 -4.63139e-05 0.000415087)
(0.122413 -0.000514711 0.000113072)
(0.122505 -0.000613837 -9.4795e-06)
(0.122236 -0.000465742 5.31193e-05)
(0.122463 -0.000522899 -0.000141929)
(0.1226 -0.000412572 0.000201187)
(0.122276 -0.000570609 0.000176294)
(0.120526 -0.000440396 0.000437887)
(0.119095 -0.0012749 -5.27685e-05)
(0.12151 -0.00130252 -0.000359992)
(0.1206 -0.00104882 -0.00060755)
(0.119144 -9.07851e-05 -0.000285838)
(0.118901 0.000281661 -0.000500668)
(0.114762 8.08286e-05 0.000255424)
(0.122228 9.45814e-05 -0.000442101)
(0.115667 -0.000180392 -0.000343418)
(0.119052 0.000577392 -0.000503562)
(0.11924 0.000627179 -0.000706184)
(0.120431 0.000182688 -0.000532631)
(0.114086 -7.63689e-05 -0.00048069)
(0.123277 0.000209475 -0.000373287)
(0.121699 0.000334011 -0.00040714)
(0.122302 0.000119775 -0.000585787)
(0.106596 4.77094e-05 -0.000175068)
(0.120428 0.000116173 -0.000256)
(0.115333 -0.000118724 -0.000142906)
(0.118213 0.000168544 -7.63101e-05)
(0.121004 0.000167499 0.000261014)
(0.117858 0.00021248 -0.000143669)
(0.12129 0.000492681 2.67371e-05)
(0.121588 7.16044e-05 -0.000251796)
(0.121039 7.32012e-05 -0.000421385)
(0.120402 8.09999e-05 -7.07126e-05)
(0.116306 0.000307442 -0.00032208)
(0.123483 -9.80606e-05 -0.000410651)
(0.121897 -0.000190824 -0.000576247)
(0.123034 -0.000287807 -0.000556561)
(0.121692 -0.000472507 -0.000397322)
(0.121375 -0.000629226 -0.000431573)
(0.123373 -0.000482429 -0.000250255)
(0.122475 -0.000503963 -0.000120554)
(0.122999 0.000148231 -0.000411761)
(0.123262 -0.00011715 -0.000301321)
(0.116697 -0.00067788 -0.000430977)
(0.117742 -0.000894704 -0.000462554)
(0.105608 -3.79143e-05 -0.000400076)
(0.120064 -0.000754959 0.000315865)
(0.120971 -0.000329214 6.1064e-05)
(0.123466 -0.000376678 -0.000160653)
(0.121102 -0.000186982 -0.000265541)
(0.123635 -0.000407944 -0.000201068)
(0.123028 -6.96098e-05 0.000225142)
(0.122838 6.11313e-05 -8.689e-05)
(0.122167 0.00027275 0.00025902)
(0.118682 -0.000283174 -0.000484192)
(0.122487 -0.00032172 -0.000600764)
(0.113278 0.00012626 0.000126165)
(0.115355 -0.000310062 0.000658129)
(0.11499 -0.000491826 0.000263028)
(0.104046 -0.000540548 0.000336635)
(0.121869 -0.000371965 -2.45388e-05)
(0.120963 -0.000460475 0.000330431)
(0.115963 -0.000323801 0.000910976)
(0.115461 -0.00107741 -0.000344284)
(0.107147 -0.000602679 -0.000201113)
(0.120334 0.000344108 -0.000141303)
(0.120592 0.000464913 0.000236955)
(0.103316 0.000143717 -0.00021878)
(0.121283 -0.00021375 0.000339197)
(0.123594 -0.000376735 0.000299146)
(0.116244 -0.00041941 0.000327298)
(0.118901 0.000313221 0.00032681)
(0.119671 -0.000401091 8.1301e-05)
(0.116945 0.000491168 -0.000236762)
(0.117085 0.00021734 -0.000267842)
(0.117534 0.000423875 -0.000586064)
(0.105522 2.77075e-05 -0.00010814)
(0.121215 -3.80157e-05 0.000118772)
(0.120561 1.44282e-05 0.000102255)
(0.120077 1.01247e-05 0.000189105)
(0.122175 0.000747236 -0.000307486)
(0.123032 0.000801862 -0.000270447)
(0.120198 0.000131854 -0.000209647)
(0.121045 8.17823e-05 -0.000368874)
(0.123139 -0.000678663 -0.00018251)
(0.122708 -1.36996e-06 0.000283598)
(0.117848 -0.000544663 -1.2599e-05)
(0.117626 -0.000293715 -9.32467e-05)
(0.104848 -0.000329397 0.000136862)
(0.1164 -0.000944479 0.000247961)
(0.11504 -0.000635977 0.000630886)
(0.106689 -0.000612683 0.000198919)
(0.122417 -0.000621879 0.000366844)
(0.120734 -0.000118833 0.000566815)
(0.121795 -0.000458742 0.000636248)
(0.120481 -0.000276338 0.000114309)
(0.122947 0.000111383 -0.00064083)
(0.123708 -1.03714e-05 -0.000608195)
(0.121578 0.000139683 -0.000431173)
(0.117114 0.000493887 0.000123144)
(0.117962 0.00012292 6.38836e-05)
(0.104696 0.000295515 -0.000484653)
(0.123034 -0.000625751 0.000122537)
(0.122954 -0.000651118 0.000372252)
(0.122812 -0.000433672 0.000283069)
(0.119732 -0.000101727 -0.000202361)
(0.117486 6.89266e-05 -0.00048862)
(0.106945 -6.27439e-05 -0.000375013)
(0.115574 -0.000260485 0.000238926)
(0.115562 -0.000534955 8.83392e-05)
(0.107363 -0.000324615 -4.18753e-05)
(0.119977 0.000234486 -0.000461131)
(0.119594 0.00020326 -0.000346021)
(0.121133 0.00031428 -0.000173924)
(0.114985 -0.000225779 -0.000374012)
(0.120627 -0.000359879 -0.00029655)
(0.122412 -0.000522667 7.89417e-05)
(0.120393 -0.00029383 0.000474169)
(0.121904 -0.000380142 7.80755e-05)
(0.118642 -0.00116874 0.000233746)
(0.12031 -0.000900624 6.88538e-06)
(0.120503 -0.000790298 -9.98451e-05)
(0.11329 -0.000881171 -0.000204248)
(0.115766 -0.000338179 0.000588863)
(0.119651 2.01004e-05 0.000558163)