/*--------------------------------*- C++ -*----------------------------------*\
| =========                 |                                                 |
| \\      /  F ield         | OpenFOAM: The Open Source CFD Toolbox           |
|  \\    /   O peration     | Version:  2212                                  |
|   \\  /    A nd           | Website:  www.openfoam.com                      |
|    \\/     M anipulation  |                                                 |
\*---------------------------------------------------------------------------*/
FoamFile
{
    version     2.0;
    format      ascii;
    arch        "LSB;label=32;scalar=64";
    class       volScalarField;
    location    "0.04";
    object      epsilon;
}
// * * * * * * * * * * * * * * * * * * * * * * * * * * * * * * * * * * * * * //

dimensions      [0 2 -3 0 0 0 0];

internalField   nonuniform List<scalar> 
31639
(
0.509704
0.507112
0.510307
0.504602
0.519554
0.511549
0.527025
0.513063
0.512638
0.504293
0.508202
0.504719
0.504682
0.502541
0.504972
0.529549
0.512177
0.520912
0.520458
0.509402
0.545918
0.510194
0.503983
0.52217
0.527058
0.513231
0.50699
0.421211
0.522806
0.50697
0.504068
0.523891
0.502735
0.527053
0.543029
0.506564
0.547222
0.50678
0.505008
0.559398
0.535625
0.542012
0.500933
0.509809
0.51149
0.504404
0.508731
0.518869
0.510562
0.504764
0.504306
0.5503
0.508141
0.553706
0.519597
0.515138
0.547107
0.508758
0.506202
0.545304
0.513656
0.513735
0.533159
0.507909
0.51151
0.503236
0.509517
0.507256
0.539875
0.504259
0.50509
0.50634
0.503064
0.507123
0.508169
0.545686
0.503036
0.519976
0.505264
0.511037
0.526384
0.56049
0.503396
0.507475
0.500484
0.503769
0.503918
0.503901
0.53391
0.504334
0.507075
0.515381
0.540906
0.506762
0.525314
0.508183
0.514773
0.506874
0.507719
0.544298
0.506393
0.504661
0.503435
0.54508
0.541518
0.504778
0.546224
0.55263
0.528935
0.55225
0.498753
0.541832
0.510794
0.522498
0.504727
0.550032
0.525288
0.523939
0.511369
0.507825
0.511348
0.505652
0.50314
0.512258
0.517142
0.507054
0.509223
0.527129
0.527936
0.502081
0.502032
0.500655
0.501132
0.523677
0.509677
0.50636
0.542141
0.547574
0.504428
0.50777
0.507828
0.505423
0.504891
0.547491
0.555817
0.502937
0.507452
0.543265
0.539071
0.505175
0.537907
0.514816
0.521543
0.510229
0.543377
0.504518
0.514959
0.540303
0.536098
0.523646
0.503685
0.545586
0.537511
0.547355
0.548342
0.508336
0.545066
0.505834
0.505013
0.541537
0.505875
0.508442
0.542552
0.505641
0.503081
0.507699
0.507332
0.506007
0.505761
0.502006
0.506425
0.515685
0.502263
0.555986
0.515771
0.50478
0.503484
0.505963
0.548259
0.546155
0.512213
0.510486
0.509773
0.507602
0.506914
0.521538
0.524951
0.502644
0.543303
0.519507
0.506314
0.506764
0.498812
0.499133
0.519522
0.508794
0.507216
0.504594
0.507312
0.558076
0.508474
0.522464
0.508956
0.508474
0.516687
0.501701
0.539789
0.526479
0.510578
0.506034
0.502881
0.519152
0.545056
0.515374
0.54656
0.522769
0.50784
0.529885
0.543223
0.511898
0.509344
0.505621
0.537258
0.551296
0.509183
0.508371
0.53989
0.50202
0.538376
0.545982
0.506449
0.50796
0.507391
0.529992
0.537637
0.513072
0.504445
0.507707
0.538447
0.507507
0.503935
0.547198
0.531311
0.505951
0.508693
0.524792
0.541017
0.503359
0.503261
0.526953
0.504223
0.503721
0.514889
0.504649
0.507407
0.518925
0.540948
0.525203
0.498411
0.503416
0.495326
0.523084
0.519088
0.516461
0.504661
0.513302
0.544039
0.521075
0.533212
0.504303
0.519965
0.507616
0.50618
0.524802
0.539421
0.54236
0.540328
0.552821
0.501945
0.536479
0.512036
0.504998
0.522606
0.537159
0.50856
0.523396
0.541187
0.508539
0.520821
0.541592
0.509393
0.534491
0.507372
0.505468
0.543509
0.519479
0.506197
0.552423
0.551529
0.503968
0.504061
0.493978
0.546198
0.545204
0.504337
0.532809
0.525479
0.506548
0.508773
0.508267
0.505058
0.504048
0.541146
0.501686
0.552669
0.553445
0.508184
0.50448
0.503647
0.504502
0.510806
0.536458
0.503713
0.505378
0.506206
0.510438
0.505898
0.50774
0.504639
0.511281
0.503129
0.506759
0.506661
0.513107
0.504912
0.516101
0.507401
0.502753
0.542559
0.517353
0.505288
0.520382
0.511206
0.500575
0.507064
0.543551
0.506466
0.507907
0.547213
0.509263
0.539662
0.516677
0.499271
0.55109
0.508307
0.508835
0.542188
0.513618
0.540292
0.515214
0.509384
0.515897
0.552228
0.510716
0.53911
0.511094
0.504599
0.507511
0.509959
0.541799
0.501356
0.542585
0.506609
0.550841
0.503388
0.501664
0.503555
0.503094
0.523187
0.512361
0.508053
0.510726
0.507669
0.550006
0.513489
0.506776
0.502153
0.504341
0.51402
0.510373
0.516694
0.545683
0.520452
0.508542
0.503748
0.55194
0.505701
0.504489
0.509511
0.499151
0.502154
0.519959
0.502449
0.531757
0.510581
0.506065
0.550493
0.513892
0.508891
0.541486
0.542847
0.543171
0.527516
0.550635
0.510411
0.49666
0.52717
0.511569
0.542696
0.503238
0.503836
0.508101
0.507263
0.518863
0.507412
0.511359
0.524114
0.502898
0.505345
0.544007
0.507565
0.507568
0.50388
0.511036
0.504714
0.506378
0.510654
0.50857
0.506141
0.510442
0.540944
0.510423
0.554119
0.530735
0.507237
0.546531
0.557831
0.52271
0.506763
0.507594
0.544292
0.510712
0.530072
0.506275
0.511702
0.441021
0.506363
0.554421
0.506328
0.503272
0.506212
0.503726
0.519937
0.539415
0.512194
0.504642
0.502854
0.549451
0.54722
0.507637
0.546078
0.538658
0.511134
0.55008
0.51978
0.533095
0.513938
0.541054
0.503765
0.504829
0.503682
0.503517
0.539021
0.504065
0.505681
0.514001
0.510983
0.506346
0.50208
0.51247
0.526663
0.506473
0.504034
0.505555
0.52263
0.504741
0.507225
0.55143
0.556714
0.510061
0.511612
0.503533
0.511221
0.512685
0.516798
0.502965
0.510593
0.524036
0.512981
0.539328
0.507605
0.516223
0.506863
0.542797
0.534171
0.535597
0.507112
0.505575
0.548962
0.51143
0.52815
0.509756
0.515289
0.502247
0.519359
0.544175
0.506865
0.5013
0.535587
0.506679
0.502156
0.497686
0.508444
0.423639
0.537635
0.506325
0.507804
0.54111
0.541769
0.507956
0.507947
0.510245
0.538692
0.520249
0.504808
0.507306
0.539897
0.536205
0.508662
0.504054
0.54685
0.5516
0.507349
0.546458
0.506179
0.50804
0.545926
0.505217
0.51462
0.522481
0.554715
0.504377
0.524541
0.537563
0.50216
0.507068
0.509383
0.504614
0.549943
0.521962
0.513895
0.520942
0.543902
0.527533
0.517779
0.500552
0.504936
0.508535
0.502073
0.505583
0.529789
0.502797
0.509366
0.510937
0.534544
0.507436
0.514948
0.509675
0.54244
0.551658
0.503092
0.528138
0.505216
0.509137
0.538746
0.513812
0.504144
0.523635
0.511185
0.539993
0.503778
0.509018
0.55335
0.504802
0.506267
0.426415
0.542073
0.547274
0.524571
0.506648
0.509179
0.510556
0.506453
0.504698
0.508516
0.510149
0.544526
0.502318
0.551309
0.507204
0.520797
0.518131
0.503882
0.506921
0.532946
0.545902
0.550436
0.51961
0.503469
0.528671
0.504375
0.526015
0.502692
0.544318
0.507245
0.507481
0.504604
0.504542
0.50053
0.505952
0.520789
0.507239
0.507754
0.507651
0.537069
0.503413
0.539305
0.505821
0.5196
0.50962
0.539635
0.507875
0.548836
0.50382
0.521329
0.508952
0.510815
0.507251
0.536763
0.491534
0.542543
0.560915
0.545991
0.545006
0.540246
0.512405
0.553561
0.498108
0.514262
0.555503
0.50681
0.544083
0.520015
0.504796
0.519099
0.511346
0.502937
0.500718
0.508025
0.516134
0.503738
0.524288
0.519685
0.546004
0.460222
0.505681
0.507859
0.509906
0.505126
0.543999
0.505664
0.508128
0.504349
0.502652
0.503153
0.506801
0.504778
0.505265
0.511586
0.507381
0.508109
0.540436
0.505589
0.521315
0.510182
0.503971
0.50485
0.524146
0.508189
0.511941
0.509883
0.523319
0.547184
0.503885
0.514024
0.526597
0.548895
0.502802
0.543555
0.498305
0.51444
0.506766
0.51345
0.505412
0.512462
0.54686
0.507108
0.526751
0.516319
0.538027
0.502311
0.504527
0.509129
0.509825
0.506238
0.512859
0.526138
0.513452
0.548941
0.501792
0.511841
0.499803
0.539524
0.50461
0.504938
0.508819
0.529512
0.508176
0.502999
0.509835
0.545777
0.548831
0.506412
0.543825
0.528331
0.511637
0.50848
0.500714
0.546545
0.504033
0.503295
0.535885
0.541263
0.501646
0.537906
0.519554
0.540964
0.509477
0.530901
0.524369
0.505986
0.545986
0.507208
0.507547
0.504675
0.50817
0.502089
0.544152
0.501871
0.510846
0.523491
0.504067
0.50545
0.512849
0.502577
0.505534
0.510013
0.506894
0.509158
0.50352
0.520392
0.508223
0.505138
0.538556
0.503039
0.513111
0.502873
0.513421
0.512966
0.504446
0.507224
0.50329
0.512388
0.505767
0.510135
0.514004
0.542157
0.515523
0.504104
0.555326
0.517589
0.508826
0.52134
0.509326
0.504195
0.505111
0.501644
0.511209
0.509391
0.510121
0.510281
0.507972
0.523802
0.543469
0.505182
0.55096
0.510979
0.519775
0.509918
0.511505
0.504897
0.546197
0.507163
0.540198
0.507027
0.528955
0.50795
0.508369
0.503314
0.54244
0.504918
0.505891
0.516458
0.513138
0.516105
0.552065
0.50633
0.50797
0.507693
0.501526
0.502936
0.505192
0.523685
0.505588
0.535104
0.519743
0.504801
0.53962
0.534576
0.51097
0.503311
0.525
0.518401
0.516053
0.525278
0.506561
0.530658
0.506064
0.511716
0.556882
0.514741
0.500524
0.513263
0.517762
0.504419
0.503986
0.540052
0.540682
0.504675
0.506454
0.502173
0.532932
0.504301
0.505508
0.538586
0.507871
0.502916
0.503705
0.513095
0.502331
0.513066
0.503362
0.502486
0.519681
0.540336
0.509888
0.50636
0.533435
0.502741
0.549514
0.508688
0.515622
0.542983
0.511343
0.521822
0.505038
0.516974
0.510435
0.548915
0.54952
0.517849
0.540537
0.506596
0.503041
0.508308
0.504882
0.526419
0.507667
0.510757
0.522864
0.521655
0.50444
0.508793
0.51416
0.544154
0.510866
0.50793
0.501421
0.504976
0.552459
0.5412
0.509524
0.502981
0.529546
0.509263
0.519343
0.507011
0.509214
0.516221
0.506617
0.51763
0.542517
0.504136
0.517712
0.54156
0.528529
0.505656
0.524262
0.508066
0.509039
0.520322
0.544391
0.503977
0.541518
0.513736
0.516135
0.534879
0.512049
0.546523
0.509136
0.512611
0.511139
0.555492
0.541955
0.500501
0.507195
0.522125
0.502628
0.512125
0.505124
0.546419
0.542024
0.51406
0.513296
0.510714
0.50797
0.501699
0.512715
0.502629
0.513847
0.517327
0.502989
0.551664
0.511118
0.504939
0.506905
0.513013
0.510874
0.524306
0.503414
0.510372
0.549966
0.506228
0.533242
0.505874
0.520454
0.501156
0.545456
0.503752
0.507101
0.513258
0.506737
0.549633
0.50189
0.507117
0.50226
0.542719
0.505198
0.513402
0.498963
0.510844
0.5077
0.505425
0.507997
0.526213
0.512226
0.545587
0.546691
0.545718
0.533526
0.508938
0.54795
0.505938
0.505172
0.515844
0.511206
0.510445
0.509024
0.504022
0.509873
0.524175
0.506172
0.518299
0.528571
0.501711
0.505571
0.508693
0.504172
0.525179
0.511435
0.508601
0.502544
0.510147
0.507773
0.525338
0.507525
0.517679
0.513268
0.505974
0.507599
0.503257
0.50724
0.504609
0.519624
0.509716
0.510007
0.544081
0.553727
0.50456
0.530067
0.515912
0.524126
0.545185
0.513987
0.507209
0.538401
0.523606
0.506656
0.505171
0.505587
0.507481
0.542632
0.509048
0.519017
0.52135
0.510959
0.511248
0.552817
0.530151
0.530241
0.514713
0.509947
0.510909
0.510378
0.514207
0.507432
0.513948
0.531836
0.526746
0.55878
0.516975
0.510645
0.511975
0.512355
0.507713
0.543764
0.510527
0.522321
0.515977
0.512196
0.503507
0.547951
0.504723
0.544077
0.50574
0.512333
0.519041
0.510459
0.515926
0.511369
0.532654
0.511054
0.521346
0.518057
0.519473
0.547987
0.500576
0.507936
0.51394
0.502776
0.506902
0.54096
0.527274
0.515492
0.540463
0.503667
0.511683
0.504992
0.502422
0.504854
0.543096
0.54845
0.541287
0.507143
0.552225
0.502768
0.510283
0.538552
0.521698
0.505273
0.507349
0.529411
0.525843
0.508371
0.508821
0.510077
0.514432
0.534902
0.508829
0.512484
0.510077
0.515309
0.505644
0.510243
0.50632
0.515079
0.547784
0.550178
0.510921
0.524453
0.512808
0.555288
0.507832
0.514588
0.503456
0.545633
0.51714
0.506044
0.513461
0.527839
0.545568
0.508876
0.535107
0.514552
0.516721
0.503011
0.504377
0.508074
0.551953
0.547684
0.508524
0.521902
0.523631
0.51254
0.551119
0.496451
0.505129
0.528261
0.504059
0.502821
0.509455
0.504171
0.50837
0.510743
0.509593
0.549201
0.5205
0.505343
0.548079
0.510688
0.510807
0.533031
0.506575
0.468017
0.507777
0.50353
0.505256
0.550344
0.508727
0.510515
0.547729
0.520522
0.507177
0.526831
0.50955
0.541695
0.54144
0.510281
0.521588
0.503648
0.50627
0.503315
0.503688
0.507671
0.505624
0.505674
0.509518
0.537893
0.507342
0.518709
0.506704
0.515847
0.527433
0.523491
0.510031
0.547094
0.51256
0.508626
0.513295
0.561651
0.513105
0.553341
0.510107
0.555434
0.509643
0.509234
0.513997
0.507528
0.538301
0.541655
0.507336
0.51041
0.515653
0.509571
0.525572
0.500725
0.509574
0.50488
0.542621
0.530865
0.504548
0.504418
0.518689
0.515419
0.539877
0.509933
0.504933
0.506372
0.507937
0.510044
0.507525
0.505261
0.506452
0.542121
0.507221
0.510822
0.507302
0.512337
0.512532
0.5552
0.528877
0.506088
0.511394
0.508837
0.511212
0.50664
0.502222
0.509042
0.511048
0.503659
0.504972
0.524844
0.521873
0.504321
0.507495
0.507431
0.549842
0.512714
0.542455
0.505384
0.543825
0.541194
0.504056
0.54675
0.528955
0.509736
0.503931
0.504808
0.523938
0.510348
0.508407
0.541456
0.546315
0.528133
0.5281
0.505684
0.51178
0.514307
0.549348
0.51202
0.504979
0.504805
0.542766
0.541191
0.513444
0.511383
0.513869
0.527625
0.544317
0.521641
0.528161
0.505897
0.505304
0.547091
0.512205
0.509256
0.538499
0.55271
0.504559
0.528537
0.530413
0.501555
0.512078
0.501443
0.508535
0.503656
0.524897
0.507537
0.526386
0.503745
0.524885
0.508119
0.50873
0.505229
0.538349
0.500276
0.498947
0.514438
0.507626
0.512301
0.536064
0.447703
0.509963
0.52223
0.504688
0.520173
0.498695
0.544669
0.505192
0.508056
0.5503
0.511645
0.510668
0.553552
0.539844
0.508326
0.506511
0.506187
0.525206
0.541927
0.503289
0.510093
0.507721
0.512426
0.502187
0.545415
0.507046
0.508797
0.543958
0.541496
0.560396
0.532382
0.501431
0.524751
0.510852
0.506673
0.52213
0.520903
0.549449
0.551092
0.509307
0.509049
0.544078
0.509781
0.517125
0.546911
0.512354
0.520628
0.541467
0.516427
0.499885
0.543948
0.55418
0.50348
0.507972
0.533072
0.509716
0.528743
0.536003
0.543135
0.511924
0.539842
0.548792
0.510038
0.49955
0.511993
0.516546
0.507427
0.510857
0.504529
0.424457
0.514483
0.539781
0.501705
0.51126
0.505136
0.522959
0.505535
0.53553
0.505119
0.507674
0.517445
0.54701
0.542811
0.553931
0.523322
0.542994
0.516808
0.533627
0.520271
0.503666
0.511215
0.522706
0.50907
0.513203
0.510198
0.503191
0.548401
0.511002
0.504599
0.504052
0.506471
0.50632
0.533509
0.514852
0.5088
0.544488
0.516981
0.502954
0.504114
0.498687
0.510396
0.514695
0.551727
0.541347
0.507552
0.506073
0.514291
0.50219
0.525642
0.520463
0.536571
0.547691
0.547212
0.553129
0.505288
0.507698
0.501658
0.506205
0.521624
0.510498
0.56006
0.505657
0.511937
0.508435
0.504332
0.511386
0.504962
0.505775
0.508662
0.443024
0.522304
0.509828
0.507953
0.505726
0.509447
0.511177
0.505504
0.506468
0.52781
0.505013
0.512627
0.503172
0.504545
0.547914
0.50339
0.507893
0.511428
0.502389
0.538639
0.551848
0.507396
0.509118
0.527645
0.503213
0.502052
0.50175
0.499651
0.522438
0.511057
0.512767
0.508209
0.555256
0.556306
0.512009
0.518097
0.537793
0.504205
0.541952
0.51791
0.508726
0.514879
0.522366
0.500767
0.518664
0.512028
0.510047
0.514382
0.506887
0.523925
0.550986
0.506635
0.559004
0.561805
0.450465
0.536681
0.549206
0.516101
0.510122
0.540933
0.523379
0.557381
0.542259
0.504483
0.509613
0.546183
0.54935
0.502698
0.546965
0.509838
0.50882
0.520705
0.502657
0.541667
0.543085
0.514912
0.510296
0.540594
0.54205
0.520838
0.52679
0.509837
0.506429
0.54971
0.507864
0.547068
0.553728
0.524765
0.514784
0.528694
0.522076
0.524466
0.504583
0.550054
0.539225
0.508983
0.500209
0.506898
0.554484
0.555134
0.519591
0.50149
0.505109
0.51034
0.516554
0.503638
0.50443
0.537904
0.504212
0.525471
0.539767
0.554512
0.501094
0.506724
0.506482
0.506751
0.505618
0.544052
0.520506
0.55017
0.565435
0.518186
0.545605
0.527721
0.507731
0.471509
0.541373
0.504737
0.504514
0.504843
0.510443
0.570218
0.507955
0.540304
0.508708
0.547435
0.505932
0.553855
0.510212
0.519987
0.528543
0.52151
0.554056
0.527911
0.50543
0.505152
0.509887
0.507803
0.509005
0.546433
0.506697
0.442926
0.507412
0.509552
0.506741
0.514733
0.492544
0.510836
0.520199
0.523534
0.523254
0.506297
0.507596
0.522649
0.533213
0.511498
0.518245
0.505184
0.501825
0.507432
0.518077
0.516247
0.501252
0.509054
0.501691
0.508573
0.508412
0.513928
0.471547
0.504411
0.524599
0.509078
0.511407
0.500983
0.539776
0.53272
0.509211
0.498494
0.503164
0.497666
0.504617
0.509326
0.507737
0.537935
0.529653
0.504745
0.506982
0.506857
0.504276
0.529277
0.501928
0.547312
0.503325
0.521045
0.504445
0.518948
0.50918
0.504535
0.503626
0.540536
0.505767
0.503716
0.518335
0.535915
0.508887
0.503726
0.50586
0.506835
0.507036
0.511728
0.541349
0.502906
0.525221
0.510461
0.526605
0.52525
0.539601
0.54729
0.523583
0.506382
0.512016
0.534703
0.518476
0.543257
0.515579
0.510962
0.553034
0.538252
0.529566
0.512817
0.511662
0.520886
0.478416
0.519248
0.461315
0.532557
0.502412
0.504333
0.507636
0.488624
0.512622
0.55178
0.535305
0.511786
0.52964
0.523822
0.505954
0.506987
0.509212
0.49687
0.548759
0.495263
0.504931
0.52136
0.503792
0.499576
0.509613
0.493172
0.507301
0.525237
0.537655
0.509633
0.550785
0.553277
0.521345
0.512019
0.516731
0.514578
0.509944
0.514708
0.554731
0.522196
0.505829
0.511255
0.548396
0.524199
0.529244
0.502517
0.503707
0.522414
0.5088
0.509536
0.509667
0.543729
0.504553
0.54699
0.500912
0.50009
0.503916
0.500375
0.506954
0.500538
0.540465
0.499528
0.50284
0.532843
0.504935
0.508737
0.522977
0.50867
0.518488
0.504827
0.508357
0.500674
0.507928
0.505158
0.510747
0.503216
0.541058
0.503935
0.545335
0.537525
0.513976
0.509407
0.507988
0.508317
0.4909
0.505215
0.545017
0.51091
0.505445
0.510695
0.502874
0.543655
0.549415
0.507789
0.556334
0.502267
0.508194
0.554179
0.514576
0.511634
0.515889
0.54293
0.531586
0.549332
0.50931
0.550772
0.508246
0.502738
0.553729
0.511255
0.507763
0.504754
0.501111
0.530944
0.506135
0.509403
0.535191
0.511116
0.506184
0.515497
0.537036
0.498139
0.514433
0.506746
0.524478
0.502572
0.517925
0.521636
0.52673
0.520716
0.494466
0.503201
0.507232
0.534375
0.508473
0.50737
0.503246
0.511904
0.560477
0.500028
0.532517
0.503529
0.502715
0.504574
0.524717
0.511133
0.508456
0.512247
0.502874
0.51681
0.542579
0.537539
0.510023
0.50461
0.4739
0.524322
0.505158
0.53965
0.506996
0.548192
0.507233
0.506281
0.506875
0.543158
0.505258
0.541619
0.510386
0.515058
0.528801
0.514268
0.534544
0.524423
0.511659
0.542537
0.526325
0.504506
0.557403
0.514149
0.506786
0.555704
0.525507
0.49514
0.516724
0.511712
0.507116
0.508731
0.498106
0.524593
0.546557
0.550748
0.427088
0.504748
0.492525
0.504437
0.506475
0.537546
0.536615
0.505387
0.512519
0.548015
0.508035
0.503181
0.526396
0.499679
0.505736
0.500554
0.538198
0.518125
0.508941
0.558926
0.498273
0.493136
0.505121
0.503129
0.505875
0.509757
0.546596
0.508665
0.517832
0.505254
0.502754
0.487876
0.498482
0.506094
0.516657
0.502278
0.507963
0.501846
0.541345
0.517988
0.504523
0.490055
0.507791
0.510291
0.516903
0.508488
0.543452
0.506023
0.539819
0.511114
0.509318
0.517568
0.513563
0.519554
0.517224
0.508214
0.517537
0.495724
0.481349
0.505598
0.548471
0.508105
0.505965
0.530389
0.502652
0.50156
0.500767
0.506785
0.547064
0.505161
0.5038
0.50487
0.515574
0.511581
0.549749
0.539994
0.500131
0.542623
0.504682
0.507846
0.536413
0.516981
0.502164
0.525282
0.530536
0.529633
0.522983
0.513758
0.498885
0.523621
0.505301
0.49189
0.508035
0.547132
0.505623
0.507932
0.499134
0.540724
0.529735
0.513592
0.420338
0.534728
0.505584
0.510752
0.507076
0.48857
0.505151
0.509228
0.519801
0.505297
0.518143
0.517562
0.513776
0.501849
0.502863
0.504683
0.498672
0.499709
0.533979
0.545138
0.513558
0.446572
0.513482
0.502825
0.502826
0.499653
0.506733
0.494902
0.512325
0.499605
0.537887
0.51096
0.519555
0.50142
0.501459
0.497881
0.509663
0.514608
0.519098
0.505919
0.514136
0.513016
0.509836
0.516971
0.527982
0.527523
0.540174
0.520996
0.509972
0.541667
0.506316
0.506564
0.50209
0.502831
0.506812
0.503161
0.495897
0.48633
0.511465
0.506143
0.500644
0.517681
0.55076
0.503185
0.521317
0.506264
0.50997
0.507606
0.504538
0.512372
0.550784
0.525476
0.544772
0.508555
0.511434
0.538869
0.510283
0.51197
0.522923
0.51199
0.528607
0.538131
0.503302
0.535715
0.538316
0.44218
0.453141
0.500512
0.532773
0.508866
0.505451
0.531502
0.506052
0.5011
0.492786
0.503844
0.544951
0.504249
0.434911
0.501244
0.529987
0.534936
0.499961
0.546237
0.526315
0.51848
0.504524
0.498606
0.499029
0.520487
0.508658
0.472559
0.51405
0.510987
0.504918
0.514379
0.537134
0.493317
0.506485
0.504365
0.436068
0.538802
0.50289
0.544481
0.540371
0.505741
0.506783
0.524065
0.520645
0.511413
0.499676
0.513841
0.449556
0.552237
0.503252
0.547182
0.509946
0.538341
0.511109
0.503779
0.504975
0.53814
0.521627
0.50627
0.506591
0.51464
0.501438
0.510793
0.508971
0.50647
0.536979
0.510442
0.527652
0.49084
0.496573
0.500455
0.511448
0.500959
0.517565
0.518935
0.541881
0.499469
0.499236
0.553275
0.505081
0.507774
0.512901
0.54144
0.509052
0.520657
0.519344
0.439554
0.523909
0.506382
0.563152
0.508544
0.554102
0.539612
0.51378
0.506954
0.550811
0.50924
0.506003
0.445511
0.551888
0.500106
0.504295
0.563553
0.509504
0.56226
0.558209
0.509295
0.507513
0.516804
0.496175
0.507627
0.504901
0.522383
0.488175
0.521479
0.512365
0.514324
0.496749
0.537214
0.47862
0.521066
0.523088
0.504573
0.497916
0.513534
0.509319
0.511044
0.499832
0.506012
0.514633
0.513782
0.503482
0.50935
0.503655
0.500077
0.508554
0.510629
0.473746
0.475209
0.498922
0.516777
0.526161
0.489017
0.493864
0.526824
0.510651
0.476278
0.539582
0.533771
0.499032
0.486012
0.510517
0.507168
0.507387
0.53612
0.510357
0.520083
0.533527
0.519909
0.54545
0.497485
0.506546
0.505863
0.502999
0.542514
0.514039
0.505709
0.506647
0.50558
0.426266
0.508633
0.511508
0.508756
0.491153
0.503842
0.4328
0.501632
0.50132
0.527836
0.553148
0.527568
0.497565
0.501452
0.532085
0.533706
0.505237
0.507558
0.507209
0.531076
0.556388
0.528397
0.528445
0.507859
0.510301
0.514863
0.507719
0.502453
0.458217
0.506316
0.503181
0.510945
0.522899
0.505557
0.485721
0.538312
0.522268
0.509458
0.462524
0.463229
0.508358
0.514518
0.499264
0.551304
0.506503
0.50031
0.49391
0.492231
0.492978
0.503679
0.508085
0.503833
0.504551
0.515979
0.497139
0.50391
0.505449
0.50813
0.497227
0.49764
0.538044
0.526951
0.54887
0.517026
0.480631
0.51474
0.539139
0.50979
0.525503
0.531382
0.5165
0.502198
0.506054
0.493033
0.506427
0.511703
0.49852
0.541113
0.501974
0.534635
0.510231
0.493704
0.509684
0.50636
0.500922
0.492196
0.529534
0.532627
0.521781
0.525926
0.514839
0.441853
0.506478
0.517872
0.49888
0.513904
0.524827
0.524896
0.444849
0.506402
0.508642
0.499249
0.5391
0.528945
0.497498
0.500533
0.535641
0.426762
0.499313
0.545925
0.503854
0.509658
0.507017
0.547289
0.5044
0.535784
0.529773
0.53832
0.498223
0.507931
0.515537
0.508648
0.509621
0.509773
0.544091
0.55674
0.510482
0.511515
0.51083
0.498209
0.539086
0.497567
0.524437
0.463871
0.509205
0.52421
0.532055
0.513605
0.500174
0.534148
0.534696
0.488394
0.490818
0.502894
0.520232
0.53218
0.542111
0.502889
0.51241
0.479276
0.498202
0.516285
0.506136
0.496956
0.477126
0.489795
0.5001
0.523252
0.508973
0.496556
0.500723
0.519659
0.464523
0.486475
0.491704
0.463966
0.496124
0.497375
0.518062
0.492923
0.502607
0.464188
0.481135
0.541426
0.504838
0.476959
0.526615
0.513448
0.48536
0.506156
0.4697
0.54046
0.540597
0.505779
0.437278
0.509169
0.54781
0.514429
0.506244
0.538351
0.507448
0.485716
0.551937
0.514293
0.503433
0.50649
0.506677
0.501358
0.49947
0.498997
0.499875
0.501176
0.508056
0.49203
0.500953
0.500141
0.490961
0.50124
0.5076
0.515048
0.482177
0.501315
0.506323
0.511597
0.521547
0.515646
0.546055
0.497558
0.513825
0.50592
0.506149
0.487546
0.509027
0.545111
0.512205
0.523931
0.530327
0.472467
0.538408
0.483395
0.509994
0.507957
0.505454
0.485313
0.541187
0.506561
0.486688
0.534626
0.496911
0.495211
0.446802
0.487391
0.522011
0.52647
0.486176
0.470157
0.478061
0.53718
0.502324
0.476801
0.502398
0.540968
0.516423
0.481888
0.50001
0.474096
0.507928
0.494033
0.513165
0.512958
0.489161
0.481269
0.523692
0.532124
0.505907
0.521622
0.549266
0.45491
0.503677
0.533725
0.519119
0.540441
0.504652
0.496699
0.503809
0.430711
0.505462
0.509699
0.507256
0.499159
0.503423
0.504754
0.495492
0.520111
0.511748
0.503602
0.509518
0.521985
0.521649
0.513527
0.457564
0.528318
0.465707
0.490561
0.502284
0.477104
0.506858
0.515446
0.510091
0.511506
0.500063
0.474507
0.476877
0.428487
0.508954
0.495121
0.521726
0.519177
0.543993
0.495514
0.508232
0.487656
0.481697
0.484909
0.477478
0.503878
0.516428
0.504625
0.505408
0.483043
0.543569
0.529687
0.542545
0.464801
0.500433
0.434617
0.422797
0.516315
0.46305
0.54777
0.507475
0.545581
0.536366
0.481233
0.533708
0.528607
0.478609
0.452601
0.503415
0.545076
0.501242
0.511963
0.497225
0.500506
0.496339
0.477633
0.47596
0.539669
0.521939
0.5045
0.518145
0.500953
0.517322
0.491386
0.515822
0.507521
0.514715
0.494393
0.422654
0.418554
0.473971
0.50291
0.493375
0.508623
0.468973
0.544867
0.505649
0.518236
0.479471
0.548956
0.490729
0.483936
0.519648
0.551698
0.47307
0.509766
0.430935
0.473926
0.442252
0.502966
0.539603
0.528119
0.494792
0.528415
0.47424
0.533701
0.439549
0.504898
0.512576
0.508045
0.462332
0.554454
0.469065
0.503082
0.463087
0.486099
0.508645
0.484554
0.555883
0.487407
0.511153
0.492316
0.501694
0.508943
0.476581
0.526317
0.543685
0.49227
0.54591
0.445422
0.54446
0.527519
0.4832
0.501508
0.505518
0.510296
0.466908
0.534926
0.501438
0.462449
0.49854
0.5353
0.475043
0.504544
0.446503
0.501296
0.514472
0.505369
0.485062
0.502872
0.504653
0.537086
0.504434
0.510027
0.530279
0.43509
0.48598
0.493679
0.522159
0.513655
0.454444
0.502192
0.477054
0.475163
0.439876
0.418647
0.42521
0.514283
0.501254
0.513669
0.498069
0.522806
0.514002
0.508148
0.49567
0.449118
0.490248
0.506788
0.493752
0.504865
0.48689
0.545234
0.489056
0.505524
0.507235
0.482055
0.495508
0.502821
0.514835
0.478462
0.511459
0.483905
0.483169
0.478113
0.534881
0.461603
0.485247
0.468409
0.495502
0.464018
0.46156
0.485371
0.532722
0.461689
0.547906
0.521505
0.526249
0.443465
0.508045
0.491965
0.468639
0.490089
0.513398
0.506075
0.423214
0.497595
0.461366
0.506962
0.52585
0.513327
0.471287
0.511963
0.505383
0.498799
0.46535
0.471668
0.504788
0.497529
0.442398
0.437531
0.505788
0.44758
0.450215
0.478632
0.473692
0.505794
0.466168
0.461692
0.467645
0.500779
0.479064
0.459648
0.435659
0.498454
0.467103
0.525266
0.522927
0.50708
0.511073
0.481238
0.460879
0.471163
0.43253
0.432199
0.508006
0.518587
0.4858
0.511375
0.499141
0.50129
0.493961
0.443811
0.470786
0.541026
0.495059
0.524485
0.451266
0.513368
0.506063
0.53608
0.536761
0.488489
0.462909
0.46667
0.495845
0.498678
0.510803
0.507842
0.466095
0.457287
0.551267
0.462629
0.428526
0.454146
0.492247
0.470689
0.490164
0.463821
0.486202
0.489287
0.433203
0.530595
0.524057
0.473136
0.502695
0.469896
0.480487
0.505413
0.466767
0.541596
0.478177
0.485914
0.517604
0.463754
0.466997
0.508585
0.489716
0.465167
0.503805
0.511938
0.489196
0.500944
0.469532
0.487476
0.454835
0.477709
0.502163
0.484071
0.479586
0.49515
0.498872
0.454937
0.449364
0.442936
0.50614
0.52037
0.442226
0.498404
0.521651
0.485775
0.487276
0.534021
0.444755
0.476457
0.458094
0.458378
0.511226
0.502744
0.527157
0.520049
0.485143
0.484541
0.485505
0.491754
0.455084
0.454583
0.481155
0.443546
0.540633
0.474423
0.490304
0.462131
0.480228
0.528705
0.462604
0.444066
0.4694
0.45308
0.505198
0.501704
0.472546
0.436618
0.463861
0.447575
0.508092
0.51723
0.519273
0.510584
0.48579
0.510353
0.50643
0.538442
0.493704
0.508278
0.461535
0.504066
0.485175
0.471258
0.433695
0.537905
0.471876
0.503185
0.463326
0.501688
0.417036
0.435402
0.45205
0.498956
0.461041
0.454488
0.486608
0.492911
0.511637
0.469269
0.494766
0.519454
0.506856
0.505384
0.422483
0.468243
0.511583
0.4548
0.495135
0.460816
0.43964
0.490133
0.466421
0.475809
0.469558
0.463536
0.450615
0.449744
0.51445
0.507794
0.506214
0.482933
0.459864
0.465333
0.460429
0.492108
0.472024
0.503862
0.453738
0.487454
0.441173
0.508327
0.456219
0.453842
0.513368
0.505654
0.471059
0.48828
0.421645
0.453794
0.471768
0.440578
0.476619
0.497883
0.518265
0.503658
0.515863
0.489666
0.47802
0.467656
0.453521
0.46886
0.470422
0.534344
0.470394
0.49226
0.489832
0.455157
0.470496
0.528749
0.523741
0.540782
0.512987
0.419127
0.4475
0.545061
0.493868
0.461334
0.508991
0.532179
0.537202
0.475917
0.465075
0.489424
0.433318
0.420531
0.496192
0.428614
0.493921
0.462143
0.444016
0.469445
0.464601
0.491441
0.51284
0.435788
0.433498
0.478753
0.448571
0.469671
0.4409
0.457816
0.465461
0.497248
0.449665
0.485843
0.515097
0.488581
0.477862
0.453588
0.48711
0.478896
0.482251
0.446538
0.469077
0.488732
0.499297
0.468879
0.516593
0.458578
0.503193
0.426984
0.458051
0.446561
0.517236
0.48665
0.506373
0.530882
0.478346
0.493878
0.507981
0.483434
0.488974
0.447784
0.461009
0.492165
0.462726
0.500855
0.48076
0.431393
0.477371
0.459532
0.450371
0.423758
0.466261
0.46776
0.510617
0.43854
0.485538
0.497266
0.429761
0.448713
0.508016
0.449485
0.473511
0.465828
0.475303
0.421396
0.437486
0.464402
0.455325
0.470133
0.458244
0.46812
0.436196
0.490775
0.490085
0.459604
0.445657
0.47598
0.506394
0.469332
0.480549
0.506545
0.424236
0.433318
0.474197
0.419763
0.526728
0.48896
0.452082
0.473081
0.480108
0.438678
0.51962
0.505968
0.426186
0.510392
0.495229
0.472764
0.440524
0.450402
0.441166
0.463695
0.501246
0.525776
0.442832
0.461506
0.472582
0.445446
0.535531
0.454782
0.440573
0.42617
0.456495
0.457047
0.461417
0.473325
0.477903
0.479843
0.451266
0.45368
0.439371
0.513076
0.45437
0.418274
0.454236
0.453159
0.437221
0.49121
0.456146
0.500786
0.479847
0.485346
0.513203
0.4787
0.483036
0.471874
0.475541
0.524444
0.47982
0.450164
0.43529
0.484873
0.431349
0.417123
0.432707
0.491267
0.426341
0.424991
0.472967
0.493146
0.487016
0.495861
0.438947
0.427857
0.459168
0.463191
0.445469
0.503216
0.447598
0.505949
0.425103
0.419069
0.448053
0.441049
0.507304
0.461283
0.487163
0.47492
0.463243
0.459553
0.452518
0.495027
0.444331
0.451736
0.501707
0.444498
0.498619
0.422535
0.425374
0.467222
0.45241
0.457146
0.447498
0.472309
0.494707
0.524441
0.537586
0.513669
0.425011
0.424691
0.453439
0.464866
0.425041
0.422218
0.43698
0.431682
0.485105
0.506657
0.465931
0.477465
0.502956
0.42307
0.459521
0.458808
0.475613
0.493392
0.434054
0.470318
0.471901
0.4948
0.510838
0.450261
0.449547
0.499232
0.524896
0.496248
0.43486
0.502607
0.491939