/*--------------------------------*- C++ -*----------------------------------*\
| =========                 |                                                 |
| \\      /  F ield         | OpenFOAM: The Open Source CFD Toolbox           |
|  \\    /   O peration     | Version:  2212                                  |
|   \\  /    A nd           | Website:  www.openfoam.com                      |
|    \\/     M anipulation  |                                                 |
\*---------------------------------------------------------------------------*/
FoamFile
{
    version     2.0;
    format      ascii;
    arch        "LSB;label=32;scalar=64";
    class       volScalarField;
    location    "0.04";
    object      k;
}
// * * * * * * * * * * * * * * * * * * * * * * * * * * * * * * * * * * * * * //

dimensions      [0 2 -2 0 0 0 0];

internalField   nonuniform List<scalar> 
31639
(
0.0159267
0.0155723
0.0158003
0.0163563
0.0157797
0.015452
0.0155551
0.0160545
0.0158992
0.0161214
0.016127
0.0160907
0.0156857
0.0162088
0.0153554
0.0153243
0.0160099
0.0155892
0.0151904
0.015665
0.0144789
0.0162219
0.0162432
0.0152622
0.0151618
0.0158171
0.0156191
0.0133185
0.0155257
0.0163187
0.0161343
0.0154428
0.0162187
0.015187
0.0148347
0.0162802
0.0141603
0.0164644
0.0161914
0.0140362
0.0147429
0.0147475
0.0160189
0.0161805
0.0161893
0.0161446
0.0154079
0.0155711
0.0159849
0.0163057
0.0161044
0.0141286
0.0163877
0.0144501
0.0154364
0.0159115
0.0145675
0.0156886
0.0155384
0.0145472
0.0157712
0.0161597
0.0152314
0.015577
0.0158892
0.016309
0.0157074
0.0156686
0.0150382
0.0162828
0.0162053
0.0150224
0.0159751
0.0156657
0.0162862
0.0148393
0.0160809
0.0155855
0.0153866
0.0160902
0.0151761
0.013977
0.0162012
0.0158348
0.0157857
0.016087
0.0162649
0.0161872
0.014905
0.0163559
0.0157616
0.0158173
0.0146325
0.0154661
0.0149593
0.0154564
0.0155907
0.0156495
0.0157329
0.0146008
0.0163206
0.0161043
0.0154123
0.0144354
0.0145668
0.0161863
0.0144308
0.0142979
0.0150274
0.0144552
0.0158862
0.0146357
0.0155243
0.0153998
0.0156468
0.0144083
0.0156678
0.015685
0.0161222
0.0155458
0.0160985
0.0160789
0.0159951
0.0158802
0.0158186
0.0162405
0.0156559
0.015094
0.0149186
0.0159951
0.0161006
0.0160019
0.0160793
0.0155195
0.0160836
0.015663
0.0145554
0.0143438
0.0160395
0.0156605
0.0156349
0.0161109
0.0161375
0.0143506
0.0141676
0.0162395
0.0160661
0.0147181
0.0146244
0.0161261
0.0151745
0.0159046
0.015236
0.0160217
0.0149021
0.0163031
0.015733
0.0149968
0.0148378
0.0152526
0.0161636
0.0150026
0.0151762
0.0145063
0.0147451
0.0154709
0.01486
0.0163109
0.016071
0.0143595
0.0151297
0.0152668
0.0148035
0.0156696
0.0163446
0.0160479
0.0157581
0.0163395
0.015714
0.0156062
0.015423
0.0155601
0.0152253
0.0141497
0.0158922
0.0163937
0.015411
0.0162763
0.0147288
0.0146102
0.0166278
0.0161199
0.0159849
0.0155481
0.0156585
0.0155147
0.0155116
0.0159807
0.0144784
0.0154825
0.0162215
0.0163836
0.0158504
0.0158679
0.0158009
0.0155981
0.0154569
0.0152826
0.0161315
0.01419
0.0155742
0.015563
0.0158962
0.0161368
0.016128
0.0161804
0.0148273
0.0152779
0.016178
0.0160831
0.0158782
0.0156454
0.0144832
0.0156618
0.014526
0.015697
0.0160693
0.0153021
0.0147612
0.0160235
0.0158878
0.016402
0.0149019
0.0146674
0.0159471
0.0159975
0.0145182
0.0162012
0.0152239
0.0144293
0.0154244
0.0159056
0.0155895
0.0153807
0.0153216
0.0160631
0.0153701
0.0152806
0.0147169
0.0155375
0.0152875
0.0148858
0.0153925
0.0163225
0.0161503
0.0154415
0.0148596
0.0159612
0.0159439
0.0158445
0.016332
0.0161462
0.0158978
0.0161761
0.0154052
0.0156474
0.0142985
0.0151984
0.0160614
0.0152775
0.0157228
0.0153865
0.0158238
0.0164942
0.0163366
0.0158334
0.0146101
0.0155994
0.0151183
0.016133
0.0156618
0.0162699
0.0163447
0.015493
0.0147112
0.0152208
0.0148786
0.014594
0.0160727
0.014966
0.016268
0.0154478
0.0153125
0.0148842
0.0164608
0.0154527
0.0155601
0.0162142
0.0158788
0.0152805
0.0155519
0.0149459
0.0156254
0.0154269
0.0148056
0.0154791
0.0153299
0.0138802
0.0143125
0.0160875
0.0162496
0.0157747
0.0144937
0.0149735
0.01597
0.0149606
0.0148782
0.0162522
0.016415
0.0153843
0.0161422
0.01628
0.0148085
0.0161762
0.0144169
0.0145045
0.0162259
0.0160727
0.0161145
0.0163058
0.0160604
0.0148868
0.015502
0.0154591
0.0162186
0.0164224
0.0164085
0.0154777
0.0152377
0.0159574
0.015969
0.015859
0.0153187
0.0155968
0.0153693
0.0156686
0.0159567
0.0153408
0.0148021
0.0159884
0.0164126
0.0154599
0.0163058
0.0161774
0.0155461
0.0148154
0.0155132
0.0155197
0.014479
0.0164329
0.0149543
0.0158921
0.0160198
0.0143414
0.0156073
0.0155605
0.0145811
0.0157923
0.0148811
0.0156718
0.0163598
0.0160267
0.014299
0.0158578
0.0148854
0.0158757
0.0161303
0.0162452
0.0162254
0.0149754
0.0159748
0.0144607
0.0153958
0.0144562
0.0162247
0.0160073
0.0161526
0.0160769
0.0150167
0.016422
0.0155612
0.0159472
0.0155041
0.0151668
0.0156445
0.0159644
0.0158154
0.0159679
0.0158334
0.0160628
0.0155957
0.0148208
0.01573
0.0159865
0.0159182
0.0143272
0.0162079
0.0160928
0.0155675
0.0157513
0.0158791
0.0158566
0.0162357
0.0143771
0.0158954
0.0162013
0.0143425
0.0157497
0.0158527
0.0149047
0.0145597
0.0145914
0.0154659
0.0146156
0.0155442
0.0153281
0.0154226
0.0163649
0.0147219
0.0160454
0.0162332
0.015593
0.0160551
0.0154744
0.0162147
0.0156113
0.015898
0.0163046
0.0155348
0.0146484
0.0156334
0.0162541
0.016109
0.0160218
0.0162835
0.0153619
0.0158729
0.0160979
0.0163594
0.0163266
0.0148238
0.0155146
0.0141032
0.0157764
0.0154431
0.0147677
0.0146019
0.0154624
0.0160086
0.0161218
0.014606
0.0160114
0.0153531
0.015514
0.0160924
0.0127009
0.0154502
0.0144858
0.015332
0.0161124
0.0163861
0.0159728
0.0157001
0.0142411
0.0160103
0.0156003
0.0159303
0.0145404
0.0148168
0.0155169
0.0146773
0.0148558
0.0158406
0.0144959
0.015467
0.0143814
0.0160275
0.0147055
0.0162837
0.016079
0.0160574
0.016172
0.0153031
0.016056
0.016185
0.0158053
0.0161385
0.0156334
0.0160346
0.0164846
0.0153963
0.016189
0.0162508
0.0155181
0.0150968
0.0163162
0.0156205
0.0142368
0.0144639
0.0156528
0.0163039
0.0162402
0.0155421
0.0165509
0.0165601
0.0159437
0.0157389
0.0155919
0.0155395
0.0148793
0.0155331
0.0159636
0.0163141
0.0152161
0.015015
0.0149772
0.0152659
0.0154746
0.0141453
0.0160127
0.0153334
0.0159495
0.0156754
0.0160627
0.0157099
0.0148424
0.0158283
0.0161755
0.0150617
0.0160972
0.016305
0.0153857
0.0155033
0.013334
0.0150504
0.0155355
0.0156291
0.0148766
0.0147832
0.0156618
0.0148227
0.0159776
0.0152385
0.0155984
0.0161541
0.0155737
0.0144592
0.0154002
0.015671
0.0162183
0.0146831
0.0140529
0.0161442
0.0145496
0.0157295
0.0164257
0.014719
0.0155639
0.0163076
0.0157952
0.0146747
0.0161278
0.0157991
0.0145674
0.0160396
0.0157274
0.0154477
0.0159574
0.0143015
0.0152121
0.0157452
0.0154812
0.0155982
0.0158761
0.0164705
0.0160882
0.0159083
0.0162318
0.0161262
0.016026
0.0151681
0.0159655
0.0162903
0.0165108
0.0150377
0.0156607
0.0158187
0.0166473
0.0148987
0.014262
0.016249
0.0149179
0.0164385
0.0153553
0.0147646
0.0157555
0.0161347
0.015903
0.0159245
0.0143549
0.016006
0.0157286
0.0144152
0.0162459
0.0160989
0.013169
0.0147717
0.0150542
0.0154931
0.0157121
0.0156889
0.0155695
0.015617
0.0161067
0.015628
0.0155829
0.0148384
0.0163012
0.0145351
0.0155814
0.0156125
0.0153276
0.0163687
0.0155728
0.0151089
0.014469
0.0148235
0.0155776
0.0161721
0.0148967
0.0163324
0.0157998
0.0160528
0.0147802
0.0153458
0.0160122
0.016354
0.0161963
0.0159532
0.0156487
0.015733
0.0163568
0.0163494
0.0162347
0.0151805
0.0161214
0.0147691
0.0162513
0.016157
0.0155245
0.01494
0.0153966
0.0139901
0.0161892
0.0158795
0.016454
0.0155389
0.0151821
0.0146478
0.0159423
0.0144718
0.0142706
0.0149588
0.0153142
0.0147697
0.0155965
0.0146501
0.0158938
0.0159328
0.0142206
0.0163422
0.0148804
0.0151083
0.0153161
0.0153071
0.0160514
0.0162164
0.0163288
0.0162062
0.0156085
0.0156479
0.0155102
0.0154907
0.0144811
0.0116969
0.016271
0.0154665
0.0160491
0.0161172
0.0146337
0.016189
0.0162793
0.0159909
0.0160206
0.0159527
0.015765
0.0163014
0.0163732
0.0157076
0.0161505
0.0161539
0.014946
0.0161509
0.0153446
0.0159861
0.0151829
0.0154895
0.0151853
0.0164371
0.0154616
0.0156884
0.0156907
0.0149481
0.0163219
0.015831
0.015438
0.0148476
0.0159473
0.0143615
0.0160617
0.0160853
0.0152055
0.0163634
0.0164124
0.0163211
0.0145946
0.0156446
0.0157557
0.0157885
0.0148915
0.0160161
0.0161305
0.0152501
0.0156322
0.0151965
0.016016
0.0154518
0.0155502
0.0143874
0.0159872
0.015881
0.0160418
0.0153349
0.0155603
0.0157683
0.0155832
0.0153374
0.0158699
0.0160185
0.0154624
0.0143699
0.0143944
0.0154617
0.0141372
0.0146199
0.0157999
0.0157769
0.0160414
0.014325
0.0154222
0.0162163
0.01496
0.0144816
0.0156481
0.0148634
0.0160849
0.0151068
0.0162385
0.0152178
0.0153576
0.0163248
0.0143772
0.0153267
0.0154121
0.0160805
0.0162845
0.0161731
0.0149625
0.0159001
0.0162749
0.0153519
0.0162955
0.0160854
0.0159594
0.0161155
0.0156407
0.0164588
0.0164125
0.016427
0.0158953
0.0153672
0.0157902
0.0155586
0.0144991
0.0153336
0.0160211
0.0161177
0.0163996
0.0155457
0.0163014
0.0161342
0.0152233
0.0161702
0.016131
0.0159873
0.016148
0.0147171
0.015402
0.0160607
0.0142893
0.0157107
0.015498
0.0156419
0.0154399
0.0163116
0.0159778
0.0160722
0.0155248
0.0160041
0.015722
0.0162424
0.0157333
0.0155623
0.014851
0.016152
0.0150288
0.0153937
0.0156684
0.0153406
0.0158193
0.0163051
0.0147816
0.0162845
0.0148054
0.0157679
0.0155906
0.0154079
0.0155246
0.016244
0.0146369
0.0159612
0.0161636
0.0163611
0.0157967
0.0157821
0.0141521
0.0161666
0.0161228
0.0159034
0.0159605
0.0161041
0.0156583
0.0160373
0.0156463
0.0149129
0.0156201
0.016285
0.0143534
0.015014
0.016623
0.0160686
0.0152572
0.0154783
0.0158268
0.015244
0.0154806
0.0150047
0.0160814
0.0163405
0.0142746
0.0158092
0.0161525
0.0161742
0.0165245
0.0153711
0.0161145
0.0149732
0.014924
0.0162819
0.016138
0.015504
0.0148969
0.0160304
0.016123
0.0152352
0.0162699
0.01614
0.0161852
0.0159733
0.0160662
0.0157856
0.0157219
0.0154031
0.0152752
0.0145455
0.0157809
0.0156794
0.0148706
0.01618
0.0145249
0.0153523
0.0156029
0.0148243
0.0155115
0.01537
0.0158555
0.0157772
0.0161362
0.0147841
0.0148204
0.0155032
0.0146402
0.0151986
0.0161093
0.0154768
0.016175
0.0158725
0.0155154
0.0163001
0.0154156
0.0158477
0.0154737
0.0155039
0.015904
0.015045
0.0156953
0.0160728
0.0162009
0.0163782
0.0148292
0.0145892
0.0156113
0.0161403
0.0149499
0.0153574
0.0160539
0.0155472
0.0166021
0.0155727
0.0153704
0.0161423
0.01469
0.0161432
0.0164542
0.0148826
0.0152511
0.0154951
0.0154216
0.016349
0.0162956
0.0160483
0.0150273
0.0160705
0.0146671
0.0154796
0.0162789
0.0154507
0.0165667
0.0144031
0.0156084
0.0159334
0.0157094
0.0145653
0.0145199
0.0160846
0.0163042
0.0154425
0.0162567
0.0159178
0.0155125
0.0147505
0.0151984
0.0158964
0.0156331
0.0156073
0.0163799
0.0161662
0.016557
0.0162495
0.0159003
0.0159215
0.0159639
0.0149516
0.0161951
0.0159247
0.0157141
0.0158481
0.016343
0.0156567
0.0162625
0.0154725
0.0142261
0.0163977
0.0153305
0.0161802
0.0153527
0.0160939
0.014981
0.0159249
0.0165375
0.0156095
0.0156096
0.0146017
0.0160143
0.0162208
0.015809
0.0146629
0.0165948
0.0156449
0.0157501
0.0162771
0.0162109
0.0160526
0.0155172
0.0157865
0.0165268
0.0149629
0.0150803
0.0148925
0.0151575
0.0157959
0.0145737
0.0163165
0.0161741
0.0165247
0.0154651
0.0155187
0.0156755
0.0161358
0.0156837
0.0158818
0.0162316
0.016406
0.0158105
0.0161158
0.0156826
0.0153996
0.0159028
0.0153873
0.0164176
0.0163263
0.0163407
0.0164569
0.0162069
0.015274
0.0165006
0.0158411
0.0158207
0.015386
0.0158205
0.0163347
0.0155889
0.0160687
0.0154617
0.0156209
0.0159886
0.0150747
0.0146812
0.0154366
0.0156423
0.0164325
0.0153356
0.0145409
0.0158648
0.0161407
0.0152211
0.0153536
0.0156649
0.0163227
0.0162142
0.0153975
0.0153616
0.0156413
0.0162195
0.0154231
0.0157191
0.0157181
0.0145856
0.0154969
0.0155048
0.0160507
0.0161932
0.0156623
0.0162904
0.0160844
0.0155895
0.0158026
0.0147496
0.015031
0.0146065
0.0163508
0.0158378
0.0164292
0.0168285
0.0160165
0.0145771
0.0161397
0.0154716
0.0160179
0.0159524
0.0160611
0.0146345
0.0163469
0.0148377
0.0156599
0.0157676
0.0157044
0.0165818
0.0155654
0.0160611
0.0149335
0.0155248
0.0157805
0.0162893
0.0151786
0.0152592
0.0159295
0.0161589
0.0159978
0.0159412
0.0163036
0.0148681
0.0157542
0.0155377
0.0152569
0.0160493
0.0164287
0.0163341
0.0161078
0.0164177
0.0149256
0.0148683
0.0149334
0.0163747
0.0146716
0.0160439
0.0159036
0.0147787
0.0154229
0.0160804
0.0162503
0.01523
0.0153959
0.0153314
0.0157286
0.0163712
0.015752
0.0148082
0.0156892
0.0164925
0.0162264
0.0165417
0.0163072
0.0167114
0.0163564
0.0162557
0.0150768
0.0146551
0.0157299
0.0152447
0.0163733
0.0148655
0.0158158
0.015602
0.0163449
0.0150937
0.0160873
0.0160514
0.0159039
0.0155953
0.0148368
0.0161927
0.0154664
0.0165134
0.0157388
0.0164754
0.0163448
0.0157123
0.0146557
0.0147952
0.0155026
0.0160165
0.0153028
0.0166455
0.0149705
0.0161228
0.0159991
0.0154871
0.0158941
0.0161036
0.0163176
0.0162815
0.0163462
0.0157997
0.0159133
0.0146045
0.015317
0.0163282
0.0150815
0.0160076
0.0155114
0.0148922
0.0155598
0.0152808
0.0155399
0.015941
0.0161176
0.0149625
0.0154893
0.0157462
0.0148626
0.0153212
0.0155211
0.0157001
0.0160207
0.014881
0.0148325
0.0155874
0.015495
0.0163203
0.0165035
0.0162689
0.015285
0.0154127
0.015725
0.0152331
0.0162412
0.0148026
0.0156496
0.0156571
0.0163971
0.0161593
0.0157609
0.0158958
0.0162672
0.0148698
0.0157918
0.0163574
0.0153497
0.0139354
0.0156848
0.0149504
0.0158467
0.0144977
0.0163615
0.016467
0.0163648
0.0157594
0.0148441
0.0147396
0.0161686
0.016406
0.016376
0.0157668
0.0158992
0.0159194
0.0164162
0.016171
0.0145081
0.0157867
0.0158395
0.0158921
0.0154239
0.0160176
0.0144348
0.0163938
0.0161565
0.0157321
0.0157725
0.0160104
0.0156157
0.016374
0.0159584
0.014973
0.015519
0.0161077
0.0154517
0.0157543
0.0159652
0.0145277
0.0149046
0.0162831
0.0164657
0.0162051
0.0164617
0.015981
0.01616
0.0158775
0.0157654
0.0158789
0.0161939
0.0154273
0.0157154
0.0152103
0.015617
0.0161788
0.0143873
0.0158239
0.0145193
0.0161597
0.0145681
0.0145952
0.0154583
0.014362
0.0158883
0.0158877
0.0161473
0.0161832
0.0153249
0.015138
0.0165523
0.0153707
0.0149653
0.0157749
0.0152203
0.0162949
0.0160008
0.0158651
0.0149144
0.0162051
0.0161591
0.0163021
0.0146593
0.0152795
0.0157782
0.0161342
0.0165841
0.0147665
0.0146711
0.0162564
0.0159638
0.0163698
0.0156313
0.0143678
0.0159812
0.0161856
0.0146698
0.0144892
0.016202
0.0149124
0.0149034
0.016207
0.0164797
0.0159775
0.0166008
0.0155122
0.0155462
0.0162805
0.0152349
0.0162508
0.0153828
0.0158764
0.0162265
0.0154578
0.0146729
0.0160295
0.0160929
0.0154028
0.0155593
0.0157332
0.0152275
0.0142864
0.01579
0.0160175
0.0162374
0.015401
0.0158945
0.0146384
0.0160324
0.0164513
0.0145405
0.0162234
0.0157782
0.0141158
0.014673
0.015719
0.0155865
0.0161032
0.0155017
0.0149585
0.0161154
0.0164296
0.0163051
0.0159682
0.0162703
0.0147244
0.0162804
0.0156273
0.0147827
0.0147892
0.0140038
0.0147862
0.0158764
0.0155644
0.0158959
0.0156481
0.0149974
0.0152077
0.0144195
0.0144141
0.0165704
0.0164671
0.0149755
0.016359
0.0163186
0.0149717
0.0155931
0.0158755
0.0152537
0.0153395
0.0162431
0.0151423
0.0143976
0.0162927
0.0164376
0.01538
0.0163472
0.0155666
0.0151265
0.0149044
0.0156012
0.0146254
0.0148632
0.0157985
0.0158322
0.0155442
0.0163523
0.0162989
0.0155863
0.0162433
0.0114173
0.0156194
0.0146826
0.0155797
0.0163199
0.0154957
0.0152559
0.0154873
0.0148846
0.0158322
0.0155564
0.0152387
0.0147537
0.0142431
0.0142647
0.0154814
0.0147711
0.0156483
0.0147274
0.0155061
0.0162249
0.0158829
0.0155614
0.0157356
0.0160351
0.0155864
0.0160463
0.0145454
0.0157717
0.016312
0.016316
0.0154177
0.0165629
0.0151094
0.0161392
0.0154959
0.0146191
0.0162329
0.0163061
0.0159101
0.0158966
0.0162607
0.015905
0.0142869
0.0143665
0.0154261
0.0164173
0.0158135
0.0161258
0.0153631
0.0155185
0.0150626
0.0146315
0.014631
0.0146324
0.015984
0.0157817
0.0162273
0.015318
0.0154209
0.0165517
0.0147755
0.015628
0.0164306
0.0162714
0.0150863
0.0154245
0.0160385
0.0163282
0.0163073
0.0133803
0.0159317
0.0161501
0.015865
0.0156419
0.0165295
0.0161558
0.0162885
0.0157831
0.015238
0.0156799
0.0163442
0.0159455
0.0155369
0.0147512
0.0161982
0.0162073
0.0162688
0.0160581
0.0144611
0.0140651
0.015447
0.016052
0.0156723
0.0157567
0.0160153
0.0160611
0.0160701
0.015412
0.0160903
0.0156926
0.0161832
0.014902
0.014888
0.0153852
0.0164794
0.014857
0.0161185
0.0147774
0.0155815
0.0156459
0.0164943
0.0156486
0.0161264
0.0164217
0.0161962
0.0158151
0.0161634
0.0156511
0.0154085
0.0143543
0.0164218
0.0139654
0.0147006
0.0136655
0.0142997
0.0144988
0.0155101
0.0157716
0.0148248
0.0153593
0.0140876
0.0149367
0.0152767
0.0163119
0.014524
0.014711
0.0160522
0.0145435
0.0154707
0.0160317
0.016043
0.0154901
0.0147999
0.0144507
0.015327
0.016456
0.0151961
0.014666
0.0159833
0.015394
0.0157938
0.0155449
0.0149158
0.0162963
0.0143362
0.0147035
0.0156097
0.0163344
0.0154255
0.0155997
0.0156954
0.0156464
0.0142622
0.0149907
0.015392
0.0162313
0.0160007
0.0146568
0.014173
0.0155765
0.0163694
0.0154805
0.0156202
0.015215
0.015362
0.015527
0.0146442
0.0162686
0.0153128
0.0146408
0.0141351
0.0159618
0.0156117
0.0163284
0.0157456
0.0161239
0.0147176
0.0155492
0.0143404
0.0141697
0.0162835
0.0149288
0.0156812
0.0156435
0.0152912
0.0146718
0.0163067
0.0161005
0.0163261
0.0158902
0.0138362
0.015598
0.0142818
0.0163772
0.0148425
0.0162752
0.0140973
0.0158761
0.0161336
0.0153639
0.0154165
0.0142792
0.0152152
0.0155685
0.0160849
0.0159614
0.0163137
0.0162621
0.0147604
0.0163336
0.0142713
0.0157705
0.0159019
0.0161851
0.0162274
0.0153658
0.0164285
0.0155809
0.0152783
0.0152537
0.0157586
0.0162261
0.0151714
0.014894
0.0163176
0.0160478
0.0154834
0.0164493
0.015842
0.0159409
0.0161246
0.0161166
0.0162497
0.0154684
0.0153468
0.0161976
0.0161163
0.0141364
0.0155119
0.0151065
0.0163748
0.0158369
0.0161418
0.0147356
0.0146549
0.0156958
0.015934
0.0160421
0.0161909
0.0161466
0.0156981
0.0159857
0.0148193
0.0159403
0.0155435
0.016265
0.0162354
0.0162413
0.0158099
0.0162749
0.0151447
0.0162528
0.0150938
0.0153963
0.0154321
0.0156915
0.0153809
0.0159887
0.0145615
0.0161833
0.0160827
0.0155986
0.0147281
0.0163927
0.0159324
0.0161913
0.0155073
0.0156354
0.0161394
0.0146032
0.0162386
0.0156948
0.0157449
0.0151023
0.0152079
0.0152878
0.0146071
0.0153788
0.0164562
0.0157787
0.0142126
0.0159379
0.0145127
0.015884
0.0158558
0.0143769
0.0144524
0.0153005
0.0157819
0.0161459
0.0153766
0.0155966
0.0156367
0.0142124
0.0154175
0.0162509
0.0162311
0.0162504
0.0157387
0.0159549
0.014797
0.0147729
0.0164469
0.0156449
0.0159296
0.0160673
0.0164888
0.0157184
0.0157498
0.014325
0.015915
0.016176
0.01534
0.0162753
0.0161207
0.0158561
0.014971
0.0159879
0.0154793
0.014156
0.0157205
0.0150018
0.0146816
0.0159162
0.0156908
0.0162418
0.0161935
0.0157963
0.0164291
0.0140876
0.01537
0.0163393
0.0163892
0.0144222
0.0159263
0.014883
0.015117
0.0162545
0.0152533
0.0159153
0.0165099
0.0160185
0.0142413
0.0160664
0.0147576
0.0161499
0.0159117
0.015775
0.0161512
0.0157444
0.016129
0.0146806
0.0161124
0.016241
0.0148557
0.0158288
0.0156092
0.0155046
0.0161404
0.0155482
0.0161356
0.0163681
0.0162936
0.0155712
0.0162415
0.0156668
0.0159572
0.0151513
0.0150681
0.0145995
0.0143647
0.0158949
0.0159577
0.0155822
0.0163556
0.0151227
0.0163152
0.014392
0.0164683
0.0163776
0.0159958
0.0162915
0.0151284
0.0143463
0.0155089
0.014718
0.0161364
0.015655
0.0144092
0.0154845
0.0164942
0.0160512
0.0145572
0.0151551
0.0142824
0.0165299
0.0146318
0.0161585
0.0149616
0.0148807
0.0163322
0.0163145
0.0162437
0.0159582
0.0145315
0.0158421
0.0163694
0.0148918
0.0163497
0.0158306
0.0164777
0.0141992
0.0159125
0.0152738
0.0158893
0.0154092
0.0153761
0.0153977
0.0153123
0.0155552
0.0155621
0.0157875
0.0154419
0.0163977
0.0149021
0.0155263
0.0156441
0.0160028
0.0164114
0.0148836
0.0160236
0.014757
0.0154074
0.016216
0.016245
0.0156221
0.0159034
0.0159973
0.0152567
0.0155266
0.015549
0.0145802
0.014488
0.0158858
0.0160857
0.0150224
0.0154837
0.0161064
0.0147712
0.015771
0.0148839
0.0159684
0.0163309
0.0156312
0.0146107
0.0161161
0.01451
0.0158829
0.0164033
0.0141211
0.0165825
0.0148667
0.0154109
0.015398
0.0146125
0.0153613
0.0151947
0.0143259
0.0163113
0.0163006
0.0139739
0.0153691
0.0157901
0.0158041
0.0158783
0.0164531
0.0162058
0.0152952
0.0151203
0.0144247
0.0142226
0.013539
0.0163768
0.0158972
0.0159353
0.0159742
0.0146164
0.0145636
0.0154608
0.0162483
0.0143088
0.0159332
0.0155318
0.0156611
0.0158657
0.0151468
0.0159834
0.015343
0.0156899
0.0164125
0.0138574
0.0156268
0.0159559
0.0161516
0.0158904
0.0161241
0.0157436
0.0146805
0.0164528
0.0167833
0.0155984
0.015567
0.0148402
0.0154072
0.0159288
0.0162159
0.0155646
0.0154614
0.0153183
0.014385
0.0153821
0.0163198
0.0156565
0.0165831
0.0157118
0.0156084
0.0163993
0.0147275
0.0160601
0.0145985
0.0163906
0.0159756
0.0153715
0.0166342
0.0153072
0.0156586
0.016395
0.0154823
0.0161871
0.0156518
0.0160303
0.0146824
0.0156076
0.0154998
0.0150141
0.016066
0.0152316
0.0152371
0.0163635
0.0147723
0.0162616
0.01556
0.0162198
0.0152837
0.0158379
0.0147415
0.0148609
0.0163719
0.0147633
0.0155284
0.0160988
0.0144738
0.0155882
0.0160739
0.01534
0.0146924
0.0152223
0.0155633
0.0153784
0.015974
0.0156421
0.0161916
0.0155252
0.0161936
0.0142459
0.0147097
0.0163679
0.0153384
0.0144592
0.0147248
0.0156904
0.0130676
0.0145061
0.0155886
0.0155258
0.0164307
0.0149797
0.0161269
0.0162287
0.0163481
0.0161434
0.0163598
0.0154017
0.0151566
0.0160628
0.0153849
0.0152018
0.0161465
0.0154445
0.0142831
0.0145201
0.0155152
0.0136158
0.0160326
0.016034
0.0152097
0.0160669
0.0161202
0.0158572
0.016644
0.0153377
0.0145956
0.0153089
0.0154807
0.0160319
0.0152079
0.0158146
0.0163477
0.0155053
0.0153103
0.0156594
0.016433
0.0160837
0.0167133
0.0162635
0.0156872
0.0158552
0.0149974
0.0153676
0.0163774
0.0151462
0.0163706
0.0151986
0.0160595
0.0140019
0.0159802
0.0155427
0.0159407
0.0151717
0.0159528
0.0155141
0.0160698
0.0140285
0.0151019
0.0155561
0.0153556
0.0157332
0.015656
0.015653
0.0162448
0.0158176
0.0144607
0.0151804
0.0146366
0.0157504
0.0156158
0.0147285
0.0166441
0.0156847
0.0156939
0.0161606
0.0150841
0.0147911
0.0163058
0.0147478
0.014436
0.0143733
0.0143896
0.014309
0.0153094
0.0163594
0.0161384
0.0155661
0.0157007
0.0160172
0.0153403
0.0160013
0.0144161
0.016187
0.0117189
0.0160324
0.0145259
0.0144809
0.0160708
0.0145475
0.0157685
0.0159739
0.016103
0.0149695
0.0157663
0.0155007
0.015537
0.0146475
0.0160879
0.0158151
0.0161666
0.0157251
0.0146994
0.0157639
0.015509
0.0153809
0.0143987
0.0150181
0.0149174
0.0143662
0.0145434
0.0155703
0.0153368
0.0147101
0.0153253
0.0162107
0.0162009
0.0163963
0.0117264
0.0144995
0.0162156
0.0146163
0.01606
0.0143823
0.0163057
0.0160981
0.0161184
0.014681
0.0156094
0.0163362
0.0163146
0.0158957
0.0162206
0.0155907
0.0157621
0.0155021
0.0145534
0.0157969
0.015292
0.0153268
0.0153616
0.0145193
0.0155054
0.0161908
0.0150489
0.0151317
0.0145724
0.0159552
0.0159318
0.014277
0.0154899
0.0155765
0.015958
0.0147038
0.0156659
0.0157451
0.0166912
0.0129515
0.0157417
0.0154449
0.0144919
0.0162181
0.014988
0.0148844
0.0159031
0.0163275
0.0144388
0.0162242
0.015808
0.0146153
0.0144499
0.0162163
0.0162945
0.0145408
0.0156416
0.0143852
0.0150746
0.0163553
0.0152214
0.015907
0.0159722
0.0163719
0.0152982
0.0153295
0.0151467
0.0155913
0.0157906
0.0152258
0.0160975
0.0146774
0.0147179
0.0157627
0.0155508
0.0159621
0.0152992
0.016018
0.0160193
0.0156755
0.0162138
0.0159554
0.0154143
0.0149968
0.0159812
0.0153993
0.0151136
0.0158116
0.016396
0.0160604
0.0154976
0.0145809
0.0158468
0.0151053
0.0144036
0.0152264
0.015605
0.014392
0.015917
0.014939
0.0138251
0.0144651
0.0158931
0.0136688
0.0154017
0.0160594
0.0158146
0.0145273
0.0158576
0.0167115
0.0146955
0.0143215
0.014795
0.0160806
0.0155445
0.0154
0.0161459
0.0145451
0.0160671
0.0155957
0.0163413
0.0163767
0.0119229
0.0156513
0.0159952
0.016099
0.0153997
0.0153987
0.0132585
0.0156913
0.0162855
0.015265
0.0144201
0.0155498
0.0160458
0.015812
0.0143629
0.0157865
0.0160601
0.016252
0.0154749
0.015762
0.0143234
0.014506
0.0144609
0.0156153
0.0153943
0.0158714
0.0164085
0.016153
0.0140043
0.0161644
0.0161788
0.0159515
0.0153677
0.0161411
0.0149761
0.0148365
0.0153407
0.0156458
0.0150429
0.0142291
0.0158991
0.0153282
0.0160707
0.0149666
0.0137818
0.015208
0.0161026
0.0158141
0.0149155
0.015232
0.0161089
0.0161747
0.0151472
0.0154178
0.0160313
0.0163537
0.0159601
0.0163707
0.0158967
0.0158482
0.0143143
0.0156176
0.0147381
0.0160949
0.015785
0.0151994
0.0145596
0.0164121
0.0143116
0.0153128
0.0145754
0.0154155
0.0139263
0.0156265
0.0155186
0.0155515
0.0154726
0.0150558
0.0161998
0.0146795
0.0159659
0.0153647
0.0154508
0.0140599
0.0160147
0.0156308
0.0147458
0.0150846
0.0155728
0.0155263
0.0157534
0.0130848
0.0157579
0.0154021
0.0155152
0.0150791
0.0151951
0.0151661
0.0132082
0.0161337
0.015596
0.00972146
0.014788
0.0159807
0.0160945
0.0159715
0.0148772
0.0131624
0.0161178
0.0147169
0.016044
0.0163657
0.0157396
0.0149201
0.0161753
0.0144181
0.0140006
0.0141193
0.0157771
0.0154568
0.0152257
0.0163897
0.016015
0.0157537
0.0149491
0.0141243
0.0164864
0.0156878
0.0165319
0.0160447
0.0145877
0.0152797
0.0156841
0.0145629
0.0155498
0.015293
0.0156783
0.0168174
0.0155727
0.0155769
0.0145924
0.0154881
0.0151883
0.0158845
0.0154105
0.0144231
0.0147948
0.0157833
0.0159894
0.0146143
0.0159102
0.0150511
0.0159176
0.0148406
0.0147564
0.0131706
0.0162503
0.0161174
0.0158673
0.0161404
0.0153204
0.0147283
0.0142452
0.0133553
0.015633
0.0143482
0.0154329
0.0152495
0.0161196
0.015335
0.0160317
0.0149473
0.0101536
0.0147019
0.0160778
0.0107927
0.0156451
0.0164801
0.0156266
0.0163569
0.0144802
0.014752
0.0149118
0.0163468
0.0130055
0.0163485
0.0147025
0.0136033
0.0160511
0.014794
0.0161654
0.0106257
0.0140835
0.0157274
0.0160553
0.0163109
0.0159249
0.0162039
0.0158725
0.0158485
0.0161248
0.0159778
0.0154706
0.0151462
0.0131248
0.0160366
0.0151169
0.0151706
0.0162372
0.0162695
0.0157284
0.0144225
0.0162569
0.0159417
0.0154221
0.0146802
0.0143851
0.0159064
0.0162389
0.0161331
0.0161424
0.0156326
0.0156707
0.0144938
0.0160541
0.0155895
0.0158166
0.015265
0.0143916
0.0135835
0.0152918
0.0166196
0.0158951
0.0155141
0.0148272
0.0152304
0.0148421
0.0145237
0.0160811
0.0152276
0.0123804
0.0128765
0.0138382
0.0146251
0.0157922
0.0153415
0.0155416
0.0152345
0.0138911
0.0155877
0.0160837
0.0140255
0.0165965
0.0142417
0.0162283
0.0148434
0.0160856
0.0159875
0.0156902
0.0159194
0.0151861
0.0146576
0.0149215
0.015163
0.0159086
0.0156587
0.0148761
0.0149008
0.0156678
0.0143592
0.0155621
0.0149029
0.0160372
0.0150427
0.0153851
0.0125075
0.0161407
0.0163759
0.0156633
0.0159673
0.0153079
0.015421
0.0159413
0.0158568
0.0157913
0.0163211
0.015709
0.014362
0.01423
0.0166672
0.0144649
0.0143607
0.014183
0.0157708
0.0162879
0.0155025
0.0163895
0.0166488
0.0162488
0.015915
0.0152299
0.0144559
0.0155162
0.0138102
0.0158075
0.0155646
0.0153392
0.0153055
0.01493
0.0154544
0.0163526
0.0139572
0.0149862
0.0155021
0.0140861
0.0161145
0.0135388
0.0139041
0.0143387
0.0159297
0.0147726
0.0144428
0.0148339
0.0142322
0.015526
0.0129872
0.0131006
0.0155006
0.0144713
0.0140329
0.0154513
0.0145696
0.0150767
0.0154419
0.0149677
0.0143907
0.0155947
0.0147415
0.0150454
0.0143799
0.015154
0.0151609
0.0134485
0.0161867
0.0153922
0.0155744
0.0149497
0.0146349
0.0143547
0.0154219
0.0153932
0.0162005
0.0156453
0.0159094
0.0151421
0.0155902
0.016089
0.0160065
0.012888
0.013149
0.0141727
0.0160285
0.014268
0.0156061
0.0128376
0.0150292
0.0156421
0.0150784
0.0152965
0.015006
0.0151296
0.0151514
0.0163605
0.0147487
0.0151365
0.0163908
0.0141763
0.0152256
0.0145064
0.0159642
0.0148683
0.0142916
0.0154525
0.0144641
0.0131692
0.0135855
0.0144885
0.0149421
0.0134298
0.0162973
0.0148222
0.0141026
0.0151313
0.0160498
0.0151742
0.0137023
0.0163808
0.0155667
0.0143731
0.0151224
0.0154542
0.014481
0.0153639
0.0154788
0.0151948
0.0143235
0.0140737
0.0153173
0.0147389
0.0136859
0.0139497
0.0140167
0.015434
0.0140973
0.0160118
0.0153738
0.0153534
0.0149321
0.0160922
0.0143867
0.0154703
0.0149903
0.0105509
0.0161677
0.013792
0.0154659
0.0160023
0.0161302
0.0132067
0.015853
0.0162535
0.0145803
0.0155846
0.015217
0.0148382
0.0131742
0.0153406
0.0146499
0.0161139
0.0165267
0.0149155
0.0162297
0.0145301
0.0146194
0.0141704
0.0129725
0.0134262
0.0162363
0.013491
0.0159633
0.0146341
0.0138019
0.0151364
0.0162796
0.013406
0.0110142
0.0145222
0.0157409
0.0159614
0.015632
0.0101402
0.0150739
0.0158321
0.0157126
0.0163193
0.0149867
0.0135231
0.0161388
0.0135012
0.0154886
0.0150556
0.014857
0.0147956
0.0156035
0.0144841
0.0143941
0.0133806
0.0145149
0.0157949
0.0152826
0.0152326
0.0140662
0.0147694
0.0148594
0.0145185
0.0157963
0.0139801
0.014366
0.0155846
0.0159688
0.0140043
0.015883
0.0147448
0.0165256
0.013713
0.0161189
0.0150889
0.0156097
0.0155906
0.0147966
0.0144131
0.0164604
0.0153369
0.0154241
0.0151499
0.0142245
0.0158168
0.0160656
0.0141899
0.0144226
0.0148311
0.0137434
0.0148065
0.0154402
0.0133134
0.0163153
0.0133832
0.0148722
0.0153436
0.013546
0.014751
0.0151111
0.0144139
0.0152062
0.0143886
0.015404
0.0137126
0.0156988
0.0137602
0.0148343
0.0123643
0.0152274
0.0139446
0.0142802
0.0156853
0.014162
0.014638
0.0163932
0.015568
0.0156113
0.0160366
0.0135504
0.0153409
0.0147139
0.0153518
0.0154537
0.0149303
0.0161534
0.0156094
0.0142058
0.0140974
0.0157739
0.0152592
0.0153281
0.0132033
0.0160416
0.0164555
0.0158447
0.0152482
0.0143474
0.0145805
0.0149858
0.0140836
0.0143187
0.0156906
0.0150342
0.0147335
0.0149731
0.0148997
0.0151582
0.0137468
0.0146717
0.014241
0.0132584
0.0162101
0.0151191
0.0144105
0.0160146
0.0151219
0.0149387
0.0155062
0.01339
0.0142117
0.013826
0.0138773
0.0163695
0.0155566
0.0130026
0.016061
0.0136137
0.0151564
0.0154342
0.0150624
0.0159068
0.0148518
0.0152831
0.0149575
0.014786
0.0147089
0.0158474
0.0137598
0.01413
0.0147957
0.0133398
0.0147977
0.013445
0.0145478
0.0160497
0.0153498
0.0129153
0.0130059
0.014199
0.0138727
0.0146454
0.0142737
0.014913
0.0155816
0.0129958
0.0155239
0.0151459
0.0147449
0.0136962
0.0150824
0.0135302
0.0125796
0.0143513
0.014038
0.0141634
0.0146848
0.0146009
0.0149033
0.0139943
0.0157468
0.0140845
0.0149976
0.0143042
0.0151049
0.0146825
0.013767
0.0154046
0.0149202
0.0131959
0.0142481
0.0147937
0.0163545
0.0161381
0.015777