/*--------------------------------*- C++ -*----------------------------------*\
| =========                 |                                                 |
| \\      /  F ield         | OpenFOAM: The Open Source CFD Toolbox           |
|  \\    /   O peration     | Version:  2212                                  |
|   \\  /    A nd           | Website:  www.openfoam.com                      |
|    \\/     M anipulation  |                                                 |
\*---------------------------------------------------------------------------*/
FoamFile
{
    version     2.0;
    format      ascii;
    arch        "LSB;label=32;scalar=64";
    class       volScalarField;
    location    "0.04";
    object      nut;
}
// * * * * * * * * * * * * * * * * * * * * * * * * * * * * * * * * * * * * * //

dimensions      [0 2 -1 0 0 0 0];

internalField   nonuniform List<scalar> 
31639
(
4.47895e-05
4.30374e-05
4.40295e-05
4.77161e-05
4.31329e-05
4.20074e-05
4.13197e-05
4.52132e-05
4.43797e-05
4.63834e-05
4.60591e-05
4.61682e-05
4.38766e-05
4.70517e-05
4.2024e-05
3.99115e-05
4.50402e-05
4.19882e-05
3.99021e-05
4.33553e-05
3.45612e-05
4.64206e-05
4.71163e-05
4.01483e-05
3.92542e-05
4.38716e-05
4.33067e-05
3.79013e-05
4.14957e-05
4.72747e-05
4.64784e-05
4.09687e-05
4.7091e-05
3.93853e-05
3.64734e-05
4.70897e-05
3.2978e-05
4.81408e-05
4.67211e-05
3.16972e-05
3.65213e-05
3.61136e-05
4.61028e-05
4.6219e-05
4.61169e-05
4.65071e-05
4.19993e-05
4.20554e-05
4.50415e-05
4.74059e-05
4.62848e-05
3.2647e-05
4.75659e-05
3.39396e-05
4.12733e-05
4.42326e-05
3.49093e-05
4.35409e-05
4.29272e-05
3.4927e-05
4.35811e-05
4.57476e-05
3.9162e-05
4.29957e-05
4.44214e-05
4.75693e-05
4.35808e-05
4.35588e-05
3.77001e-05
4.73204e-05
4.67936e-05
4.01125e-05
4.5657e-05
4.35541e-05
4.69759e-05
3.63185e-05
4.62661e-05
4.20438e-05
4.21704e-05
4.55945e-05
3.93786e-05
3.13692e-05
4.69273e-05
4.44686e-05
4.48107e-05
4.62338e-05
4.7248e-05
4.67997e-05
3.7449e-05
4.77391e-05
4.40932e-05
4.36897e-05
3.56252e-05
4.24817e-05
3.83393e-05
4.23095e-05
4.2497e-05
4.34854e-05
4.38767e-05
3.525e-05
4.73396e-05
4.62516e-05
4.24651e-05
3.44065e-05
3.52659e-05
4.67129e-05
3.43123e-05
3.32931e-05
3.84246e-05
3.40528e-05
4.55405e-05
3.558e-05
4.24637e-05
4.08494e-05
4.36551e-05
3.39687e-05
4.20595e-05
4.22601e-05
4.57464e-05
4.28309e-05
4.5614e-05
4.60156e-05
4.57645e-05
4.43065e-05
4.35478e-05
4.6815e-05
4.33201e-05
3.88988e-05
3.79419e-05
4.58608e-05
4.64726e-05
4.60304e-05
4.64325e-05
4.13939e-05
4.56787e-05
4.36046e-05
3.51707e-05
3.38165e-05
4.59012e-05
4.34696e-05
4.33229e-05
4.62198e-05
4.64214e-05
3.38536e-05
3.25014e-05
4.71925e-05
4.5779e-05
3.58868e-05
3.57068e-05
4.63296e-05
3.8527e-05
4.4222e-05
4.00586e-05
4.52789e-05
3.67818e-05
4.7414e-05
4.32606e-05
3.74631e-05
3.69607e-05
3.99847e-05
4.66831e-05
3.71289e-05
3.85637e-05
3.46008e-05
3.56852e-05
4.23765e-05
3.6461e-05
4.73359e-05
4.60283e-05
3.42686e-05
4.07249e-05
4.12568e-05
3.63521e-05
4.37036e-05
4.7792e-05
4.56534e-05
4.4051e-05
4.74856e-05
4.3941e-05
4.36643e-05
4.22732e-05
4.22556e-05
4.15376e-05
3.24094e-05
4.40713e-05
4.79173e-05
4.2454e-05
4.71235e-05
3.56114e-05
3.51756e-05
4.85802e-05
4.58127e-05
4.51111e-05
4.2862e-05
4.35322e-05
4.15378e-05
4.12511e-05
4.57269e-05
3.47247e-05
4.15272e-05
4.6774e-05
4.7671e-05
4.53302e-05
4.5401e-05
4.32514e-05
4.30371e-05
4.2393e-05
4.16575e-05
4.61657e-05
3.24723e-05
4.29324e-05
4.17227e-05
4.46837e-05
4.60904e-05
4.53081e-05
4.6965e-05
3.66559e-05
3.99015e-05
4.61349e-05
4.60047e-05
4.51212e-05
4.24345e-05
3.46361e-05
4.28355e-05
3.47455e-05
4.24193e-05
4.57627e-05
3.97707e-05
3.61002e-05
4.51412e-05
4.46027e-05
4.78862e-05
3.72e-05
3.51209e-05
4.49501e-05
4.53072e-05
3.51371e-05
4.70561e-05
3.87444e-05
3.43205e-05
4.22789e-05
4.48244e-05
4.31084e-05
4.0172e-05
3.92971e-05
4.52611e-05
4.21483e-05
4.13916e-05
3.6202e-05
4.28117e-05
4.17387e-05
3.64455e-05
4.0134e-05
4.73922e-05
4.61475e-05
4.08914e-05
3.67319e-05
4.55506e-05
4.5461e-05
4.28772e-05
4.76098e-05
4.65795e-05
4.41778e-05
4.6666e-05
4.20942e-05
4.24643e-05
3.4015e-05
3.95832e-05
4.65827e-05
4.17272e-05
4.49168e-05
4.07336e-05
4.34133e-05
4.74098e-05
4.75955e-05
4.39557e-05
3.53119e-05
4.203e-05
3.85787e-05
4.64493e-05
4.24575e-05
4.69328e-05
4.75e-05
4.11642e-05
3.61087e-05
3.84439e-05
3.68731e-05
3.46741e-05
4.63198e-05
3.7575e-05
4.65168e-05
4.2529e-05
4.03794e-05
3.71184e-05
4.79514e-05
4.10602e-05
4.02643e-05
4.65276e-05
4.35703e-05
3.88014e-05
4.27322e-05
3.76138e-05
4.33092e-05
4.23749e-05
3.62984e-05
4.15115e-05
4.17834e-05
3.1388e-05
3.34275e-05
4.62187e-05
4.71462e-05
4.53377e-05
3.46138e-05
3.70107e-05
4.55124e-05
3.78067e-05
3.79129e-05
4.69297e-05
4.76653e-05
4.19091e-05
4.64329e-05
4.73239e-05
3.64711e-05
4.6942e-05
3.3847e-05
3.42116e-05
4.66271e-05
4.60866e-05
4.64035e-05
4.74309e-05
4.54463e-05
3.71801e-05
4.29371e-05
4.25594e-05
4.67672e-05
4.75527e-05
4.78981e-05
4.24635e-05
4.14097e-05
4.48236e-05
4.5616e-05
4.46678e-05
4.16839e-05
4.26683e-05
4.21053e-05
4.2812e-05
4.51627e-05
4.2129e-05
3.6345e-05
4.447e-05
4.79795e-05
4.13363e-05
4.68089e-05
4.70537e-05
4.28968e-05
3.63435e-05
4.27656e-05
4.26799e-05
3.44795e-05
4.7723e-05
3.72951e-05
4.3993e-05
4.62616e-05
3.35896e-05
4.3129e-05
4.28263e-05
3.52917e-05
4.37013e-05
3.68879e-05
4.29032e-05
4.72884e-05
4.48095e-05
3.33224e-05
4.43149e-05
3.699e-05
4.4382e-05
4.64065e-05
4.68002e-05
4.6462e-05
3.72528e-05
4.58105e-05
3.46858e-05
4.21087e-05
3.4145e-05
4.70646e-05
4.59689e-05
4.66316e-05
4.62382e-05
3.87914e-05
4.73717e-05
4.28965e-05
4.4815e-05
4.2614e-05
3.76414e-05
4.28975e-05
4.52619e-05
4.48297e-05
4.55004e-05
4.38948e-05
4.54984e-05
4.23664e-05
3.62281e-05
4.27877e-05
4.52293e-05
4.52705e-05
3.34714e-05
4.67523e-05
4.6201e-05
4.28083e-05
4.47344e-05
4.51917e-05
4.35205e-05
4.72161e-05
3.49844e-05
4.45371e-05
4.66805e-05
3.36309e-05
4.34427e-05
4.44451e-05
3.69232e-05
3.51453e-05
3.52776e-05
4.08089e-05
3.49148e-05
4.26051e-05
4.25754e-05
4.06075e-05
4.71157e-05
3.59428e-05
4.60435e-05
4.7072e-05
4.30676e-05
4.57336e-05
4.15355e-05
4.66338e-05
4.28936e-05
4.34011e-05
4.75752e-05
4.29801e-05
3.54993e-05
4.33371e-05
4.68461e-05
4.63503e-05
4.52077e-05
4.72817e-05
4.19429e-05
4.4405e-05
4.58596e-05
4.75887e-05
4.69992e-05
3.65602e-05
4.24419e-05
3.23055e-05
4.22069e-05
4.23156e-05
3.59132e-05
3.44002e-05
4.11658e-05
4.55138e-05
4.60846e-05
3.52757e-05
4.51779e-05
4.00222e-05
4.27864e-05
4.55475e-05
3.29192e-05
4.24279e-05
3.40636e-05
4.17837e-05
4.64259e-05
4.77378e-05
4.55835e-05
4.26672e-05
3.3838e-05
4.50409e-05
4.34036e-05
4.542e-05
3.46311e-05
3.61069e-05
4.26874e-05
3.55041e-05
3.68741e-05
4.41826e-05
3.43801e-05
4.14225e-05
3.49175e-05
4.49845e-05
3.59716e-05
4.73721e-05
4.60913e-05
4.60718e-05
4.6747e-05
3.91017e-05
4.60291e-05
4.6622e-05
4.37408e-05
4.58734e-05
4.34412e-05
4.6088e-05
4.77236e-05
4.05083e-05
4.65721e-05
4.71558e-05
4.287e-05
3.9248e-05
4.74691e-05
4.32946e-05
3.30808e-05
3.38207e-05
4.32321e-05
4.67611e-05
4.71407e-05
4.25262e-05
4.80877e-05
4.77584e-05
4.54868e-05
4.36633e-05
4.17523e-05
4.23656e-05
3.69449e-05
4.27792e-05
4.44289e-05
4.72585e-05
3.83894e-05
3.79851e-05
3.76934e-05
4.13603e-05
4.26281e-05
3.2804e-05
4.51215e-05
4.00645e-05
4.49131e-05
4.29172e-05
4.62342e-05
4.27682e-05
3.64344e-05
4.44856e-05
4.69742e-05
3.81207e-05
4.60267e-05
4.76479e-05
4.28079e-05
4.2545e-05
3.77718e-05
3.79186e-05
4.29005e-05
4.32925e-05
3.68101e-05
3.6305e-05
4.3461e-05
3.89297e-05
4.50285e-05
3.87959e-05
4.20913e-05
4.65243e-05
4.30287e-05
3.48515e-05
3.98074e-05
4.34515e-05
4.69652e-05
3.54821e-05
3.22216e-05
4.62348e-05
3.48651e-05
4.39915e-05
4.77959e-05
3.57161e-05
4.31522e-05
4.6509e-05
4.29758e-05
3.49393e-05
4.64125e-05
4.28282e-05
3.55284e-05
4.61093e-05
4.39028e-05
4.21622e-05
4.54159e-05
3.34724e-05
3.99009e-05
4.34174e-05
4.14061e-05
4.02598e-05
4.30013e-05
4.71535e-05
4.65382e-05
4.5108e-05
4.66289e-05
4.66165e-05
4.57193e-05
3.9084e-05
4.56261e-05
4.68891e-05
4.80187e-05
3.80732e-05
4.34992e-05
4.37339e-05
4.89367e-05
3.68286e-05
3.31843e-05
4.72332e-05
3.79236e-05
4.81382e-05
4.16796e-05
3.64168e-05
4.34811e-05
4.64738e-05
4.34685e-05
4.46477e-05
3.43442e-05
4.57689e-05
4.37408e-05
3.37972e-05
4.70552e-05
4.6074e-05
3.66027e-05
3.6228e-05
3.72697e-05
4.11827e-05
4.38534e-05
4.35067e-05
4.27317e-05
4.33409e-05
4.62618e-05
4.32262e-05
4.28393e-05
3.63912e-05
4.76107e-05
3.44893e-05
4.30797e-05
4.2123e-05
4.08083e-05
4.78568e-05
4.30561e-05
3.85499e-05
3.45146e-05
3.59284e-05
4.20305e-05
4.67522e-05
3.77778e-05
4.7598e-05
4.2712e-05
4.61363e-05
3.61202e-05
4.17835e-05
4.54702e-05
4.77022e-05
4.67928e-05
4.57624e-05
4.35602e-05
4.27766e-05
4.74708e-05
4.73801e-05
4.67267e-05
3.86175e-05
4.64646e-05
3.64013e-05
4.69915e-05
4.52164e-05
4.25627e-05
3.72256e-05
4.20084e-05
3.20955e-05
4.68187e-05
4.35315e-05
4.78752e-05
4.25424e-05
4.08963e-05
3.59754e-05
4.65359e-05
3.47417e-05
3.26759e-05
3.6885e-05
3.87283e-05
3.63408e-05
4.27251e-05
3.48944e-05
4.56433e-05
4.44268e-05
3.27635e-05
4.74263e-05
3.66274e-05
3.95058e-05
4.18238e-05
4.06235e-05
4.53476e-05
4.70584e-05
4.79248e-05
4.65285e-05
4.24817e-05
4.37473e-05
4.12961e-05
4.15568e-05
3.45661e-05
2.67558e-05
4.7119e-05
4.23921e-05
4.54624e-05
4.62829e-05
3.54287e-05
4.66466e-05
4.69396e-05
4.56304e-05
4.59547e-05
4.55207e-05
4.41357e-05
4.73794e-05
4.77517e-05
4.34056e-05
4.62679e-05
4.62208e-05
3.72005e-05
4.64345e-05
4.06493e-05
4.50818e-05
4.11667e-05
4.27717e-05
3.95946e-05
4.78486e-05
4.20274e-05
4.34441e-05
4.23412e-05
3.67518e-05
4.75829e-05
4.3881e-05
4.0733e-05
3.61463e-05
4.55217e-05
3.41506e-05
4.65938e-05
4.52654e-05
4.10619e-05
4.69342e-05
4.79666e-05
4.67822e-05
3.50552e-05
4.34382e-05
4.24144e-05
4.34514e-05
3.70951e-05
4.59606e-05
4.64146e-05
4.11113e-05
4.31383e-05
4.1056e-05
4.50145e-05
4.08416e-05
4.23853e-05
3.39375e-05
4.58419e-05
4.4347e-05
4.63393e-05
3.92278e-05
4.31841e-05
4.43172e-05
4.2953e-05
3.99825e-05
4.46042e-05
4.59112e-05
4.22052e-05
3.40512e-05
3.39775e-05
4.24868e-05
3.30759e-05
3.64106e-05
4.39125e-05
4.40567e-05
4.62527e-05
3.37915e-05
4.24693e-05
4.70246e-05
3.75869e-05
3.48713e-05
4.39309e-05
3.69632e-05
4.48178e-05
3.79678e-05
4.65813e-05
3.92585e-05
4.04813e-05
4.74023e-05
3.40731e-05
4.16825e-05
4.21199e-05
4.61137e-05
4.69658e-05
4.68866e-05
3.70279e-05
4.53365e-05
4.66645e-05
4.05187e-05
4.7412e-05
4.60711e-05
4.46979e-05
4.65077e-05
4.35517e-05
4.78031e-05
4.78272e-05
4.76987e-05
4.5161e-05
4.08412e-05
4.41531e-05
4.31291e-05
3.51312e-05
4.20658e-05
4.50212e-05
4.64933e-05
4.71448e-05
4.2401e-05
4.7411e-05
4.61889e-05
4.14422e-05
4.59275e-05
4.63037e-05
4.50927e-05
4.56576e-05
3.59553e-05
4.14143e-05
4.6052e-05
3.30915e-05
4.29189e-05
4.24841e-05
4.22377e-05
4.21248e-05
4.74938e-05
4.5487e-05
4.63442e-05
4.24323e-05
4.52539e-05
4.36101e-05
4.65303e-05
4.38576e-05
4.16123e-05
3.65242e-05
4.64779e-05
3.68952e-05
4.17375e-05
4.25084e-05
4.15364e-05
4.4032e-05
4.73903e-05
3.60025e-05
4.70593e-05
3.65198e-05
4.41328e-05
4.13572e-05
4.20639e-05
4.26681e-05
4.71835e-05
3.55461e-05
4.54103e-05
4.64795e-05
4.66481e-05
4.37666e-05
4.34343e-05
3.26507e-05
4.64565e-05
4.6056e-05
4.48356e-05
4.57132e-05
4.6409e-05
4.36792e-05
4.42016e-05
4.35781e-05
3.74048e-05
4.22494e-05
4.72825e-05
3.43609e-05
3.79512e-05
4.86703e-05
4.61701e-05
3.99056e-05
4.15934e-05
4.3685e-05
3.98155e-05
4.25779e-05
3.81841e-05
4.59921e-05
4.69619e-05
3.2931e-05
4.36994e-05
4.69135e-05
4.5872e-05
4.74647e-05
4.21559e-05
4.63721e-05
3.73626e-05
3.7074e-05
4.7276e-05
4.6281e-05
4.30799e-05
3.74769e-05
4.58609e-05
4.62813e-05
3.8787e-05
4.69091e-05
4.66178e-05
4.68061e-05
4.47541e-05
4.62467e-05
4.37109e-05
4.4195e-05
4.24948e-05
4.04092e-05
3.524e-05
4.39571e-05
4.36961e-05
3.73092e-05
4.68654e-05
3.45535e-05
4.17004e-05
4.24932e-05
3.64253e-05
4.23487e-05
4.07446e-05
4.47998e-05
4.33343e-05
4.59097e-05
3.58364e-05
3.59731e-05
4.17716e-05
3.56872e-05
4.10383e-05
4.64292e-05
4.24109e-05
4.66383e-05
4.30728e-05
4.26766e-05
4.68174e-05
4.09048e-05
4.33305e-05
4.27189e-05
4.25191e-05
4.42748e-05
3.74373e-05
4.33985e-05
4.57745e-05
4.71103e-05
4.78082e-05
3.58244e-05
3.53955e-05
4.30482e-05
4.6614e-05
3.79854e-05
4.16807e-05
4.46632e-05
4.29072e-05
4.87155e-05
4.22797e-05
4.19693e-05
4.53061e-05
3.57991e-05
4.65236e-05
4.70658e-05
3.68089e-05
3.96073e-05
4.27344e-05
4.08274e-05
4.73482e-05
4.69498e-05
4.45479e-05
3.73332e-05
4.61199e-05
3.57535e-05
4.19781e-05
4.62093e-05
4.01684e-05
4.82396e-05
3.41622e-05
4.30648e-05
4.4573e-05
4.34533e-05
3.43717e-05
3.50112e-05
4.6522e-05
4.71699e-05
4.11059e-05
4.73216e-05
4.45277e-05
4.28751e-05
3.58367e-05
3.83547e-05
4.4241e-05
4.28514e-05
4.29257e-05
4.75366e-05
4.68827e-05
4.81203e-05
4.72798e-05
4.4281e-05
4.41004e-05
4.55996e-05
3.64706e-05
4.61838e-05
4.52007e-05
4.38427e-05
4.40626e-05
4.70533e-05
4.20785e-05
4.72817e-05
4.2216e-05
3.31193e-05
4.78038e-05
3.96673e-05
4.65765e-05
4.07593e-05
4.65147e-05
3.70309e-05
4.53083e-05
4.85387e-05
4.27253e-05
4.32753e-05
3.49123e-05
4.59888e-05
4.66958e-05
4.47837e-05
3.56537e-05
4.90597e-05
4.29073e-05
4.47446e-05
4.66778e-05
4.65852e-05
4.58858e-05
4.26589e-05
4.26237e-05
4.79906e-05
3.69324e-05
3.74384e-05
3.6577e-05
3.87561e-05
4.41233e-05
3.48853e-05
4.73584e-05
4.6606e-05
4.7642e-05
4.21066e-05
4.24625e-05
4.34458e-05
4.64912e-05
4.34187e-05
4.33075e-05
4.68454e-05
4.67377e-05
4.2563e-05
4.65898e-05
4.37822e-05
4.19573e-05
4.51449e-05
4.05754e-05
4.74318e-05
4.7167e-05
4.78201e-05
4.77797e-05
4.65557e-05
3.99675e-05
4.82822e-05
4.36267e-05
4.38886e-05
4.21083e-05
4.43774e-05
4.77175e-05
4.31179e-05
4.60521e-05
4.14066e-05
4.30848e-05
4.51115e-05
3.75901e-05
3.50324e-05
4.25044e-05
4.15443e-05
4.71058e-05
4.03841e-05
3.49044e-05
4.40716e-05
4.62276e-05
3.87284e-05
4.05191e-05
4.35899e-05
4.74665e-05
4.67993e-05
4.20457e-05
3.91389e-05
4.32546e-05
4.56178e-05
4.10637e-05
4.35224e-05
4.3492e-05
3.46346e-05
4.07692e-05
4.08038e-05
4.50469e-05
4.62787e-05
4.32127e-05
4.67966e-05
4.52809e-05
4.3105e-05
4.37302e-05
3.6815e-05
3.86025e-05
3.4363e-05
4.65424e-05
4.42093e-05
4.74487e-05
4.97463e-05
4.54734e-05
3.51704e-05
4.59216e-05
4.12452e-05
4.47532e-05
4.47154e-05
4.61093e-05
3.51769e-05
4.76499e-05
3.6418e-05
4.3641e-05
4.36741e-05
4.27642e-05
4.84778e-05
4.22646e-05
4.54002e-05
3.76809e-05
4.24454e-05
4.29891e-05
4.60966e-05
3.99156e-05
3.82415e-05
4.56223e-05
4.62655e-05
4.4818e-05
4.54895e-05
4.71936e-05
3.67779e-05
4.23641e-05
4.21495e-05
3.8762e-05
4.60267e-05
4.74732e-05
4.75499e-05
4.64778e-05
4.80506e-05
3.69171e-05
3.62766e-05
3.70795e-05
4.7584e-05
3.50819e-05
4.60779e-05
4.46089e-05
3.64994e-05
4.10349e-05
4.60587e-05
4.68448e-05
3.9432e-05
4.05691e-05
4.16125e-05
4.37581e-05
4.72896e-05
4.34095e-05
3.68953e-05
4.35386e-05
4.77679e-05
4.64572e-05
4.779e-05
4.73321e-05
4.92597e-05
4.75548e-05
4.61723e-05
3.73466e-05
3.5133e-05
4.35856e-05
3.98815e-05
4.705e-05
3.58167e-05
4.4331e-05
4.25737e-05
4.77579e-05
3.75777e-05
4.50403e-05
4.58227e-05
4.43346e-05
4.14693e-05
3.63138e-05
4.63735e-05
4.02325e-05
4.76962e-05
4.31447e-05
4.85667e-05
4.76702e-05
4.37317e-05
3.50229e-05
3.59709e-05
4.25341e-05
4.42375e-05
4.02493e-05
4.8653e-05
3.65991e-05
4.71245e-05
4.56071e-05
4.08633e-05
4.5106e-05
4.6417e-05
4.70382e-05
4.73212e-05
4.73039e-05
4.39882e-05
4.47241e-05
3.4953e-05
4.05665e-05
4.74824e-05
3.73499e-05
4.51583e-05
4.23925e-05
3.74464e-05
4.30136e-05
4.4903e-05
4.28022e-05
4.54204e-05
4.62732e-05
3.66113e-05
4.24447e-05
4.37104e-05
3.62964e-05
4.05871e-05
4.27492e-05
4.21093e-05
4.53334e-05
3.6792e-05
3.65695e-05
4.28529e-05
4.14283e-05
4.75961e-05
4.84183e-05
4.73283e-05
4.17459e-05
4.21133e-05
4.40143e-05
4.12997e-05
4.65929e-05
3.66624e-05
4.34457e-05
4.25343e-05
4.77553e-05
4.55585e-05
4.23874e-05
4.34408e-05
4.66951e-05
3.63742e-05
4.37886e-05
4.73448e-05
4.13121e-05
3.11182e-05
4.31511e-05
3.63542e-05
4.43057e-05
3.40572e-05
4.72737e-05
4.79238e-05
4.68927e-05
4.40418e-05
3.68407e-05
3.60985e-05
4.63761e-05
4.746e-05
4.6806e-05
4.39063e-05
4.32874e-05
4.55508e-05
4.75973e-05
4.6615e-05
3.49113e-05
4.22512e-05
4.4753e-05
4.50625e-05
4.12785e-05
4.48001e-05
3.47352e-05
4.74337e-05
4.65268e-05
4.39894e-05
4.40794e-05
4.52315e-05
4.32423e-05
4.77571e-05
4.52566e-05
3.7219e-05
4.27337e-05
4.57129e-05
4.23572e-05
4.36e-05
4.47582e-05
3.42127e-05
3.7803e-05
4.71508e-05
4.77142e-05
4.6448e-05
4.77078e-05
4.53681e-05
4.67984e-05
4.45712e-05
4.37717e-05
4.50556e-05
4.67388e-05
4.08126e-05
4.25918e-05
4.1287e-05
4.32518e-05
4.64258e-05
3.38817e-05
4.39538e-05
3.4976e-05
4.65038e-05
3.51228e-05
3.54251e-05
4.26664e-05
3.39534e-05
4.29516e-05
4.45678e-05
4.65664e-05
4.66925e-05
4.03422e-05
4.0412e-05
4.85008e-05
3.92706e-05
3.68952e-05
4.24066e-05
3.94794e-05
4.72569e-05
4.5024e-05
4.40458e-05
3.64424e-05
4.61591e-05
4.65378e-05
4.73809e-05
3.56333e-05
3.8825e-05
4.36378e-05
4.58132e-05
4.81695e-05
3.71941e-05
3.55891e-05
4.55954e-05
4.34257e-05
4.76724e-05
4.35192e-05
3.39597e-05
4.48765e-05
4.62979e-05
3.5967e-05
3.41848e-05
4.68236e-05
3.78672e-05
3.76875e-05
4.71338e-05
4.77317e-05
4.58182e-05
4.87732e-05
4.29988e-05
4.14398e-05
4.70013e-05
3.96842e-05
4.71827e-05
4.0574e-05
4.46459e-05
4.65808e-05
4.25647e-05
3.59925e-05
4.62244e-05
4.67148e-05
4.15059e-05
4.2922e-05
4.34859e-05
3.89299e-05
4.10299e-05
4.40017e-05
4.42149e-05
4.70165e-05
4.10385e-05
4.55934e-05
3.54079e-05
4.57913e-05
4.7944e-05
3.45783e-05
4.62973e-05
4.38749e-05
3.23965e-05
3.58931e-05
4.37474e-05
4.31671e-05
4.61059e-05
4.11785e-05
3.71603e-05
4.64418e-05
4.76265e-05
4.71263e-05
4.47839e-05
4.74424e-05
3.57758e-05
4.70462e-05
4.31982e-05
3.61565e-05
3.63525e-05
3.14948e-05
3.69601e-05
4.52416e-05
4.15483e-05
4.45163e-05
4.34948e-05
3.877e-05
3.9959e-05
3.40577e-05
3.39309e-05
4.85207e-05
4.79424e-05
3.70976e-05
4.72467e-05
4.63458e-05
3.68866e-05
4.27109e-05
4.35681e-05
3.86742e-05
4.10071e-05
4.75018e-05
3.79375e-05
3.36645e-05
4.7451e-05
4.78717e-05
3.99367e-05
4.71845e-05
4.12462e-05
3.84195e-05
3.68098e-05
4.27912e-05
3.56607e-05
3.62295e-05
4.40423e-05
4.51591e-05
4.2473e-05
4.65898e-05
4.71176e-05
4.27988e-05
4.70659e-05
2.76398e-05
4.26774e-05
3.59446e-05
4.35424e-05
4.68849e-05
4.27816e-05
4.00543e-05
4.27015e-05
3.72332e-05
4.46612e-05
4.29017e-05
4.03902e-05
3.58137e-05
3.36359e-05
3.30609e-05
4.12185e-05
3.61638e-05
4.26432e-05
3.6581e-05
4.15927e-05
4.70396e-05
4.44118e-05
4.16948e-05
4.37756e-05
4.50918e-05
4.28546e-05
4.60532e-05
3.47214e-05
4.38103e-05
4.74583e-05
4.7533e-05
4.22401e-05
4.87631e-05
3.85118e-05
4.55326e-05
4.24745e-05
3.5326e-05
4.58732e-05
4.7579e-05
4.51916e-05
4.5606e-05
4.66242e-05
4.42344e-05
3.32962e-05
3.43138e-05
4.21964e-05
4.7933e-05
4.37611e-05
4.66036e-05
4.04117e-05
4.16438e-05
3.80554e-05
3.51793e-05
3.52074e-05
3.48376e-05
4.55067e-05
4.41513e-05
4.72419e-05
4.17174e-05
4.10302e-05
4.82983e-05
3.50827e-05
4.34703e-05
4.74607e-05
4.68657e-05
4.06153e-05
4.18712e-05
4.58468e-05
4.74416e-05
4.7052e-05
3.63702e-05
4.37364e-05
4.60439e-05
4.45963e-05
4.35419e-05
4.82684e-05
4.59548e-05
4.72371e-05
4.42665e-05
3.95934e-05
4.38153e-05
4.68995e-05
4.54782e-05
4.306e-05
3.57424e-05
4.6911e-05
4.65469e-05
4.65768e-05
4.61944e-05
3.4942e-05
3.22631e-05
4.23239e-05
4.55494e-05
4.18955e-05
4.44037e-05
4.59793e-05
4.62705e-05
4.65174e-05
4.09193e-05
4.55934e-05
4.3223e-05
4.63796e-05
3.59946e-05
3.58592e-05
4.16074e-05
4.71755e-05
3.69393e-05
4.63749e-05
3.6264e-05
4.21896e-05
4.33072e-05
4.75561e-05
4.21907e-05
4.67394e-05
4.67941e-05
4.6108e-05
4.41346e-05
4.57111e-05
4.34933e-05
4.07845e-05
3.36565e-05
4.79056e-05
3.14003e-05
3.46198e-05
3.73108e-05
3.42911e-05
3.44487e-05
4.19502e-05
4.38854e-05
3.6566e-05
4.05669e-05
3.20454e-05
3.70294e-05
4.16347e-05
4.69906e-05
3.47598e-05
3.54548e-05
4.61323e-05
3.48031e-05
4.22503e-05
4.54607e-05
4.44859e-05
4.29614e-05
3.63939e-05
3.46061e-05
4.10602e-05
4.77603e-05
3.84444e-05
3.57128e-05
4.4144e-05
4.04863e-05
4.40335e-05
4.29439e-05
3.6425e-05
4.70623e-05
3.38118e-05
3.51387e-05
4.17894e-05
4.66468e-05
4.05059e-05
4.19512e-05
4.22738e-05
4.36656e-05
3.3282e-05
3.75075e-05
4.18921e-05
4.74022e-05
4.54568e-05
3.48684e-05
3.25663e-05
4.20263e-05
4.80889e-05
4.27002e-05
4.30284e-05
4.03341e-05
4.21714e-05
4.30147e-05
3.58813e-05
4.72422e-05
4.0161e-05
3.57407e-05
3.24289e-05
4.57603e-05
4.32883e-05
4.73766e-05
4.40315e-05
4.62767e-05
3.58327e-05
4.18055e-05
3.36408e-05
3.19582e-05
4.60525e-05
3.67635e-05
4.19369e-05
4.33786e-05
4.4631e-05
3.5786e-05
4.74141e-05
4.62434e-05
4.75172e-05
4.45198e-05
3.02157e-05
4.31078e-05
3.39758e-05
4.74518e-05
3.62182e-05
4.712e-05
3.22935e-05
4.44612e-05
4.50521e-05
4.01943e-05
4.10157e-05
3.31205e-05
3.94674e-05
4.31594e-05
4.60954e-05
4.4969e-05
4.71686e-05
4.67601e-05
3.58842e-05
4.73871e-05
4.13847e-05
4.41138e-05
4.46635e-05
4.65253e-05
4.60424e-05
4.31425e-05
4.75508e-05
4.20006e-05
4.01279e-05
4.00205e-05
4.41438e-05
4.66823e-05
3.96357e-05
3.74423e-05
4.68504e-05
4.47238e-05
4.27094e-05
4.85271e-05
4.45128e-05
4.41441e-05
4.53278e-05
4.66375e-05
4.66843e-05
4.29239e-05
4.16798e-05
4.64436e-05
4.54852e-05
3.81413e-05
4.29328e-05
3.91509e-05
4.74032e-05
4.41383e-05
4.68086e-05
3.62047e-05
3.62836e-05
4.35426e-05
4.58388e-05
4.60313e-05
4.74076e-05
4.64988e-05
4.35451e-05
4.52966e-05
3.67426e-05
4.31761e-05
4.30792e-05
4.69632e-05
4.68041e-05
4.70779e-05
4.2503e-05
4.7494e-05
3.77163e-05
4.72334e-05
3.93517e-05
4.22924e-05
4.13015e-05
4.35209e-05
4.22e-05
4.56834e-05
3.53046e-05
4.66042e-05
4.62143e-05
4.22477e-05
3.64284e-05
4.75252e-05
4.53537e-05
4.66415e-05
4.27018e-05
4.33934e-05
4.58118e-05
3.54535e-05
4.71905e-05
4.22097e-05
4.37079e-05
3.89802e-05
3.96293e-05
3.89817e-05
3.50876e-05
4.06537e-05
4.81307e-05
4.37626e-05
3.4e-05
4.40936e-05
3.48926e-05
4.40418e-05
4.42823e-05
3.36374e-05
3.4925e-05
3.97861e-05
4.37119e-05
4.58546e-05
4.08528e-05
4.57611e-05
4.23795e-05
3.94073e-05
4.01701e-05
4.73082e-05
4.70135e-05
4.68186e-05
4.5625e-05
4.46922e-05
3.57127e-05
3.66922e-05
4.7569e-05
4.15916e-05
4.35982e-05
4.59215e-05
4.82641e-05
4.36676e-05
4.49313e-05
3.36548e-05
4.60278e-05
4.66393e-05
4.06216e-05
4.73206e-05
4.68173e-05
4.44013e-05
4.09021e-05
4.5348e-05
4.10573e-05
3.35446e-05
4.36435e-05
3.67745e-05
3.5063e-05
4.37315e-05
4.32761e-05
4.59461e-05
4.58639e-05
4.40386e-05
4.71962e-05
3.21982e-05
4.07153e-05
4.75013e-05
4.72848e-05
3.41357e-05
4.35486e-05
3.76678e-05
4.09282e-05
4.72078e-05
4.00828e-05
4.48048e-05
4.81454e-05
4.53107e-05
3.35708e-05
4.60437e-05
3.58338e-05
4.6862e-05
4.55646e-05
4.44452e-05
4.69201e-05
4.40076e-05
4.67759e-05
3.58891e-05
4.67737e-05
4.72103e-05
3.7276e-05
4.46584e-05
4.31033e-05
4.13695e-05
4.60928e-05
4.19629e-05
4.64161e-05
4.74317e-05
4.77224e-05
4.29619e-05
4.6997e-05
4.32509e-05
4.55412e-05
3.81855e-05
4.05495e-05
3.51769e-05
3.4549e-05
4.42402e-05
4.49901e-05
4.30177e-05
4.73633e-05
4.19286e-05
4.74191e-05
3.4204e-05
4.77745e-05
4.77603e-05
4.5091e-05
4.75012e-05
3.78882e-05
3.37148e-05
4.26303e-05
3.50433e-05
4.66575e-05
4.34031e-05
3.37188e-05
4.19358e-05
4.7857e-05
4.49472e-05
3.51281e-05
3.88856e-05
3.34205e-05
4.82837e-05
3.49836e-05
4.62348e-05
4.00734e-05
3.59907e-05
4.69563e-05
4.71768e-05
4.70471e-05
4.57378e-05
3.57946e-05
4.46273e-05
4.73422e-05
3.72931e-05
4.70699e-05
4.45584e-05
4.74033e-05
3.37882e-05
4.57478e-05
4.08137e-05
4.48399e-05
4.0745e-05
4.23387e-05
4.11991e-05
4.04537e-05
4.13434e-05
4.18581e-05
4.5366e-05
4.26482e-05
4.77091e-05
3.74016e-05
4.26691e-05
4.34129e-05
4.57986e-05
4.7353e-05
3.55712e-05
4.62133e-05
3.68048e-05
4.24303e-05
4.70767e-05
4.70713e-05
4.18597e-05
4.45339e-05
4.52983e-05
4.08966e-05
4.31458e-05
4.21031e-05
3.52619e-05
3.5144e-05
4.45318e-05
4.61494e-05
4.28585e-05
4.11521e-05
4.62178e-05
3.63883e-05
4.41529e-05
3.63698e-05
4.52436e-05
4.74101e-05
4.33835e-05
3.53717e-05
4.62646e-05
3.4985e-05
4.4484e-05
4.70165e-05
3.39383e-05
4.81229e-05
3.72123e-05
4.07582e-05
4.1705e-05
3.54213e-05
4.03499e-05
4.11869e-05
3.31375e-05
4.65727e-05
4.71876e-05
3.16255e-05
4.04541e-05
4.53192e-05
4.35031e-05
4.43429e-05
4.80433e-05
4.64615e-05
4.22701e-05
3.92229e-05
3.42625e-05
3.30556e-05
3.86275e-05
4.78218e-05
4.618e-05
4.53059e-05
4.53445e-05
3.57693e-05
3.55726e-05
4.25679e-05
4.63604e-05
3.36248e-05
4.49731e-05
4.31479e-05
4.19348e-05
4.53385e-05
4.08281e-05
4.59337e-05
3.93657e-05
4.27609e-05
4.7635e-05
3.0921e-05
4.41078e-05
4.64642e-05
4.6481e-05
4.5168e-05
4.62543e-05
4.37609e-05
3.5486e-05
4.7895e-05
4.89562e-05
4.33404e-05
4.33805e-05
4.06271e-05
4.28589e-05
4.5121e-05
4.58062e-05
4.34082e-05
4.23555e-05
4.20818e-05
3.44023e-05
4.11106e-05
4.75108e-05
4.50179e-05
4.87402e-05
4.35391e-05
4.24179e-05
4.76003e-05
3.59203e-05
4.58745e-05
3.55311e-05
4.73058e-05
4.50993e-05
4.10874e-05
4.84901e-05
4.05885e-05
4.26648e-05
4.76011e-05
4.16842e-05
4.7571e-05
4.58049e-05
4.57424e-05
3.53739e-05
4.3148e-05
4.27342e-05
3.82515e-05
4.62156e-05
4.16305e-05
4.17264e-05
4.75523e-05
3.59006e-05
4.71131e-05
4.32518e-05
4.68982e-05
4.07763e-05
4.41289e-05
3.55764e-05
3.68082e-05
4.82345e-05
3.61503e-05
4.3001e-05
4.59301e-05
3.51487e-05
4.23017e-05
4.63063e-05
4.03179e-05
3.66195e-05
3.93756e-05
4.16829e-05
4.14292e-05
4.60328e-05
4.20547e-05
4.66952e-05
4.41008e-05
4.64554e-05
3.33833e-05
3.85142e-05
4.74702e-05
4.24213e-05
3.47978e-05
3.68371e-05
4.31415e-05
3.65623e-05
3.54169e-05
4.32574e-05
4.24758e-05
4.7916e-05
4.13355e-05
4.63364e-05
4.65476e-05
4.62742e-05
4.6418e-05
4.6489e-05
4.12496e-05
4.02415e-05
4.62715e-05
4.23626e-05
4.12112e-05
4.70527e-05
4.29607e-05
3.43846e-05
3.48075e-05
4.21861e-05
3.73624e-05
4.50531e-05
4.6016e-05
4.14064e-05
4.64982e-05
4.61535e-05
4.57275e-05
4.86643e-05
4.23775e-05
3.56447e-05
4.12806e-05
4.15137e-05
4.61329e-05
4.15093e-05
4.52101e-05
4.71927e-05
4.20462e-05
4.06405e-05
4.36227e-05
4.72711e-05
4.53822e-05
4.93104e-05
4.60475e-05
4.19485e-05
4.28891e-05
3.7475e-05
4.07963e-05
4.73352e-05
3.81171e-05
4.76377e-05
4.10407e-05
4.62301e-05
3.50909e-05
4.53484e-05
4.32105e-05
4.61174e-05
4.25972e-05
4.47817e-05
4.27977e-05
4.6423e-05
3.42137e-05
3.72685e-05
4.32827e-05
4.07076e-05
4.40046e-05
4.32574e-05
4.3442e-05
4.70735e-05
4.3948e-05
3.41696e-05
3.94689e-05
3.53922e-05
4.39025e-05
4.29122e-05
3.62309e-05
4.88599e-05
4.32466e-05
4.23905e-05
4.59088e-05
3.87391e-05
3.65892e-05
4.75441e-05
3.65395e-05
3.48417e-05
4.20489e-05
4.1125e-05
3.6817e-05
3.95931e-05
4.73343e-05
4.63751e-05
4.10298e-05
4.38415e-05
4.60779e-05
4.29783e-05
4.57357e-05
3.43225e-05
4.67663e-05
2.84194e-05
4.61517e-05
3.58316e-05
3.52805e-05
4.64925e-05
3.48687e-05
4.25187e-05
4.42926e-05
4.62566e-05
4.04484e-05
4.48311e-05
4.15463e-05
4.27123e-05
4.08614e-05
4.53143e-05
4.40532e-05
4.65866e-05
4.3266e-05
3.62041e-05
4.53362e-05
4.2741e-05
4.22142e-05
4.2789e-05
3.76741e-05
3.98249e-05
3.41149e-05
3.52275e-05
4.31427e-05
4.17723e-05
3.7161e-05
4.05994e-05
4.62462e-05
4.72749e-05
4.70876e-05
2.75291e-05
3.4263e-05
4.70241e-05
3.51386e-05
4.55207e-05
3.45815e-05
4.68172e-05
4.62969e-05
4.6304e-05
3.60463e-05
4.20394e-05
4.74418e-05
4.72867e-05
4.41876e-05
4.72235e-05
4.28283e-05
4.39318e-05
4.2704e-05
3.5499e-05
4.39985e-05
3.98864e-05
4.30729e-05
4.27693e-05
3.79114e-05
4.23065e-05
4.70952e-05
3.93809e-05
3.97106e-05
3.52698e-05
4.58708e-05
4.57582e-05
3.31571e-05
4.27543e-05
4.30042e-05
4.46855e-05
3.59376e-05
4.33901e-05
4.2853e-05
4.82795e-05
3.43457e-05
4.25687e-05
4.23967e-05
3.35634e-05
4.65494e-05
3.6487e-05
3.69506e-05
4.43027e-05
4.73276e-05
3.40646e-05
4.65208e-05
4.44472e-05
4.3152e-05
3.40504e-05
4.73244e-05
4.73851e-05
3.37665e-05
4.32172e-05
3.31235e-05
3.66384e-05
4.72705e-05
4.1087e-05
4.40647e-05
4.6274e-05
4.75223e-05
4.17174e-05
4.04862e-05
4.22965e-05
4.19536e-05
4.37986e-05
4.05664e-05
4.69485e-05
3.60906e-05
4.07326e-05
4.29154e-05
4.16074e-05
4.54464e-05
4.23083e-05
4.49664e-05
4.53462e-05
4.32737e-05
4.73354e-05
4.52791e-05
4.15521e-05
3.93967e-05
4.56538e-05
4.19014e-05
4.08173e-05
4.4994e-05
4.75754e-05
4.54619e-05
4.56277e-05
4.02651e-05
4.52993e-05
3.97373e-05
3.54866e-05
4.26688e-05
4.43772e-05
3.53851e-05
4.46517e-05
4.21721e-05
3.188e-05
3.52801e-05
4.55543e-05
3.45986e-05
4.18183e-05
4.57668e-05
4.43628e-05
3.54283e-05
4.43451e-05
4.83281e-05
3.64294e-05
3.55051e-05
3.61177e-05
4.67806e-05
4.29317e-05
4.2194e-05
4.66442e-05
3.50966e-05
4.51981e-05
4.32862e-05
4.74364e-05
4.77428e-05
3.00142e-05
4.3345e-05
4.50164e-05
4.58489e-05
4.34562e-05
4.23564e-05
3.65546e-05
4.41747e-05
4.76136e-05
3.97317e-05
3.38326e-05
4.12488e-05
4.65712e-05
4.48731e-05
3.48937e-05
4.20254e-05
4.59459e-05
4.68351e-05
4.24926e-05
4.21028e-05
3.31862e-05
3.58408e-05
3.5615e-05
4.32117e-05
4.17959e-05
4.40331e-05
4.7726e-05
4.67363e-05
3.85206e-05
4.64452e-05
4.68176e-05
4.482e-05
4.06485e-05
4.63809e-05
4.15579e-05
3.68019e-05
4.05544e-05
4.32445e-05
4.40322e-05
3.9337e-05
4.47524e-05
4.10984e-05
4.65565e-05
3.65679e-05
3.375e-05
4.16049e-05
4.72484e-05
4.57261e-05
4.06156e-05
4.14573e-05
4.5966e-05
4.67338e-05
4.09265e-05
4.14623e-05
4.65266e-05
4.77665e-05
4.53561e-05
4.74682e-05
4.57408e-05
4.5424e-05
3.4274e-05
4.16581e-05
3.56169e-05
4.50926e-05
4.66575e-05
4.03932e-05
3.53868e-05
4.75534e-05
3.50786e-05
3.97142e-05
3.70181e-05
4.25875e-05
3.44917e-05
4.45749e-05
4.27988e-05
4.25372e-05
4.32199e-05
3.77019e-05
4.70522e-05
3.6275e-05
4.49636e-05
4.30354e-05
4.21542e-05
3.51358e-05
4.60796e-05
4.46753e-05
3.69561e-05
3.84491e-05
4.18297e-05
4.12529e-05
4.33828e-05
3.48736e-05
4.41245e-05
4.12267e-05
4.34272e-05
3.98209e-05
3.95941e-05
3.94382e-05
3.52952e-05
4.6261e-05
4.30385e-05
1.70368e-05
3.65081e-05
4.34533e-05
4.68606e-05
4.58673e-05
3.71888e-05
3.65363e-05
4.68253e-05
3.57062e-05
4.59795e-05
4.72967e-05
4.39753e-05
3.66073e-05
4.66843e-05
3.49195e-05
3.33002e-05
3.33293e-05
4.49651e-05
4.23327e-05
4.04706e-05
4.75298e-05
4.5295e-05
4.38157e-05
3.69658e-05
3.22496e-05
4.79198e-05
4.33022e-05
4.81519e-05
4.65046e-05
3.55271e-05
4.22301e-05
4.22152e-05
4.11476e-05
4.27368e-05
4.01535e-05
4.15801e-05
4.95602e-05
4.36364e-05
4.08828e-05
3.58416e-05
4.42047e-05
4.23001e-05
4.51555e-05
4.10847e-05
3.51803e-05
3.63392e-05
4.45827e-05
4.49047e-05
4.01066e-05
4.57288e-05
3.94903e-05