/*--------------------------------*- C++ -*----------------------------------*\
| =========                 |                                                 |
| \\      /  F ield         | OpenFOAM: The Open Source CFD Toolbox           |
|  \\    /   O peration     | Version:  2212                                  |
|   \\  /    A nd           | Website:  www.openfoam.com                      |
|    \\/     M anipulation  |                                                 |
\*---------------------------------------------------------------------------*/
FoamFile
{
    version     2.0;
    format      ascii;
    arch        "LSB;label=32;scalar=64";
    class       volScalarField;
    location    "0.04";
    object      p;
}
// * * * * * * * * * * * * * * * * * * * * * * * * * * * * * * * * * * * * * //

dimensions      [0 2 -2 0 0 0 0];

internalField   nonuniform List<scalar> 
31639
(
0.0127467
0.00887649
0.0145837
0.00650047
0.00895783
0.0124977
0.013994
0.0133307
0.00947733
0.00808882
0.0138916
0.00903562
0.0093878
0.0122068
0.0106266
0.0149133
0.017293
0.0176875
0.00290211
0.0135654
0.00986307
0.00762727
0.0103864
0.00642529
0.011145
0.0131966
0.0128317
0.0405275
0.0134066
0.0133752
0.00718445
0.0190969
0.00952726
0.00516255
0.0232212
0.013317
0.00766171
0.0139042
0.0138893
0.0113658
0.0090873
0.0130081
0.0101727
0.0141232
0.0145522
0.0060769
0.00911057
0.00720134
0.0156039
0.00655051
0.00604363
0.00485216
0.0236456
0.0144299
0.00472657
0.0176659
0.00776095
0.012912
0.00888606
0.00619506
0.00680383
0.0130308
0.0108061
0.0132963
0.0234523
0.00382929
0.00235282
0.00744113
0.00920762
0.00576378
0.00819504
0.017415
0.00799812
0.00345003
0.0237595
0.0189072
0.00821049
0.00760517
0.00880816
0.00834985
0.012701
0.0121866
0.0120068
0.00669053
0.0118726
0.0110137
0.0101977
0.00719579
0.00233288
0.00960434
0.00544825
0.0173357
0.00637228
0.00847548
0.0040642
0.0128318
0.00692087
0.00489491
0.00928966
0.0123217
0.0219333
0.0219162
0.011179
0.00850239
0.00471946
0.00589759
0.0124908
0.00625501
0.00724312
0.011275
0.0139489
0.0121667
0.0130055
0.00765766
0.00341135
0.013584
0.0233099
0.0143954
0.022042
0.00683922
0.0192792
0.00592412
0.0030775
0.0065293
0.0124303
0.0122094
0.00879374
0.00662515
0.00808241
0.00978653
0.0230728
0.00102142
0.0147539
0.00347105
0.00416188
0.00741154
0.0077526
0.00848501
0.00608754
0.00679367
0.00673431
0.0100062
0.0109077
0.00624512
0.00911784
0.011875
0.0221915
0.00773515
0.0114693
0.0236987
0.00693802
0.0159487
0.00497321
0.00447338
0.0058051
0.00443866
0.00326937
0.00815209
0.0155239
0.0073589
0.00405324
0.0174676
0.00782643
0.0129818
0.0185367
0.0186089
0.0144732
0.0162231
0.00510383
0.003554
0.0166407
0.0121999
0.0165347
0.00948431
0.0117873
0.00793166
0.0106737
0.0192116
0.00743693
0.0112237
0.00930173
0.015332
0.0130508
0.0135836
0.013634
0.0133283
0.0159818
0.0112273
0.0122197
0.0151422
0.0154201
0.0080482
0.0156631
0.0047729
0.00543663
0.00565328
0.00544902
0.00864585
0.00556449
0.0137757
0.0115644
0.0175189
0.0153543
0.0163002
0.0079152
0.0065998
0.00275933
0.00467232
0.0195668
0.0053386
0.005329
0.0113613
0.0220603
0.0117848
0.0141901
0.011885
0.011917
0.0118786
0.0166468
0.00890531
0.00921405
0.0113485
0.0120062
0.016657
0.0144851
0.00827639
0.0149497
0.0146277
0.0103608
0.0189853
0.00500435
0.0137621
0.017476
0.0151385
0.0155498
0.00264698
0.00244374
0.0158353
0.0130398
0.00471266
0.00669318
0.0142666
0.0165782
0.0156045
0.00689295
0.0178869
0.00527782
0.0184857
0.0151073
0.00267513
0.000772218
0.00608422
0.0154825
0.0177639
0.00862504
0.00922911
0.0129155
0.00397848
0.012763
0.0147536
0.00617367
0.00496182
0.00863973
0.0122118
0.00873352
0.0118382
0.0019541
0.022464
0.0140802
0.0125825
0.0287764
0.00587374
0.0128353
0.0159075
0.00765504
0.014985
0.00545894
0.0167096
0.00742316
0.00608824
0.0187184
0.019244
0.0191123
0.0253967
0.0137038
0.0137478
0.016733
0.0159611
0.00303657
0.0154204
0.0171786
0.00138164
0.00495045
0.00497168
0.0145143
0.00428704
0.017374
0.00231429
0.00681375
0.00787105
0.00732423
0.0166689
0.00528815
0.00474545
0.0105965
0.00425724
0.0120831
0.00280814
0.0102192
0.0167497
0.00707557
0.0280471
0.0224378
0.00994717
0.00913808
0.0128634
0.0024659
0.0193463
0.0150168
0.01476
0.0141679
0.0059248
0.0216627
0.00438061
0.0116635
0.0158216
0.0142098
0.0159842
0.00514742
0.0059534
0.00617226
0.00649491
0.0169884
0.00486256
0.0175138
0.0233168
0.0238855
0.00739299
0.0162036
0.0183024
0.00414612
0.00203625
0.0178128
0.00373173
0.00533053
0.0165176
0.00449778
0.0145875
0.0144234
0.0217248
0.00816158
0.0166825
0.00814069
0.0154158
0.00471252
0.00618594
0.0052764
0.0106388
0.0107996
0.0160215
0.0175413
0.0107623
0.0279523
0.00303289
0.0074659
0.00673456
0.0036065
0.0107405
0.0115042
0.0159965
0.0104297
0.0195623
0.0122339
0.00575374
0.0038733
0.00646575
0.0224945
0.0188031
0.015694
0.0196796
0.0148723
0.0048559
0.00727399
0.00483969
0.00446815
0.00423892
0.00521454
0.00898315
0.000452118
0.0179394
0.00264666
0.0198794
0.00528028
0.0166145
0.00459389
0.0170219
0.0180678
0.0136024
0.00651054
0.0263703
0.0176962
0.0139021
0.0132984
0.00443011
0.0156672
0.00241321
0.00690601
0.00698092
0.00725169
0.0136406
0.00597603
0.00702147
0.0155838
0.0289251
0.0142914
0.0157117
0.0114964
0.0122813
0.010997
0.00914896
0.00882806
0.0216905
0.0104922
0.00093656
0.0156169
0.0285233
0.0101168
0.0212008
0.0122335
0.0146028
0.00638285
0.00528924
0.0166534
0.00602954
0.0132701
0.0132849
0.0161919
0.00395873
0.00488182
0.0173194
0.00733436
0.00258064
0.00310902
0.0119626
0.00414705
0.00744027
0.00783934
0.018179
0.0177733
0.0192097
0.018096
0.015766
0.00767103
0.016163
0.00727438
0.0172121
0.0193329
0.00597968
0.015815
0.00664008
0.0130004
0.0185823
0.0122998
0.00333088
0.01523
0.0424109
0.00329362
0.00991571
0.00673014
0.0147952
0.00192674
0.00511376
0.00611879
0.00509437
0.0161434
0.00131002
0.0102251
0.020865
0.00920213
0.0106721
0.00618401
0.0227329
0.00397646
0.00842559
0.021704
0.0279196
0.0101146
0.0144916
0.0117927
0.00786941
0.00608491
0.00464553
0.0190743
0.00219683
0.0125459
0.0120701
0.0114308
0.00344045
0.00521263
0.0183156
0.0206766
0.00262826
0.00301736
0.00339274
0.0019877
0.0243903
0.00699146
0.00289612
0.0194752
0.0217001
0.0193717
0.00407836
0.0174812
0.0162358
0.0184565
0.00209725
0.0216921
0.0217412
-0.000354618
0.018829
0.0181905
0.0189328
0.0120322
0.020196
0.00087902
0.00329432
0.0184275
0.00272679
0.00331969
0.00563075
0.0136901
0.00924461
0.016976
0.00113467
0.00602832
0.00970898
0.0203782
0.00131782
0.0161662
0.00249253
0.0282511
0.0285499
0.00672217
0.0408097
0.00691515
0.00688175
0.0112055
0.0115266
0.00798155
0.010943
0.0293611
0.00803131
0.0158413
0.000661746
0.00717772
0.0111338
0.00629181
0.0181302
0.00140229
0.00432958
0.010904
0.00390215
0.00986447
0.0100629
0.00543352
0.022891
0.00396306
0.00279527
0.000422068
0.0127184
0.0208394
0.00313418
0.000652409
0.00384225
0.0042504
0.00332548
0.0193576
-3.61383e-05
0.00129998
0.00089205
0.0174085
0.00217808
0.0182219
0.0186262
0.0194269
0.00568474
6.27433e-05
0.000265962
0.00295831
0.00085807
0.0119341
0.00103505
0.0119216
0.0189059
0.00159921
0.00693165
0.00930271
0.0227686
0.0210193
0.0164844
0.00786595
0.00378912
0.0218613
0.0187987
0.00176114
0.00193661
0.00810153
0.0137224
0.00564351
0.00120992
0.000102494
0.000954038
0.0181464
0.0151959
0.00695698
0.0418157
0.0149312
0.0116284
0.00803793
0.012565
0.0161305
0.0159935
0.0111857
0.0071393
0.00894702
0.00926198
0.0151804
0.00349914
0.0108931
0.00129065
0.011865
0.0276916
0.0192624
0.0177771
0.0132071
0.010421
0.0251652
0.0117121
0.0140466
0.00622267
0.0223386
0.0210611
0.00307149
0.0115413
0.0131035
0.000242202
0.0256073
0.00705246
0.00119902
0.00344344
0.00195522
0.0227451
0.0207641
0.0212036
0.00319852
0.000121981
0.0179663
0.0120827
0.0189473
0.0195395
0.0195821
0.00128024
3.92223e-05
0.0185671
0.0161878
0.0167322
0.0195981
0.00109891
0.00699367
0.0287502
0.00405564
0.00229821
0.0201249
0.0113977
0.00480569
0.0183341
0.0180542
0.0146954
0.0084901
0.00564864
0.0133573
0.00768924
0.000398259
0.00073428
0.00149886
0.00566596
0.00214799
0.0227759
0.00808578
0.000616993
0.000704642
0.0174338
0.00615157
0.00075271
0.0421783
0.00571754
0.006816
0.00917388
0.0103624
0.00877966
0.0112214
0.0106043
0.00711985
0.00818437
0.0118077
0.00752573
0.00702844
0.00797326
0.0105238
0.0200699
0.0113668
0.0107419
0.0176173
0.0227975
0.0191876
0.00536685
0.0105721
0.00304472
0.0119621
0.0236059
0.00091209
0.00219201
0.00198231
0.00609431
0.00706182
0.0174918
0.0167412
0.00497139
0.00204512
0.013649
0.0226734
0.000564003
0.0186285
0.00741267
0.017202
0.0157849
0.0166489
0.0214309
0.01995
0.0257677
0.0182694
0.0152824
0.0190072
0.0171583
0.0177418
0.00638148
0.022359
0.00627575
0.00164924
0.00417657
0.0173708
8.86858e-05
0.0143693
0.00339539
0.00473364
0.0144224
0.0086524
0.0215773
0.00401217
0.015086
0.00488279
0.0248323
0.00715088
0.000671316
0.00104145
0.0202575
0.0135385
0.000923157
0.00222724
0.00128697
0.00430123
0.000592899
0.000289918
0.01705
0.0165178
0.000195153
0.0165655
0.0146535
0.0177291
0.00970442
0.00960392
0.00776906
0.012459
0.0130544
0.00606971
0.000984076
0.0114211
0.0156398
0.0115524
0.0214182
0.0191859
0.0114582
0.0186542
0.00708003
0.0288105
0.00337069
0.0187847
0.0112386
9.67157e-05
0.0127933
0.00327638
0.00683459
0.00283218
0.00284945
0.0143701
0.0204031
0.00500025
0.018036
0.000855652
0.000868999
0.000894222
0.0237635
0.0239188
0.0227387
0.0244734
0.0201686
0.0186313
0.00625514
0.00403162
0.00690735
0.00182372
0.0133074
0.00596023
0.0156705
0.00866974
0.00693809
0.00215988
-0.000116632
0.00506508
0.00270564
0.021218
0.00922029
0.00497739
0.00478145
0.00885286
0.000875343
0.0149111
0.00483112
0.018653
0.00358476
0.00243188
0.0122537
0.012197
0.0189938
0.0225928
0.0197848
0.0150606
0.0084692
0.00919666
0.017936
0.000137607
0.000991285
0.017639
0.0180302
-0.00011564
0.000400976
0.00254652
0.0177738
0.00467362
0.0108003
0.0229182
0.0223797
0.0114017
0.0268063
0.0086136
0.00744693
0.00767824
0.00496592
0.00308333
0.0187329
0.00317126
0.0114355
0.0138529
0.0211278
0.00666088
0.00769062
0.00731794
0.0170131
0.0172389
0.0172688
0.0245308
0.00228373
0.0198974
0.019607
0.0200185
0.0108585
0.000399312
0.0235376
0.0242593
0.0223388
0.0131742
0.0139359
0.0152101
0.0141852
0.0169243
0.0130058
0.000537469
0.0177928
0.00827649
0.00566461
0.0181027
0.00137131
0.000809116
0.00315808
0.00295983
0.0216813
0.00871099
0.0031937
0.00444128
0.00786496
0.0160442
0.00752395
0.00690392
0.0144807
0.0101266
0.000300779
0.0186629
0.0118173
0.0196127
0.00988143
0.00205559
0.0151928
0.0150939
0.000745681
0.0087139
0.00811411
0.000605551
0.000738544
0.0184947
0.0212452
0.00855804
0.0110655
0.00128061
0.0196669
0.0245061
0.0205344
0.0141666
0.00661991
0.0192366
0.0145253
0.00767514
0.010685
0.00593393
0.00603378
0.00956347
0.0182071
0.0032897
0.0119075
0.0075189
0.00678358
0.000222225
0.0203511
0.00797905
0.021009
0.00578442
0.0172013
0.0198618
0.00987188
0.00991478
0.0207226
0.0167798
0.0188619
0.0072998
0.00847051
0.016677
0.0159199
0.0126258
0.0133805
0.019421
0.019874
0.0261697
0.0153755
0.0173612
0.00110778
0.000728077
0.0177976
0.0162445
0.00834483
0.0193035
0.00277325
0.0135997
0.0151479
0.0190136
0.00234662
0.0195026
0.0177225
0.0211354
0.0200859
0.0209986
0.00990029
0.0180504
0.00800962
0.0138798
0.013464
0.0127947
0.0218411
0.0202297
0.0195888
0.0165557
0.00897399
0.0116985
0.012901
0.0198841
0.0127569
5.21332e-05
0.0207185
0.0228157
0.0107607
0.00908271
0.00381139
0.00272209
0.0075685
0.0200814
0.00628767
0.00673103
0.0247419
0.0100796
0.00375125
0.00515882
0.000445928
0.00962011
0.0108928
0.00990587
0.0185353
0.000670666
0.0214515
0.00190422
0.0208389
0.0201408
0.0245963
0.00947493
0.00974291
0.00830432
0.0155931
0.0138636
0.0162418
0.0250492
0.0182242
0.0193063
0.0127705
0.0155483
0.0092008
0.0163425
0.0141721
0.00310169
0.00280848
0.0114195
0.00091735
0.00813624
0.0216093
0.0227741
0.00414263
0.020912
0.01359
0.0219757
0.0120507
0.0123765
0.00166671
0.000916074
0.0159782
0.0144365
0.0069618
0.00916422
0.00865769
0.0133976
0.00926851
0.0181289
0.019438
0.0249097
0.0191548
0.0206758
0.0125179
0.00881289
0.0103006
0.000921517
0.00176378
0.00338455
0.00907207
0.00818825
0.0143696
0.00846112
0.0151411
0.0171594
0.0190106
0.00876155
0.00545655
0.0254541
0.0133207
0.0227786
0.0224948
0.0100106
0.0229762
0.00233364
0.0193676
0.00579515
0.0109138
0.00434629
0.0084682
0.00947453
0.0217767
0.0221592
0.00069617
0.0199336
0.0237896
0.0271933
0.00884571
0.0167602
0.0192389
0.019532
0.00787229
0.0084905
0.0181297
0.0274479
0.0180466
0.00333821
0.0159499
0.0268318
0.0155365
0.0153298
0.0148551
0.00738355
0.0224976
0.0194457
0.0226877
0.00198216
0.0162103
0.00133134
0.0134047
0.019024
0.00407148
0.0191536
0.00589247
0.0182084
0.0247826
0.0107095
0.00053912
0.0121172
0.0129709
0.000748531
0.00802596
0.00813535
0.0128033
0.00935483
0.0261395
0.02088
0.00821532
0.00811185
0.0202137
0.0113629
0.0192222
0.0253515
0.0195724
0.000691082
0.000661892
0.0207076
0.0179847
0.0125981
0.0140202
0.0160884
0.0133218
0.0138421
0.022669
0.0198597
0.0238507
0.0179022
0.0156876
0.00222553
0.0229593
0.00302619
0.00868066
0.0214465
0.0229648
0.018546
0.00969601
0.0086725
0.000474717
0.020089
0.0124156
0.0212827
0.0116912
0.0225305
0.0238694
0.0150557
0.0160787
0.00960409
0.00469082
0.0260441
0.0124087
0.015941
0.0123827
0.0114273
0.0165859
0.0263637
0.015253
0.0143073
0.028311
0.0024662
0.022267
0.0137416
0.0274245
0.0142125
0.0114293
0.0220963
0.0226451
0.00407321
0.00846484
0.00471178
0.00580681
0.0195699
0.0103754
0.0112705
0.000466854
0.00901526
0.032775
0.00925464
0.00968289
0.0133638
0.0137902
0.0130314
0.0206034
0.0211375
0.0152949
0.00818996
0.020911
0.0117377
0.0216709
0.019389
0.0195622
0.021582
0.0220587
0.0202397
0.00772933
0.000628312
0.0231804
0.00700798
0.0243564
0.0271605
0.0254358
0.00926921
0.0232466
0.0156044
0.00247298
0.00203089
0.00339958
0.0207403
0.0215104
0.021373
0.0198236
0.0237135
0.00968886
0.00802276
0.0217558
0.0241219
0.0114858
0.0214149
0.0230115
0.015257
0.00884126
0.0261748
0.0233648
0.0201028
0.0162815
0.0208324
0.0170705
0.0224454
0.00187595
0.0169867
0.0201193
0.023012
0.0164142
0.0218671
0.0109477
0.0275562
0.0171976
0.00228863
0.0208502
0.00499983
0.000142747
0.00472273
0.0164201
0.0139793
0.0162413
0.0208869
0.0226735
0.00857238
0.0179262
0.0102299
0.0139327
0.0131892
0.0130041
0.00800251
0.0213293
0.0142932
0.0148363
0.0211274
0.0148278
0.0073801
0.00708956
0.0148909
0.0156375
0.0142304
0.0198469
0.0203111
0.00117841
0.0140363
0.0211494
0.020168
0.0145718
0.0149014
0.0122634
0.0152323
0.0266367
0.00132642
0.00730455
0.0222007
0.00342783
0.00978548
0.0105883
0.0100946
0.0247073
0.0261925
0.00327839
0.0267931
0.0238378
0.0170949
0.0170481
0.0242295
0.0176674
0.0223886
0.0210241
0.00420275
0.00934168
0.0254841
0.000468554
0.00074893
0.0243744
0.0227322
0.00396264
0.0241115
0.017722
0.0155112
0.0100798
0.0228825
0.0223265
0.00810277
0.0211573
0.0196543
0.0172853
0.0154428
0.000948378
0.0016331
0.00117014
0.0177994
0.0204292
0.013152
0.0232322
0.0257677
0.0127141
0.0112858
0.00790834
0.00473505
0.028193
0.000125237
0.00324003
0.010139
0.00123846
0.000273643
0.000517301
0.0108268
0.00793142
0.000978265
0.0349923
0.0221555
0.0167384
0.0259223
0.0144633
0.0278362
0.00453414
0.0089505
0.00935432
0.0267811
0.0268916
0.0145265
0.00760225
0.0152352
0.0137501
0.0179822
0.0166897
0.0173721
0.0203592
0.00151472
0.0217277
0.0219457
0.0221135
0.0214795
0.0180277
0.0177731
0.0136888
0.0126005
0.0231001
0.0200473
0.00646341
0.00504757
0.0135817
0.0194686
0.0259739
0.00629293
0.00729321
0.00756094
0.019376
0.0245205
0.0258027
0.0253405
0.0020491
0.00122038
0.0240939
0.000775063
0.0236968
0.0246677
0.0049887
0.00692674
0.00311465
0.0230515
0.00875607
0.0202573
0.0158878
0.0159658
0.0248566
0.0253499
0.0114024
0.0278515
0.0275832
0.018775
0.0172389
7.97907e-05
0.000685637
0.019171
0.0173465
0.0209525
0.0272375
0.041504
0.0277574
0.0218761
0.0277725
0.0220273
0.00272943
0.0202898
0.0234071
0.00316099
0.0219999
0.00536396
0.000595673
0.0215391
0.000760687
0.0100267
0.01089
0.0107786
0.00992898
0.000474408
0.00212654
0.00683488
0.0263836
0.0245926
0.0178171
0.0105839
0.0133939
0.00846429
0.0106321
0.00786196
0.0102924
0.0100971
0.0090992
0.0188458
0.0161562
0.0216691
0.0160183
0.0217007
0.00150848
0.0212409
0.00110461
0.0280582
0.0218941
0.0143249
0.0180281
0.00873725
0.0114737
0.00399844
0.00293397
0.00702734
0.00473045
0.0129594
0.0212513
0.00992654
0.01664
0.0151849
0.0059597
0.0149324
0.0263013
0.00151456
0.00339142
0.00141658
0.0173399
0.0247279
0.0200024
0.00647405
0.00508265
0.0244081
0.00313138
0.0244689
0.0231264
0.0421727
0.0245535
0.0242696
0.0277104
0.0260177
0.0249427
0.0194857
0.00500631
0.0201466
0.0047748
0.0206457
0.0213499
-3.31439e-06
0.0261303
0.0121945
0.00244019
0.0204817
0.025825
0.0201634
0.0231673
0.0202008
0.0102231
0.0124985
0.0194512
0.0219554
0.0240354
0.0257959
0.000785037
0.00340388
0.0164209
0.0217735
0.020453
0.018105
0.0190709
0.00141098
0.0181022
0.00975815
0.0102256
0.00996715
0.00869712
0.0115184
0.0139127
0.000591078
0.0221967
0.0231519
0.0195389
0.00130165
0.0229987
0.0139701
0.0147084
0.0166023
0.0173476
0.0202438
0.0158094
0.0356208
0.00406298
0.0144212
0.0224563
0.0173092
0.0173055
0.00335838
0.0157344
0.0246392
0.0275931
0.0202778
0.00929779
0.0239038
0.00852201
0.0159607
0.0254868
0.0268589
0.0159515
0.0271542
0.0269259
0.0267411
0.0249149
0.0168758
0.0259227
0.0245206
0.0215103
0.0096254
0.0193583
0.0076253
0.00211405
0.0198287
0.00627722
0.0252803
0.0257669
0.0250851
0.0233391
0.0147898
0.0235028
0.0265547
0.00827944
0.00582687
0.0114892
0.0284656
0.0193811
0.0186633
0.00478927
0.00416914
0.0224245
0.00143036
0.0135938
0.0278797
0.0239649
0.0203832
0.0210681
0.0126393
0.0111732
0.00294133
0.0217021
0.000325246
0.00791133
0.024317
0.00106277
0.00302094
0.00468903
0.00616487
0.00362721
0.0171296
0.019264
0.02244
0.0147134
0.00904996
0.0324643
0.00900972
0.0103974
0.0110986
0.023409
0.0211098
0.0265462
0.0239038
0.00748328
0.0133227
0.0129453
0.0129241
0.0150902
0.0183258
0.0183834
0.0213942
0.0203471
0.0190337
0.0139873
0.0103825
0.0105432
0.00258207
0.0201096
0.0239565
0.00855624
0.00354113
0.0359038
0.0135435
0.0245392
0.0165201
0.0248823
0.0298335
0.0193105
0.00866189
0.00735893
0.0158938
0.0264642
0.0252648
0.00654476
0.0280932
0.000251892
-0.000212249
0.0242566
0.0270404
0.0135027
0.0111794
0.0226635
0.00579154
0.0253178
0.0273529
0.0110051
0.0223513
0.0232074
0.0344867
0.00624796
0.0261296
0.0153307
0.0159964
0.0220081
0.0262576
0.00295077
0.020496
0.0280902
0.0273384
0.0292642
0.00625845
0.0229458
0.022366
0.00322493
0.0181293
0.0261917
0.0187439
0.00263753
0.00814054
0.0172559
0.00566139
0.0189826
0.00804555
0.000699446
0.000900898
0.0115426
0.00332436
0.0249317
0.0145734
0.00638934
0.0111329
0.0258278
0.0259134
0.022942
0.0240221
0.0254945
0.0146992
0.00264598
0.00550665
0.0127223
0.0217488
0.0218213
0.0224149
0.0226717
0.015479
0.0151784
0.0137396
0.018861
0.0167363
0.0168568
0.018186
0.0275334
0.0198358
0.0218204
0.0186056
0.0206391
0.0203967
0.0103168
0.0200265
0.0156589
0.00967711
0.0140717
0.031766
0.0158577
0.0353886
0.0209676
0.00608033
0.00941519
0.0184534
0.0300969
0.016918
0.0159774
0.00717461
0.0210485
0.000672173
0.0018062
0.000348726
0.0262128
0.0259855
0.0263654
0.0135514
0.0284855
0.00507074
0.0270081
0.0273987
0.0263291
0.00274032
0.0300472
0.0265516
0.00202808
0.02812
0.0159938
0.0167781
0.0157583
0.0219293
0.0238058
0.0195478
0.0205476
0.0217555
0.0134631
0.0129787
0.00335895
0.0273565
0.0215328
0.0246143
0.0188167
0.0239505
0.0267777
0.00994477
0.0257401
0.00264238
0.0192433
0.00911998
0.0010542
0.00016926
0.0115821
0.024096
0.00909547
0.0220041
0.0223937
0.00755254
0.0235361
0.0087762
0.0282414
0.0223708
0.027844
0.0209936
0.0113884
0.0221366
0.0231833
0.0257236
0.00593013
0.0228124
0.0228251
0.0239097
0.0256716
0.0183347
0.0242588
0.0195433
0.002644
0.0232553
0.00587333
0.0173469
0.018306
0.012568
0.0200705
0.0303579
0.015319
0.0141605
0.0149381
0.0103724
0.0194648
0.00723259
0.0129272
0.0238594
0.0113023
0.0225167
0.00675186
0.0240605
0.0200792
0.00626875
0.0170182
0.0250243
0.00661295
0.0197426
0.0129849
0.00177137
0.000171209
0.00179108
0.0251849
0.0165364
0.0188617
0.0143753
0.0140797
0.0252694
0.027406
0.0265384
0.0201066
0.0261381
0.0213675
0.0276377
0.0145346
0.0281554
0.0279809
0.0279731
0.0270997
0.0263272
0.00318066
0.022122
0.0264024
0.020126
0.0181937
0.0293913
0.0264671
0.0132985
0.0274508
0.0027731
0.0249449
0.0260952
0.0182377
0.0174033
0.0235997
0.0247066
0.0235314
0.00116982
0.0274922
0.0207529
0.00784308
0.000416033
0.0272255
0.00836511
0.00350488
0.00228091
0.000312787
0.0195077
0.00620243
0.0327302
0.00994156
0.0234535
0.0125439
0.00953214
0.0136937
0.0229358
0.00980789
0.0272115
0.0226357
0.0132966
0.0254442
0.0227476
0.019521
0.0304897
0.0206049
0.0261978
0.0168338
0.0282473
0.0167531
0.0166505
0.00353531
0.0212234
0.0200461
0.0212744
0.0245026
0.0179313
0.0283362
0.0212082
0.0206148
0.00288611
0.00633807
0.0284585
0.0149693
0.00555819
0.0150804
0.0375421
0.00911088
0.0294036
0.0068318
0.00134619
0.0113112
0.0117477
0.0104288
0.0194553
0.0060039
0.0181461
0.022757
0.016215
0.00541178
0.00585891
0.0266519
0.00166325
0.0198337
0.0184523
0.01224
0.0248719
0.029674
0.0129029
0.0248476
0.0232532
0.0205635
0.000414268
0.0200645
0.0224303
0.02654
0.0270909
0.0305896
0.0284171
0.00353568
0.00234397
0.0286814
0.0034261
0.0257356
0.0275319
0.0255432
0.00554339
0.0314318
0.012074
0.0227754
0.0273675
0.0247118
0.025464
0.0244475
0.0232734
0.0212849
0.0125049
0.0233614
0.0176679
0.00206552
0.0115889
0.0255873
0.0232668
0.0301203
0.0317646
0.00162425
0.0165762
0.00271723
0.00517909
0.0267509
0.00511164
0.00437086
0.0281103
0.00647852
0.0109617
0.016173
0.0271604
0.00028946
0.0265304
0.0228417
0.0125753
0.0260895
0.0277691
0.0143784
0.0261599
0.0211829
0.0280933
0.0260964
0.0256817
0.0189609
0.0291036
0.0202472
0.00588699
0.00620102
0.0282642
0.0210559
0.0258143
0.0313731
0.0232496
0.0247871
0.0309251
0.00618724
0.028081
0.027428
0.0282011
0.0154535
0.0406758
0.00476094
0.007964
0.0124959
0.0115465
0.0305001
0.00920933
0.0223768
0.0177615
0.0185453
0.0173364
0.00631169
0.0113765
0.00740445
0.0265371
0.00123802
0.0282575
0.0287977
0.0291431
0.0137665
0.0241748
0.0360738
0.0224568
0.00202047
0.0259031
0.00868626
0.0108645
0.0297047
0.0139343
0.0293374
0.0298306
0.0199713
0.00318365
0.0264849
0.0254337
0.0263604
0.0195978
0.0260631
0.0260438
0.025135
0.0221941
0.0228526
0.0235186
0.0236368
0.0194325
0.018072
0.00181083
0.0271026
0.0163949
0.0175795
0.0191754
0.00975637
0.00818613
0.0326732
0.0254365
0.0232892
0.0296288
0.0306414
0.011474
0.00470086
0.00792974
0.0320709
0.0165192
0.00843298
0.0274081
0.00714816
0.0239124
0.0137145
0.00601462
0.00575645
0.0224332
0.0130319
0.0245957
0.00102324
0.0216487
0.00226832
0.0234511
0.0134145
0.019592
0.0201011
0.0190706
0.0246822
0.023927
0.0269672
0.00831227
0.0368189
0.0355363
0.0312648
0.0215346
0.0212704
0.0165585
0.0225213
0.025151
0.0264269
0.0302207
9.37099e-05
0.0117529
0.0129951
0.0399712
0.0270707
0.00335524
0.0278741
0.00342229
0.0158899
0.0182355
0.0111385
0.00812087
0.0314164
0.025501
0.00865479
0.0171343
0.0324189
0.0110448
0.00681044
0.000570463
0.0158236
0.00235871
0.0291715
0.00690359
0.0309626
0.036749
0.00944894
0.0258174
0.000347029
0.000369118
0.0089698
0.0298833
0.0298668
0.0284599
0.0252674
0.00189138
0.0195012
0.0418891
0.0186791
0.025139
0.0239667
0.0248958
0.0252417
0.0199896
0.0276606
0.0245251
0.00860149
0.0021227
0.00240198
0.00242359
0.0235144
0.0262923
0.0147169
0.0262432
0.00618735
0.00641719
0.00729973
0.0226386
0.0306467
0.0302201
0.0317213
0.0179288
0.00890828
0.0278352
0.00843345
0.0225274
0.0244433
0.0253101
0.0137863
0.0278021
0.0125756
0.0230383
0.0239231
0.0228778
0.0120912
0.0171539
0.0424833
0.0106979
0.00273551
0.021828
0.0186625
0.0233019
0.01503
0.0175349
0.0189267
0.0202018
0.0167125
0.0243817
0.035272
0.01811
0.0273676
0.0126032
0.0224615
0.017084
0.0216739
0.0235435
0.0222084
0.0299531
0.00423113
0.0294041
0.0194695
0.000929916
0.012757
0.0308458
0.0276294
0.0163223
0.00388699
0.0249855
0.00902376
0.031701
0.00908038
0.0258507
0.0244744
0.0287627
0.0218395
0.0265323
0.0181392
0.00305009
0.0237946
0.00271934
0.0289084
0.000283123
0.000994944
0.00603678
0.00219478
0.0197648
0.00103457
0.0319845
0.0322156
0.0270619
0.0278657
0.0303053
0.0303651
0.0293457
0.0297399
0.00830941
0.032382
0.0292685
0.00644941
0.0277286
0.0340974
0.0190921
0.000108712
0.0267171
0.0290287
0.0249693
0.0232801
0.0262614
0.0312189
0.00296586
0.0274832
0.0013577
0.000735659
7.19302e-05
0.0239385
0.0169419
0.00739249
0.0138888
0.0271871
0.0401478
0.0190916
0.0248919
0.0255452
0.0310371
0.00252829
0.0422195
0.0286481
0.00832535
0.0203367
0.00988021
0.0213771
0.0262926
0.010055
0.0282538
0.0219816
0.0119313
0.0187551
0.0114869
0.0232064
0.0186432
0.029754
0.0305828
0.00871898
0.0159019
0.0192889
0.0188187
0.0255241
0.0359222
0.0130326
0.0254194
0.0194575
0.0128283
0.0164919
0.032452
0.0182495
0.0167405
-0.000151367
0.0344813
0.0337524
0.0011051
0.0278265
0.00212831
0.0209502
0.0318483
0.00473542
0.0295947
0.0295108
0.0314183
0.030147
0.0242219
0.0249
0.0271861
0.00739726
0.0262342
0.0091553
0.00244478
0.0138851
0.00374241
0.024898
0.026971
0.0114973
0.0114741
0.0140193
0.0315193
0.00355466
0.0269516
0.0160512
0.0311419
0.0220749
0.030449
0.0293717
0.0328331
0.0291683
0.00137516
0.0193981
0.0290302
0.0202697
0.0264319
0.025493
0.00537224
0.0306344
0.0232244
0.0320778
5.56251e-05
0.0291983
0.00739469
0.0157234
0.00211365
0.0248883
0.0240998
0.0377284
0.0230613
0.00771802
0.0285708
0.0272642
0.000841548
0.000589636
0.0371559
0.0254938
0.00887206
0.0412929
0.0101982
0.0160766
0.0278582
0.000366281
0.00322158
0.0422385
0.00811186
0.0121822
0.012028
0.0198369
0.0272222
0.0157009
0.0114215
0.0278634
0.0313123
0.0289497
0.02702
0.0158892
0.0272502
0.0191389
0.0117481
0.0240206
0.0236359
0.0191885
0.0217203
0.0157651
0.0148038
0.027509
0.0282466
0.0286586
0.0238579
0.0338795
0.0230439
0.0239102
0.0224841
0.0235911
0.0285319
0.0205137
0.00458329
0.0310419
0.0300554
0.0280583
0.00476961
0.0267193
0.0232785
0.026068
0.0237384
0.0318113
0.0278819
0.00365675
0.0112495
0.0314714
0.0317248
0.0342617
0.00309592
0.0153295
0.0107718
0.0293502
0.0284027
0.0304166
0.0340007
0.0343303
0.0295149
0.0337154
0.0290807
0.0285926
0.0183839
0.0304372
0.0257534
0.0336793
0.040656
0.0255269
0.0238474
0.0420436
0.0210562
0.0149951
0.031379
0.0173113
0.0337049
0.000963364
0.0261821
0.0162006
0.0387738
0.0252692
0.0240995
0.0320802
0.0154347
0.00102586
0.0141745
0.0390648
0.000256631
-0.000163063
0.0258393
0.0100702
0.0108736
0.0107029
0.00768632
0.00652213
0.00729257
0.00587741
0.0115189
0.0299415
0.0335223
0.00340435
0.0302307
0.0268062
0.00268077
0.0254055
0.0309903
0.0314067
0.0177222
0.021824
0.0166657
0.0307785
0.0173543
0.0267796
0.0238372
0.0177034
0.0246614
0.030095
0.0170575
0.0167071
0.0244573
0.0240345
0.020378
0.0327741
0.00384603
0.0344926
0.0209842
0.0179637
0.0197424
0.0310433
0.0135566
0.0104568
0.0311607
0.0276374
0.028401
0.0303332
0.0386628
0.0350165
0.0313188
0.0283055
0.0308862
0.0325059
0.0314916
0.0195359
0.0331056
0.0316258
0.00920978
0.0283025
0.0209615
0.0330181
0.0274271
0.0325175
0.0163437
0.0292742
0.0206775
0.0240602
0.0304293
0.0328988
0.00888804
0.0268732
0.0213928
0.0206513
0.0218262
0.0336489
0.0275632
0.0290689
0.000583948
0.0246968
6.69397e-05
0.0289147
0.00241821
0.0396976
0.0100167
0.0205453
0.00806829
0.00777612
0.00701409
0.0266914
0.0290111
0.019921
0.0204108
0.0266416
0.0181638
0.0304335
0.0312501
0.0227138
0.0342692
0.0297019
0.0344705
0.0298617
0.027925
0.0321101
0.0181447
0.0235324
0.0242828
0.0192975
0.00433648
0.0323849
0.0317891
0.0376567
0.00984588
0.0297572
0.0265215
0.0105399
0.0241392
0.0294951
0.0257453
0.0335566
0.0318613
0.030429
0.0331465
0.0246717
0.0316924
0.0330579
0.0319883
0.0313964
0.0262314
0.0293684
0.0232128
0.0339399
0.0284544
0.0422674
0.0416064
0.0274476
0.0335843
0.0269616
0.0265057
0.0258005
0.0220649
0.0311245
0.0276013
0.0297762
0.0310862
0.0340192
0.0299526
0.0255092
0.028389
0.0284891
0.033191
0.027536
0.0293703
0.0312554
0.0324591
0.00231827
0.0300455
0.00318702
0.00366119
0.00404814
0.00205036
0.0295804
0.00631748
0.000720965
0.0217626
0.0293139
0.0400885
0.0408146
0.0338703
0.0271268
0.0332029
0.0180672
0.0373537
0.0239781
0.0263597
0.0287163
0.0310557
0.0203664
0.0306726
0.0320456
0.0232447
0.024922
0.0319187
0.0251394
0.0367866
0.0320934
0.0356129
0.0110101
0.00201419
0.0297207
0.0294587
0.0289662
0.0357863
0.0303823
0.0364434
0.0304595
0.0327639
0.0191889
0.0340516
0.024595
0.0328424
0.0261065
0.0332374
0.0341942
0.0208408
0.0302414
0.0224385
0.031346
0.0223848
0.0316598
0.0275098
0.0264828
0.031616
0.0305832
0.0275117
0.0306132
0.0209283
0.0364871
0.0285399
0.0302703
0.0312568
0.0325769
0.00889111
0.0220734
0.0330153
0.00325799
0.00428811
0.0336352
0.0296124
0.000514773
0.0401824
0.0267653
0.0370492
0.0291445
0.0253972
0.0253843
0.0350182
0.029351
0.0251771
0.0265175
0.0285604
0.0292742
0.0290134
0.0376757
0.0322078
0.0323561
0.0217782
0.0218452
0.0340692
0.0275504
0.0322541
0.0322334
0.0363838
0.0401394
0.0383086
0.0256248
0.0341042
0.0269379
0.0316501
0.0309713
0.0265215
0.0120992
0.0335534
0.0405175
0.0329034
0.0252943
0.0291692
0.0253034
0.0416773
0.0233548
0.0299862
0.0253788
0.0265609
0.0317725
0.0335547
0.0267839
0.0321183
0.0314815
0.0285809
0.032625
0.0316794
0.0316186
0.0283324
0.0341027
0.0342557
0.0336692
0.0288893
0.0332397
0.0333084
0.0329621
0.0105454
0.0337533
0.0239617
0.0247771
0.0304271
0.0363487
0.0241705
0.0294383
0.034131
0.0288708
0.0295456
0.0255603
0.0382092
0.0284756
0.0334445
0.0242312
0.0243184
0.0292636
0.0338462
0.0241128
0.0287915
0.0285841
0.0332844
0.0338306
0.028847
0.0291469
0.0362698
0.0361483
0.0298169
0.0357326
0.0349918
0.0315354
0.0359651
0.0147046
0.03579
0.0338592
0.033325
0.0336446
0.0321356
0.0335953
0.0371147
0.030353
0.0334116
0.0267547
0.0306151
0.0275648
0.0316227
0.0316199
0.0383142
0.0321657
0.0380647
0.0381661
0.0274211
0.0312835
0.0327778
0.022005
0.0282816
0.0293399
0.0293544