/*--------------------------------*- C++ -*----------------------------------*\
| =========                 |                                                 |
| \\      /  F ield         | OpenFOAM: The Open Source CFD Toolbox           |
|  \\    /   O peration     | Version:  2212                                  |
|   \\  /    A nd           | Website:  www.openfoam.com                      |
|    \\/     M anipulation  |                                                 |
\*---------------------------------------------------------------------------*/
FoamFile
{
    version     2.0;
    format      ascii;
    arch        "LSB;label=32;scalar=64";
    class       surfaceScalarField;
    location    "0.04";
    object      phi;
}
// * * * * * * * * * * * * * * * * * * * * * * * * * * * * * * * * * * * * * //

dimensions      [0 3 -1 0 0 0 0];

oriented        oriented;

internalField   nonuniform List<scalar> 
68568
(
-1.49021e-07
1.53886e-07
-2.90271e-08
2.41617e-08
1.43472e-07
-7.33533e-08
-7.61637e-08
6.04497e-09
1.73686e-07
-1.3266e-07
-5.90388e-08
1.80132e-08
-4.39034e-09
2.18867e-09
-1.66505e-07
1.68707e-07
-1.23575e-09
1.39528e-07
9.89936e-10
-1.39282e-07
1.37474e-07
-4.80493e-10
-1.26399e-07
-1.05943e-08
8.23654e-08
-8.75705e-08
1.28485e-07
-1.2328e-07
-3.89411e-08
-2.66269e-08
1.47933e-07
1.29299e-07
-1.53925e-08
-1.0905e-07
-4.85607e-09
1.47481e-07
5.28303e-08
-5.68393e-08
9.94055e-08
1.35639e-07
-6.13584e-08
-6.34266e-08
-1.99129e-07
1.89203e-07
-1.38387e-07
6.78043e-08
-5.58089e-09
1.80536e-07
-1.86052e-07
1.35175e-08
-8.00182e-09
-6.94119e-08
-5.09288e-08
1.19175e-07
1.16589e-09
1.26445e-07
8.69941e-08
-1.29196e-07
-8.42429e-08
-5.05105e-08
-7.77676e-08
1.13651e-07
1.46273e-08
1.11376e-07
-1.1644e-07
-4.54466e-08
1.10539e-07
-4.44616e-09
-6.51561e-10
-1.05441e-07
8.47173e-08
-1.53035e-07
7.67422e-08
-8.42412e-09
1.12072e-07
-4.39114e-10
-1.11542e-07
-9.02298e-11
-1.77379e-08
8.93639e-09
1.39114e-07
-1.30312e-07
-4.53753e-08
1.87972e-07
-2.71782e-08
-1.15419e-07
-7.04002e-10
-4.71949e-10
-1.35099e-07
1.36275e-07
-7.4384e-08
-4.83703e-08
1.15904e-07
6.85033e-09
-9.66059e-08
-3.96468e-08
-1.27684e-08
-6.45532e-08
1.4081e-07
8.46033e-09
7.68143e-08
4.54483e-08
-3.01465e-08
-9.2116e-08
-6.77265e-08
-9.91862e-08
1.27972e-07
4.84752e-08
-1.19597e-07
3.3948e-09
1.52345e-07
-8.13225e-08
-1.4351e-07
7.24876e-08
-1.32536e-08
2.52002e-09
1.16745e-07
-1.06011e-07
1.55793e-07
-3.25383e-08
-1.11085e-08
-1.12146e-07
1.19264e-07
-9.15103e-08
-5.86595e-08
3.09055e-08
-5.00153e-10
1.09202e-07
-1.08749e-07
4.69054e-11
1.21254e-07
8.48803e-08
-8.50452e-08
6.31565e-10
-4.66731e-10
4.28818e-08
-1.58949e-07
9.24993e-08
2.35678e-08
-1.61349e-07
1.402e-07
6.40306e-08
-7.39063e-08
-1.83634e-10
-2.94133e-10
-8.39549e-10
1.14002e-07
-1.09075e-09
1.12602e-07
-1.12245e-07
-5.57294e-10
2.00721e-10
-2.6472e-08
-1.5729e-07
1.19261e-07
1.933e-07
-1.47173e-07
-1.65388e-07
-6.16174e-08
-1.03303e-07
2.91366e-07
-1.45804e-07
1.63167e-07
-1.37001e-07
1.19638e-07
-1.23625e-07
6.55754e-08
-5.37748e-09
1.14791e-07
-1.12064e-07
-3.54247e-09
8.15718e-10
9.78511e-08
2.51022e-08
1.17362e-08
-1.34689e-07
2.15037e-09
-1.52017e-07
1.47379e-07
3.39659e-08
-2.93275e-08
-8.45587e-09
-9.36607e-08
1.01784e-07
3.32417e-10
-1.49034e-07
1.3743e-07
1.79436e-07
-1.65743e-07
-3.67326e-10
-2.09073e-10
2.04928e-09
-1.62616e-09
1.08647e-07
-1.0907e-07
3.94311e-08
-1.15108e-07
-2.09039e-09
9.18308e-08
-9.82035e-08
3.77228e-09
2.60038e-09
-8.54988e-08
1.41843e-07
-6.2434e-08
6.08967e-09
1.46675e-07
-7.60108e-08
-7.41133e-08
3.44951e-09
9.08825e-08
-9.1113e-08
-4.7352e-10
-1.11901e-07
-1.71846e-09
1.15808e-07
7.57012e-08
7.14176e-08
-7.67523e-09
-1.39444e-07
-5.98901e-09
1.35594e-07
-1.30408e-07
8.02458e-10
8.85923e-08
-1.50109e-07
-3.03632e-09
1.08195e-07
-1.7908e-08
3.36807e-08
-1.23968e-07
1.49478e-07
-2.33695e-08
-1.69429e-07
4.33202e-08
4.06801e-08
8.18401e-08
-1.1981e-08
6.43822e-08
-1.27494e-07
6.9899e-08
-6.78728e-09
1.34806e-07
-1.35894e-07
-1.47819e-10
-1.00391e-07
1.43267e-07
-3.16892e-08
-1.11862e-08
-2.04895e-07
-1.50296e-07
2.87283e-07
6.79074e-08
-1.19076e-07
1.62578e-11
1.23725e-07
-6.46849e-09
1.34785e-07
-1.43028e-07
-5.37763e-08
6.20193e-08
-1.25545e-07
6.48416e-08
6.66378e-08
-5.93406e-09
-3.8649e-08
-5.25565e-08
-4.85616e-08
-1.00929e-07
1.01206e-07
-4.56588e-10
1.79788e-10
3.99848e-08
1.7367e-07
-6.698e-08
1.04792e-07
-6.30877e-08
5.01265e-08
-7.29535e-08
-8.00423e-08
1.49039e-07
3.95696e-09
-5.47045e-10
-2.18843e-07
-6.26121e-10
2.20016e-07
7.42418e-08
-4.65526e-08
8.49127e-08
-2.08511e-10
6.47592e-08
-6.45933e-08
4.2613e-11
-1.91153e-08
1.39723e-07
6.71718e-08
-1.87779e-07
1.70099e-07
-8.59724e-08
-8.91904e-08
5.06381e-09
1.19277e-07
3.7844e-08
-3.62039e-08
-1.20917e-07
1.63133e-07
-7.68151e-08
7.60811e-08
-1.62399e-07
3.50655e-08
1.3215e-08
1.14853e-07
-8.83908e-08
8.41196e-08
-1.62234e-07
1.24487e-07
9.78231e-10
-1.216e-07
-3.86523e-09
-3.95761e-08
-2.79198e-07
1.9515e-07
8.37262e-08
8.61118e-08
-6.6711e-09
-4.39599e-10
5.26179e-10
9.35486e-08
-9.36352e-08
-1.23692e-07
1.23555e-07
-3.3564e-10
-5.98175e-08
1.19383e-07
6.00968e-09
7.32625e-09
8.73169e-08
-4.9546e-09
-8.96886e-08
-1.27847e-07
5.64095e-08
8.93007e-08
-1.78632e-08
-4.40667e-08
-8.0919e-08
-1.01128e-08
-8.30295e-08
1.61228e-07
5.52748e-09
7.21376e-08
7.52414e-08
-1.42293e-07
-5.08631e-09
1.13677e-07
8.9267e-10
-1.14503e-07
-6.64073e-11
-6.18351e-09
-1.94052e-07
-1.39897e-08
2.03389e-07
-6.18363e-09
1.20078e-07
-1.21458e-07
5.73292e-08
-7.46449e-09
9.75661e-08
-4.33792e-10
-9.60559e-08
-1.07639e-09
1.2212e-07
-8.06955e-10
1.3551e-07
-4.61714e-08
8.07604e-08
1.27068e-10
-1.03779e-07
-3.36231e-09
1.11499e-07
-4.35709e-09
9.09433e-08
-5.01297e-08
-9.01744e-08
6.75298e-11
8.99728e-08
1.34052e-10
-3.49279e-08
-1.35861e-07
1.4466e-07
2.61294e-08
-2.11157e-09
1.3047e-07
-1.2797e-07
-3.88468e-10
-8.80167e-08
-3.66192e-08
1.24985e-07
-3.4904e-10
-4.22394e-09
2.05547e-09
-1.09733e-07
-1.63254e-07
8.71686e-08
8.12684e-08
-5.18261e-09
3.22628e-10
-1.00755e-07
1.00676e-07
-2.43328e-10
1.37682e-07
-7.52119e-10
-2.53912e-10
-1.10517e-07
2.9944e-10
1.10471e-07
-4.10624e-08
2.09391e-08
2.80283e-08
1.31227e-07
-7.1773e-08
4.9285e-09
1.40399e-07
-1.39536e-07
-1.41166e-08
-1.23754e-07
1.39669e-07
1.90818e-08
-3.49963e-08
7.19776e-08
-7.32311e-08
1.50732e-07
3.83677e-09
1.13104e-07
1.51872e-07
-1.29883e-09
-1.52685e-07
6.84634e-08
-1.42862e-07
-4.41468e-09
7.88128e-08
1.42892e-07
-7.87644e-08
8.00998e-09
9.98741e-08
-9.77558e-08
-1.12374e-07
5.80395e-08
-3.0711e-08
-1.4973e-07
1.42757e-07
-1.91229e-08
2.60959e-08
1.60887e-07
4.59839e-08
-5.07662e-08
-1.54973e-07
-7.37397e-08
-3.02341e-08
8.06017e-08
2.33721e-08
-1.30413e-07
6.8627e-08
-5.44445e-08
1.1623e-07
-1.52073e-07
-3.3521e-09
1.58415e-07
-2.98999e-09
-1.08928e-07
2.06553e-08
-6.37998e-08
-1.63427e-07
-6.28593e-09
9.47418e-08
-1.39964e-09
-1.12389e-07
-5.31434e-10
-1.08905e-07
1.39741e-07
-7.39129e-08
6.01543e-09
1.55736e-07
-8.32088e-08
-7.90014e-08
6.47456e-09
-1.34192e-07
1.80153e-07
-4.63216e-08
3.6036e-10
8.22031e-08
-8.28162e-08
-1.33578e-07
9.48901e-08
7.33276e-09
-2.34871e-09
6.51119e-10
1.04657e-07
-1.04133e-07
-1.17522e-09
1.89877e-07
-4.82048e-08
-1.03828e-07
-1.08666e-07
7.79699e-08
1.14998e-07
-1.10359e-07
-2.58304e-09
-1.80928e-09
1.01855e-07
-1.00372e-07
3.2625e-10
-9.70283e-09
-1.34964e-07
1.32046e-07
1.26204e-08
-1.39313e-07
1.56082e-07
-9.84915e-09
-6.92039e-09
1.21055e-07
-6.63338e-08
-5.30441e-08
7.14477e-09
-7.99509e-09
-9.76784e-08
9.72176e-08
3.28842e-08
-6.75937e-09
-1.35053e-07
-2.00974e-08
1.10511e-07
-8.41755e-08
-6.23829e-09
1.60096e-07
-6.74425e-09
-1.37072e-08
-1.39645e-07
1.56608e-07
1.57942e-10
-2.61208e-09
-1.54154e-07
1.36233e-07
-1.3476e-09
-7.9221e-11
1.2914e-07
-1.29402e-07
2.55185e-10
6.90929e-12
-1.25302e-07
-8.16878e-08
1.2607e-07
2.11231e-08
-1.70038e-07
-1.10738e-07
1.10533e-07
5.41076e-11
1.51437e-10
-1.33944e-07
-7.25549e-09
1.88692e-09
-1.01973e-07
-1.91426e-11
1.01967e-07
2.46616e-11
-1.22142e-07
-2.66786e-10
1.22513e-07
-1.03796e-10
-8.95703e-09
1.19399e-07
-1.01946e-07
-7.57603e-09
-1.02739e-07
1.02338e-07
1.47263e-10
1.79964e-08
2.85431e-08
8.74081e-08
-1.32588e-07
7.25589e-08
-7.2881e-08
1.43973e-07
-1.43651e-07
1.03223e-07
-8.12252e-08
-2.41827e-08
2.1846e-09
1.15196e-07
-1.56321e-08
-1.07346e-07
9.89683e-09
5.67596e-09
-1.0852e-07
1.22698e-07
-1.98546e-08
-5.65425e-10
1.02182e-07
-1.01183e-07
-4.339e-10
-1.40516e-07
-8.44861e-09
1.64783e-07
2.0563e-07
-8.76687e-08
1.85693e-07
1.52945e-07
-7.63065e-08
5.56435e-09
-3.10703e-08
2.5746e-08
-1.08435e-07
1.16455e-07
8.80066e-08
9.31026e-08
-7.43928e-09
9.26858e-08
7.21861e-08
-1.59016e-07
-5.85611e-09
8.16064e-08
7.89336e-08
-7.59491e-09
1.21189e-07
-7.49784e-08
8.293e-08
7.34149e-08
-1.24473e-07
5.9282e-08
-8.22372e-09
6.732e-10
-9.86217e-08
-1.23771e-09
3.37198e-10
-3.08778e-07
1.84326e-07
1.89979e-07
-1.20582e-07
3.85451e-08
9.3898e-09
4.32487e-08
4.51554e-08
-9.77939e-08
-1.27567e-07
1.93269e-09
1.26778e-07
-1.14338e-09
-9.79609e-08
9.75231e-08
-3.00956e-11
4.67849e-10
1.27963e-07
-1.65642e-07
1.9587e-07
-1.5819e-07
1.5449e-08
-1.42394e-09
1.25503e-07
-3.1421e-08
7.37168e-09
-7.31782e-08
9.72275e-08
-7.15524e-08
1.3891e-07
5.20111e-09
-1.45143e-07
7.5373e-08
7.49316e-08
-5.16215e-09
-1.09999e-07
-2.47614e-08
1.14663e-07
4.77386e-10
7.64096e-08
-6.37057e-11
-7.68233e-08
1.45116e-07
-6.59455e-08
7.66224e-08
1.34484e-09
-1.15493e-10
7.84195e-11
-9.63617e-08
1.76854e-07
-4.72107e-08
-2.92553e-08
-1.00388e-07
3.33919e-09
2.94672e-08
-1.13788e-07
8.47272e-08
-3.36934e-08
2.24849e-08
1.95275e-07
-7.23562e-09
1.6514e-07
-1.77355e-07
-6.23481e-08
-6.68532e-08
5.44714e-09
1.30528e-07
6.29154e-09
-7.04749e-08
-7.14626e-08
1.34643e-07
7.29436e-09
6.34531e-09
1.08711e-07
-1.46544e-07
-1.50406e-10
6.95185e-08
-6.88941e-09
-6.5218e-10
-1.3388e-07
1.36316e-10
1.34396e-07
-1.35585e-07
1.64875e-07
-4.18762e-08
1.10805e-08
-9.43021e-09
5.07157e-08
1.10587e-07
-1.27904e-07
7.46364e-08
-2.67918e-08
8.00596e-08
-1.39976e-07
9.43417e-08
-1.28075e-07
1.26505e-07
2.71421e-10
9.19658e-08
2.18485e-08
-1.65474e-07
-2.15502e-08
1.65176e-07
-1.81717e-07
9.96438e-08
-1.3677e-07
-1.68872e-09
1.64663e-07
2.4092e-08
6.62713e-08
-9.49921e-08
4.62883e-09
7.38326e-08
-4.06983e-08
3.6205e-10
-9.94712e-08
4.8215e-10
-2.33912e-07
2.33841e-07
-5.55231e-10
-9.49084e-08
-9.9369e-08
-9.28905e-08
1.00918e-07
-1.10767e-07
8.37158e-08
-1.06177e-07
1.70128e-08
5.44815e-09
1.25204e-07
-9.02655e-08
-9.19277e-09
-1.54164e-07
-1.10209e-08
2.09135e-08
1.44271e-07
-3.08136e-07
-3.04559e-10
-1.30771e-07
1.29967e-07
3.6513e-10
-9.30307e-08
-8.82224e-11
2.28491e-10
-1.41545e-08
-9.38823e-08
1.5053e-07
-4.24933e-08
1.07787e-07
5.37896e-09
4.3442e-08
-1.34567e-07
1.33669e-07
-3.54853e-09
-5.67801e-08
1.42316e-07
-9.88742e-08
3.06643e-10
-1.27588e-07
-2.85248e-10
9.16405e-08
-9.34872e-08
2.20533e-10
-6.61126e-08
-6.57557e-08
1.24096e-07
7.77258e-09
1.12922e-07
1.7581e-08
-9.6837e-08
-3.36659e-08
4.69681e-08
1.52126e-07
-1.88931e-07
-1.21152e-08
-1.10032e-07
-1.93495e-08
1.27016e-07
3.57589e-11
-1.27324e-07
2.72133e-10
2.39591e-08
7.63096e-09
5.42878e-08
-8.58778e-08
-1.41218e-07
7.58086e-08
-5.06555e-09
-1.15363e-07
1.12105e-07
-6.89608e-09
-3.60327e-10
1.21196e-07
3.53212e-10
-8.0043e-08
-7.17787e-08
1.44712e-07
7.10921e-09
1.2899e-07
-6.9342e-08
-6.65478e-08
6.89965e-09
1.29263e-07
-2.23682e-09
-1.00611e-11
-1.01093e-07
-9.1384e-08
9.94464e-08
-1.29843e-07
-4.68243e-08
3.4388e-09
1.74291e-07
-1.05793e-07
2.96108e-08
-1.28713e-07
1.69555e-10
-1.05311e-07
5.91446e-10
-6.95237e-10
1.3427e-07
2.55965e-08
-2.73536e-08
-1.32513e-07
4.59888e-08
-1.29555e-07
-5.27884e-11
1.11218e-10
3.88521e-08
-1.93929e-07
-7.82299e-08
1.32168e-07
8.93289e-08
2.06434e-08
-1.45726e-07
-1.8348e-08
1.43431e-07
-8.13591e-08
6.30444e-09
1.32981e-07
-1.31818e-07
9.16921e-08
4.15933e-08
-1.46757e-09
-5.79744e-10
1.08542e-10
-9.69702e-08
6.66004e-08
-4.55806e-09
-1.51295e-09
-2.95911e-09
-2.34943e-09
9.54084e-08
-9.00998e-08
8.2357e-08
1.04967e-07
-1.03526e-07
-8.37985e-08
1.48831e-07
-1.66149e-07
3.67545e-10
1.39494e-10
1.57157e-07
-1.01983e-08
-1.38022e-07
-4.24629e-08
1.52549e-07
1.0969e-08
1.18694e-07
-1.11945e-07
-5.79651e-09
-9.52837e-10
-1.02664e-09
1.14112e-07
1.64272e-07
-5.70877e-08
-2.39215e-09
9.38947e-08
-8.33016e-08
-5.22188e-10
3.16171e-10
1.40605e-07
-1.55476e-07
6.68722e-09
1.4287e-07
3.81237e-09
-1.1982e-08
1.56067e-07
-1.95513e-07
4.20815e-08
1.0305e-09
9.04746e-08
-8.82334e-10
-9.06228e-08
-1.17559e-07
1.17775e-07
-1.37189e-10
1.13134e-09
-2.34845e-10
-1.11961e-07
1.1097e-07
-3.63862e-11
-1.09999e-07
-2.52314e-10
2.18511e-10
7.1489e-08
-1.02703e-07
-7.64682e-08
1.07682e-07
1.71775e-11
-1.15491e-07
1.15623e-07
-1.49327e-10
-4.06008e-08
8.25621e-08
-1.19602e-08
-1.95632e-08
-1.4096e-07
7.32986e-08
-6.07845e-09
2.81429e-08
-1.59101e-08
1.06461e-07
-1.35587e-07
6.5344e-08
6.29652e-08
7.27802e-09
-1.58589e-07
-1.10877e-07
1.11508e-07
-1.26214e-07
-4.3191e-08
5.78972e-08
1.29878e-07
-1.30629e-07
2.16071e-10
5.35355e-10
-1.77137e-09
-1.83941e-07
1.53575e-10
1.85559e-07
-1.05453e-07
4.75032e-11
1.05442e-07
-1.27707e-07
-9.97227e-11
4.83251e-10
7.23731e-08
-1.27809e-07
-6.91185e-09
2.67678e-10
-1.29498e-07
-1.72337e-10
7.62346e-08
7.67107e-08
-5.56667e-09
-7.36404e-08
-7.38576e-08
1.41236e-07
6.26213e-09
-1.16956e-07
8.84262e-10
1.15857e-07
2.14109e-10
1.24314e-07
3.06903e-08
1.10645e-07
-1.56688e-08
1.08172e-07
-5.60057e-09
-9.89976e-08
4.66729e-08
4.50661e-08
7.25864e-09
3.59791e-08
1.28376e-07
-3.79163e-08
-1.22236e-07
7.34828e-08
-7.14486e-08
-1.31421e-07
-1.05888e-07
1.16344e-07
1.20964e-07
1.08768e-07
-1.45361e-10
1.15585e-07
-1.16974e-07
1.40726e-09
-1.8172e-11
-1.31138e-07
-1.28884e-07
8.46859e-10
6.71197e-11
1.70346e-08
3.64045e-08
-1.58194e-07
1.51703e-08
-4.31758e-08
1.96583e-07
1.34128e-07
-1.10825e-07
-2.60434e-08
3.06923e-09
1.92921e-08
-2.12353e-08
1.33021e-07
-3.30343e-08
-7.87509e-08
1.06214e-07
-6.67382e-10
-1.05318e-07
-2.29155e-10
-4.17218e-08
-1.44629e-07
2.87192e-07
-1.00841e-07
1.04344e-07
-7.94449e-08
-8.07479e-10
-1.55106e-12
1.0253e-07
-3.4622e-10
7.34804e-08
-7.39669e-08
1.29767e-07
-1.70707e-07
-1.30185e-07
7.92936e-08
1.26265e-07
-2.3248e-09
-3.02387e-08
-8.20854e-08
7.10652e-08
8.49349e-08
8.27171e-09
1.63923e-07
-1.24603e-07
2.98642e-09
1.4785e-07
-7.99392e-08
7.02054e-09
1.20154e-07
-1.59224e-07
1.29116e-07
-7.88611e-08
-3.4491e-08
-1.38834e-08
1.85081e-09
1.04107e-07
-1.15661e-07
6.8106e-08
-1.28935e-07
-5.2841e-09
1.49008e-07
7.54684e-09
-4.48136e-08
1.34874e-07
-9.05604e-08
-2.20575e-09
-2.55371e-08
1.39394e-07
-1.56413e-07
4.25562e-08
1.16401e-07
2.09501e-08
-5.55111e-08
-1.87493e-09
-1.37951e-07
1.379e-07
-8.99722e-10
-2.9928e-08
2.26824e-08
-9.72272e-08
1.04473e-07
7.52673e-08
-1.41648e-07
-5.08228e-09
-1.35726e-07
1.36141e-07
-1.47193e-10
-7.63428e-08
1.57597e-07
-1.22976e-07
-7.22032e-08
-7.94888e-08
1.58309e-08
-1.00349e-07
-1.06445e-10
2.08746e-07
3.01407e-08
-1.35147e-07
-1.06638e-07
-7.37267e-08
1.31965e-07
2.29045e-07
-1.43263e-10
-8.94829e-08
-4.63261e-11
8.96725e-08
3.2407e-08
1.10363e-07
-6.42061e-10
1.49259e-07
6.26933e-09
9.67271e-08
5.66563e-08
2.6987e-09
7.34365e-08
-1.41533e-07
-5.54353e-09
-7.28057e-08
-8.20073e-08
1.46128e-07
8.68459e-09
-9.05087e-08
-4.37052e-09
-4.11838e-09
-6.44442e-08
-1.21165e-07
1.14027e-07
-5.82159e-11
-1.2385e-07
-3.35704e-09
1.21218e-07
-8.99158e-08
-1.36345e-07
9.76054e-08
1.28655e-07
-1.12156e-07
3.8949e-08
7.64199e-08
-3.21269e-09
7.04295e-08
7.0188e-08
-1.33646e-07
-6.9716e-09
-7.137e-08
-6.88014e-08
1.33843e-07
6.32884e-09
5.1791e-08
4.80609e-08
-1.09825e-07
9.97314e-09
-6.73793e-08
1.12394e-07
-3.65877e-08
-8.42693e-09
1.05742e-07
-1.06194e-07
-1.99983e-10
-9.42737e-08
6.46638e-10
8.21216e-08
1.06203e-07
-2.83611e-08
-1.59964e-07
-3.12242e-08
8.90871e-08
3.84285e-08
-9.62914e-08
-9.80529e-08
-4.42534e-12
9.97252e-08
-1.66791e-09
-7.39037e-08
-4.25468e-08
9.52151e-08
1.24291e-07
-3.32832e-09
7.03625e-08
-1.31066e-07
6.5784e-08
-5.08017e-09
-5.85759e-08
4.18032e-08
-1.20832e-07
1.14767e-08
1.30886e-07
-1.05924e-07
-3.53346e-08
7.81062e-08
8.28605e-08
-7.45192e-08
7.63122e-10
-1.22785e-07
-1.204e-10
2.31272e-08
-1.25291e-08
1.03765e-07
-1.17606e-07
5.67229e-08
5.36824e-08
7.20116e-09
7.39509e-08
-4.92147e-09
3.95215e-08
6.35922e-08
7.39761e-09
8.95868e-09
1.27877e-07
-1.05706e-08
-6.44533e-09
-8.25323e-08
8.07001e-08
1.34853e-07
-7.46724e-08
-1.57535e-07
1.58094e-07
1.65407e-07
5.84771e-08
-5.59635e-08
-1.67921e-07
1.43764e-08
-1.29986e-07
1.39569e-07
-7.88282e-08
-7.17949e-08
1.43868e-07
6.75498e-09
-4.67445e-08
-1.12586e-07
1.91306e-09
6.82773e-08
-6.76657e-09
1.30511e-07
-5.90346e-10
-4.31501e-11
2.24222e-08
-8.64178e-08
9.21386e-08
2.1142e-10
2.30444e-10
-1.36168e-07
-2.84502e-09
8.42346e-08
-8.16808e-08
1.14523e-08
-8.44248e-08
1.44311e-07
-7.13389e-08
-2.81074e-08
-1.35779e-07
1.21695e-09
1.6267e-07
9.36697e-08
-1.8017e-07
7.05246e-08
1.59753e-08
-1.23234e-07
9.06948e-08
-9.82327e-08
1.00961e-07
-6.45677e-10
-9.9998e-08
-3.16919e-10
-4.57756e-08
-1.2901e-07
4.62171e-08
1.28569e-07
-7.29653e-08
-1.23331e-07
1.4938e-07
4.69157e-08
-2.87311e-09
-1.42994e-07
1.43653e-07
2.21325e-09
-1.25939e-07
1.25778e-07
-1.60982e-09
-1.44645e-07
1.27828e-07
-6.43131e-08
1.38261e-07
7.10604e-08
-5.94894e-09
7.70415e-08
-1.37427e-07
-6.40882e-08
-1.26595e-07
8.81353e-08
-1.02758e-07
-1.35667e-08
1.42831e-07
-8.81225e-08
-3.49186e-08
1.21137e-07
-1.19115e-07
-3.3713e-09
1.3494e-09
-9.81682e-08
-2.36921e-09
4.17576e-09
1.4988e-10
-1.50507e-07
1.47484e-07
-9.09071e-08
-3.77208e-10
7.75594e-10
-9.32747e-08
7.84145e-08
1.54453e-08
-5.85094e-10
-5.57928e-08
-1.33754e-07
1.79922e-07
9.62465e-09
1.16248e-07
-4.94107e-10
5.66588e-08
4.82957e-08
-1.13784e-07
8.82911e-09
-1.09441e-07
-5.71056e-10
1.09713e-07
2.98736e-10
-1.0692e-07
1.52867e-08
-2.53408e-08
6.34501e-08
-1.2153e-07
5.13265e-08
6.75293e-09
-4.68265e-09
-9.45145e-08
4.28866e-09
1.48733e-09
-1.34523e-07
1.61539e-09
5.38255e-08
7.49689e-08
-1.016e-07
1.99688e-08
6.96296e-08
2.07876e-08
1.27845e-07
-1.28396e-07
5.7471e-10
-2.39674e-11
-2.06866e-07
1.95022e-07
8.58677e-08
-7.40234e-08
5.71831e-08
-1.47401e-07
1.13287e-07
-2.30692e-08
7.4849e-08
-6.73276e-09
-6.80564e-10
-4.45445e-11
5.80155e-08
-6.15566e-08
-1.16258e-07
1.65545e-07
-1.37304e-07
1.14044e-07
-1.50241e-08
6.83783e-10
-1.52506e-07
1.5182e-07
1.30783e-07
-1.59311e-07
-1.39996e-09
-8.75395e-08
-8.32578e-08
1.63929e-07
6.86876e-09
9.48161e-08
1.15395e-10
-9.49811e-08
4.95673e-11
-1.48145e-07
7.92806e-08
7.35064e-08
-4.64207e-09
-2.00575e-07
1.24468e-07
-1.39201e-07
2.15308e-07
-1.9345e-07
2.53218e-08
-4.58283e-08
-1.13373e-07
-1.64507e-07
1.01061e-07
3.79084e-08
-1.47504e-08
-1.28839e-07
1.4043e-07
3.15905e-09
-3.32873e-09
-1.12311e-07
-9.6618e-09
1.15842e-07
-1.12109e-07
1.15992e-07
-3.6647e-08
1.68533e-07
1.31333e-07
1.29131e-07
-1.29909e-07
-1.23671e-07
3.97395e-10
1.19809e-07
-1.20285e-07
7.87592e-11
1.0361e-07
-1.12182e-07
3.89001e-09
-8.04235e-08
-6.32781e-10
7.03237e-08
1.05496e-07
-4.5308e-08
6.39689e-08
-1.23558e-07
-4.72356e-09
-3.14402e-10
1.16666e-07
-1.16475e-07
1.23318e-10
-1.20482e-07
-2.78839e-10
1.21454e-07
-6.93534e-10
-1.22784e-07
4.50461e-08
-3.42066e-08
-1.20158e-08
1.01122e-07
8.09027e-08
-1.16812e-09
-1.80857e-07
3.0108e-09
-1.03054e-10
-1.74017e-08
8.36506e-08
-1.50063e-07
8.3814e-08
-1.29547e-07
1.31475e-07
6.73063e-08
-6.26735e-09
2.81043e-08
-1.34526e-07
-3.80548e-08
1.44477e-07
4.17248e-08
1.18547e-08
3.49591e-08
-8.85387e-08
7.08725e-08
7.73558e-08
-1.4191e-07
-6.3187e-09
-1.06166e-07
1.04401e-07
1.74666e-09
1.79699e-11
-6.99249e-08
7.29868e-09
5.71281e-08
-5.49671e-08
1.2906e-07
-1.31221e-07
-1.07682e-07
2.28175e-07
-4.7534e-08
-7.29596e-08
8.84572e-08
-7.4025e-08
-7.74558e-08
6.30237e-08
7.02593e-08
-5.77078e-08
-1.402e-07
5.52488e-08
8.60852e-09
5.98382e-08
8.28169e-08
7.74457e-08
7.95211e-08
-1.5085e-07
-6.11722e-09
1.38688e-07
8.27242e-09
-6.38968e-09
-1.4057e-07
1.05816e-07
7.73367e-10
-3.75067e-10
9.98369e-08
-1.01716e-07
2.36726e-09
-4.88385e-10
-6.77856e-08
-7.97865e-08
1.40674e-07
6.89809e-09
-1.24748e-07
1.54054e-09
4.22725e-10
-1.09751e-07
-4.12911e-11
3.51432e-10
1.16647e-08
1.27672e-07
1.15274e-07
1.99392e-09
-1.01975e-09
1.53038e-10
-1.06635e-07
1.05911e-07
1.00552e-07
1.78241e-08
2.76065e-09
-1.2361e-08
3.7493e-08
-1.24404e-07
9.92721e-08
1.29382e-07
-1.29171e-07
-1.02711e-10
-1.08747e-10
-3.07333e-08
-1.22704e-07
1.78759e-07
-1.23018e-07
-1.98177e-08
1.48116e-07
-5.2807e-09
1.59544e-07
-1.35395e-07
-2.33341e-08
-2.13122e-08
1.33103e-07
1.30667e-07
-1.31641e-07
4.21505e-10
5.52785e-10
1.55451e-07
-4.79387e-08
-1.52981e-07
4.54688e-08
1.29056e-07
-1.29222e-07
1.52822e-07
-1.52656e-07
9.32934e-09
-1.28922e-08
-1.02044e-07
1.05606e-07
2.76715e-08
-1.06543e-07
-4.51934e-08
1.24065e-07
8.98509e-08
8.15282e-08
-1.64155e-07
-7.2243e-09
2.11389e-07
-2.23662e-07
-1.1204e-07
-1.21333e-07
1.06316e-07
-1.35616e-08
1.30613e-08
-1.93117e-07
1.67591e-07
-8.90346e-08
1.39094e-07
-2.36568e-07
1.86509e-07
8.25442e-08
-1.65466e-07
-6.11272e-09
2.11751e-08
9.29781e-08
-1.60646e-08
-9.80886e-08
-1.54667e-09
1.25424e-07
-1.47107e-08
-1.05687e-07
-6.12575e-08
1.59547e-07
-1.11411e-07
1.31213e-08
-2.84418e-08
8.21837e-08
-4.62385e-08
-7.50342e-09
2.95404e-10
-1.03298e-07
1.03433e-07
-4.29941e-10
2.75188e-09
1.29325e-07
-1.30944e-07
-1.13327e-09
-4.69771e-08
-1.31286e-07
1.43584e-07
4.07069e-08
-4.76967e-08
1.5182e-07
6.28649e-09
-4.9778e-08
-4.60475e-08
1.31183e-07
-2.34872e-07
-1.17524e-08
-1.57486e-07
1.24474e-07
-7.4669e-08
1.27884e-07
-1.2466e-07
-4.72262e-10
-1.01913e-07
1.54915e-09
-2.29337e-09
1.02657e-07
6.42887e-08
-1.97644e-07
-1.51188e-07
-6.00339e-11
1.30953e-07
-1.30675e-07
-2.17589e-10
-1.23387e-07
-4.35902e-08
1.58201e-07
5.90018e-09
-9.44099e-09
1.14897e-07
-1.02936e-07
-1.17804e-08
1.50166e-07
-1.20811e-07
4.14107e-10
-8.50566e-11
6.67962e-08
-1.58289e-07
8.5991e-08
5.50163e-09
-1.49086e-09
-1.22049e-07
-1.56063e-09
1.32046e-07
6.133e-09
-1.08918e-07
5.5469e-08
5.15721e-08
1.87653e-09
-1.10512e-07
3.03015e-08
1.5047e-07
-5.47009e-11
1.40816e-07
-7.20079e-10
-1.40041e-07
7.51782e-09
1.24264e-07
-2.64627e-08
-1.05319e-07
1.49167e-07
-1.70057e-07
8.81746e-08
-6.72844e-08
4.72668e-08
1.19109e-07
-5.84391e-08
-6.84424e-09
8.5792e-08
9.91449e-08
-1.73932e-07
-1.38563e-08
-6.84834e-09
1.13426e-07
-1.36812e-07
1.203e-07
3.16277e-10
-1.20661e-07
4.52194e-11
7.52053e-09
1.04147e-07
-3.88032e-09
8.2411e-08
-2.04788e-07
3.24609e-08
-1.37039e-07
2.18143e-09
-7.73208e-08
-6.5866e-08
1.36267e-07
6.91968e-09
-1.10272e-07
-5.08066e-08
3.38805e-08
1.27198e-07
-1.23421e-07
-6.36659e-10
-6.90369e-10
-7.23058e-08
1.52784e-07
-8.6472e-08
5.99417e-09
7.74784e-08
-1.5371e-07
7.99982e-08
-3.76701e-09
-1.16595e-07
-2.24495e-10
1.06243e-07
-1.09088e-07
4.78303e-09
-1.93811e-09
1.56608e-07
-8.7724e-08
8.5944e-09
-1.19035e-07
2.01076e-08
-2.01871e-08
6.1379e-08
-1.01534e-07
-2.2933e-08
1.29827e-07
-1.28957e-07
-1.86142e-10
7.04501e-08
6.31595e-08
-6.30173e-08
-7.05922e-08
8.27105e-08
1.54144e-07
-1.66425e-07
8.18286e-08
6.96918e-08
-1.46177e-07
-5.34292e-09
-1.19941e-07
6.33155e-08
4.92039e-08
7.42125e-09
2.22902e-10
1.30122e-07
3.22212e-10
8.23665e-08
7.68776e-08
-1.5375e-07
-5.49422e-09
1.09861e-07
1.20728e-07
-9.88596e-09
-1.07155e-07
-3.6871e-09
9.88939e-08
7.28274e-11
1.52644e-07
-1.54149e-07
-8.45012e-08
8.60065e-08
5.16867e-08
6.17069e-08
7.33459e-09
-6.24593e-09
-2.35859e-07
1.94242e-08
1.48979e-07
-3.63804e-09
6.32629e-09
1.57929e-07
1.35798e-07
-2.30277e-07
-1.27323e-07
1.06975e-09
-1.55095e-09
1.27804e-07
6.96697e-10
1.02739e-07
-1.03314e-07
-1.21407e-10
-8.22677e-08
1.87312e-07
-1.83873e-07
5.37498e-08
1.27497e-07
-6.70754e-08
-1.14171e-07
4.7534e-08
6.04741e-08
-1.15552e-07
7.54425e-09
1.54235e-07
-1.18399e-08
2.15332e-08
-1.37989e-07
-5.58478e-09
4.87723e-08
-1.47074e-07
-1.9175e-08
-9.83236e-08
-1.15357e-07
1.08815e-07
2.08415e-08
-5.16872e-09
-2.11383e-08
9.98373e-08
3.01155e-08
4.32821e-08
-8.09346e-08
-3.29684e-09
1.29492e-07
3.80624e-09
1.33888e-10
4.19679e-10
-2.17174e-07
-1.55707e-08
-4.75905e-10
1.1526e-07
1.51025e-08
-1.22377e-07
-1.49496e-08
2.83192e-07
-1.24667e-07
-1.43575e-07
-1.74411e-07
1.42175e-07
1.18797e-07
-1.50324e-07
-7.06856e-08
7.64565e-08
-7.83339e-08
7.2563e-08
1.22557e-07
-1.27004e-07
-3.93419e-09
8.38114e-09
-4.07403e-09
-6.58207e-08
8.22686e-08
-1.90859e-07
-8.30732e-08
6.72188e-08
-3.2314e-08
-1.22225e-07
2.73824e-07
-4.28496e-08
-1.01632e-07
-1.38068e-08
-7.93905e-08
1.599e-07
2.20067e-09
-3.42934e-08
-7.36654e-08
9.2317e-08
1.56417e-08
4.11576e-08
-1.84672e-07
8.37161e-08
5.97981e-08
-1.10139e-07
1.09871e-07
-1.0577e-10
3.73608e-10
9.48509e-08
-1.78002e-10
1.43734e-08
1.29318e-07
1.16555e-07
-7.59469e-09
-8.62778e-08
-1.5484e-07
1.85106e-08
8.24557e-10
1.37218e-07
-1.01406e-07
1.50762e-07
-4.68455e-08
-5.99464e-09
3.12563e-09
1.29498e-07
-3.13141e-09
1.08251e-07
4.0427e-08
-1.57851e-07
-3.07214e-08
-1.29061e-07
-1.11958e-07
-8.74054e-08
4.51998e-08
-1.14436e-08
1.11933e-07
-8.79716e-09
-9.73903e-08
-1.12009e-07
-3.1776e-09
9.78124e-08
-1.25799e-07
1.01738e-07
-6.64153e-10
-1.00464e-07
-6.09086e-10
-2.65359e-08
-1.52226e-07
-1.82248e-07
1.81938e-07
1.16128e-07
-4.86271e-08
1.1139e-08
-7.86399e-08
1.16366e-07
-6.22954e-10
-1.15638e-07
-1.05044e-10
9.36704e-10
1.0526e-07
-1.06484e-07
2.87449e-10
2.98134e-08
1.23098e-07
-3.76368e-08
-7.99198e-08
-8.43729e-08
1.05832e-08
7.92439e-09
1.12408e-07
-1.16339e-07
-3.9941e-09
-1.28257e-07
1.38436e-07
-2.25449e-09
-1.36847e-07
-3.74385e-09
-1.52769e-07
1.54729e-07
-5.71469e-08
-8.74378e-08
1.50742e-07
-6.15726e-09
1.10433e-07
-1.49363e-08
6.94836e-10
-6.44386e-11
4.80194e-08
1.20777e-08
-8.48388e-10
-3.29383e-10
7.70719e-08
8.42898e-08
-5.911e-09
-3.45779e-08
1.02324e-07
8.0639e-08
-2.88631e-07
-1.55359e-07
2.89766e-07
1.52812e-07
1.37645e-07
-5.77432e-08
-8.83126e-08
6.21608e-09
-6.84543e-10
-1.27346e-07
-3.65436e-10
5.56254e-08
6.42553e-08
-1.1881e-07
-1.0708e-09
-1.1717e-07
1.17003e-07
1.26536e-10
4.01079e-11
1.07572e-07
3.30219e-08
-1.40884e-08
1.5111e-09
1.9805e-07
-4.53918e-09
-5.41655e-08
-8.24298e-08
-3.60496e-09
-8.66132e-08
-2.36629e-08
6.95773e-10
1.09696e-07
-1.09618e-07
7.96383e-08
-1.95399e-07
1.09252e-07
-1.08228e-09
-5.97633e-10
7.12099e-08
6.63286e-08
-1.33614e-07
-3.92458e-09
-1.64441e-07
8.21289e-08
-2.32109e-08
-2.73501e-08
-3.7608e-08
1.29598e-07
-6.46397e-08
-3.00366e-08
7.22296e-08
3.13134e-08
-1.4271e-07
-9.07897e-08
9.5803e-08
1.37697e-07
7.78011e-08
-5.83358e-09
6.59894e-08
1.30991e-07
-5.3919e-08
-1.43061e-07
-3.78035e-09
1.18677e-07
1.5139e-08
-1.30036e-07
1.131e-07
-9.60922e-08
-2.10409e-08
4.03365e-09
1.441e-07
-1.94177e-07
1.79402e-07
1.43603e-07
-6.96755e-08
-6.7053e-08
-6.87437e-09
4.29393e-08
-1.71722e-07
-1.22775e-07
-1.22862e-07
2.56043e-11
-1.90415e-07
1.60445e-07
-1.66244e-07
1.96214e-07
8.25733e-08
-1.59861e-07
-2.64124e-08
1.21201e-07
-1.20155e-07
-4.69522e-10
-5.75604e-10
6.1092e-08
-1.21635e-07
-5.27749e-09
-6.72006e-09
8.05579e-08
-1.76909e-07
8.00539e-08
-1.37674e-07
-5.03495e-11
2.37216e-10
1.37488e-07
-1.29101e-07
1.40819e-07
-1.46444e-07
-8.76387e-08
-2.78458e-08
-7.22799e-09
6.02574e-08
7.02119e-08
-5.99549e-09
-5.33641e-08
-6.07447e-08
-5.83187e-09
-3.72898e-09
-1.05118e-07
-1.02121e-07
-1.05777e-09
-5.7387e-09
7.03759e-08
-7.00072e-08
6.99113e-10
-1.06779e-09
1.08387e-07
-1.06244e-07
-1.392e-09
-7.51008e-10
-1.11079e-09
1.28833e-07
-1.27639e-07
-8.27999e-11
-1.33803e-07
1.43789e-08
1.1371e-07
5.71426e-09
1.28637e-07
-1.22213e-07
-4.4606e-09
-1.96322e-09
-1.0875e-07
-1.17779e-09
1.10592e-07
-6.64257e-10
-1.05039e-07
-6.41348e-08
9.7967e-08
3.43946e-08
-9.57308e-09
-1.22788e-07
7.65813e-08
-8.13411e-08
3.908e-09
8.51772e-10
4.56864e-08
3.76565e-08
-1.29118e-07
1.10633e-07
-1.07636e-07
-7.40838e-09
4.41166e-09
-5.13932e-08
5.18153e-08
1.54165e-07
5.54892e-09
1.29952e-07
-9.71096e-08
1.22036e-08
-2.7852e-08
-1.18897e-08
-1.02968e-07
-3.11269e-08
1.98984e-07
6.08522e-09
-1.73698e-07
1.31564e-07
-3.38433e-08
-1.96273e-08
2.12168e-08
-8.09386e-08
6.033e-09
-1.26582e-07
1.26383e-07
5.89008e-08
-7.10104e-08
-3.04372e-08
7.80539e-08
2.1561e-09
6.21575e-08
5.63072e-08
-7.67399e-08
-8.38293e-08
1.15707e-07
-1.27955e-08
-7.11204e-08
5.91302e-09
9.51797e-08
1.14433e-08
2.26759e-08
2.4988e-08
-1.06726e-08
5.19455e-08
6.02282e-08
6.9352e-09
-4.97591e-08
1.62823e-07
-1.68857e-07
-1.7675e-07
8.77363e-08
2.23409e-07
-1.50415e-07
1.07326e-07
-3.26501e-08
6.16078e-08
-1.36283e-07
-1.24626e-07
-4.29549e-08
-1.45986e-07
-5.7105e-09
-1.02644e-07
8.09784e-08
-8.92031e-08
1.10869e-07
8.56585e-09
-1.20908e-07
-1.4265e-07
-7.61122e-09
-3.88804e-09
-1.28755e-07
1.1658e-07
1.25274e-07
1.97583e-08
1.03786e-07
2.10863e-09
-1.34128e-07
1.23955e-07
-8.64113e-08
9.65843e-08
-1.0247e-07
1.33917e-08
-2.06733e-08
-3.49408e-08
8.90464e-09
8.4085e-08
-4.73365e-08
-1.13037e-07
-4.39742e-08
1.23825e-08
-7.15264e-08
-8.59121e-08
7.70819e-09
-7.06349e-08
8.11422e-08
8.1033e-08
2.37178e-08
4.28881e-08
-1.47639e-07
5.1528e-08
3.16067e-08
-7.53623e-08
-1.06939e-09
-8.0757e-08
-9.08504e-08
7.1659e-09
6.2984e-08
-7.32987e-08
-4.83682e-08
5.86828e-08
-4.94722e-08
-9.07332e-09
1.48358e-07
-1.87259e-07
3.9486e-08
-5.84635e-10
-8.34601e-09
2.75742e-08
8.0024e-08
-9.92522e-08
5.38107e-10
-9.48132e-08
-9.01341e-10
9.51764e-08
-1.01679e-07
1.01221e-07
2.20457e-10
2.38197e-10
1.31439e-07
-7.21227e-08
-1.33173e-07
-6.1579e-08
-3.84981e-08
1.01775e-07
-1.69798e-09
1.55094e-07
1.17681e-08
-1.17461e-07
5.99209e-09
-1.41027e-07
1.66913e-08
-5.60702e-10
-1.37345e-07
-1.15056e-07
1.15331e-07
-3.25848e-10
1.08644e-07
4.91069e-08
-1.4321e-07
-1.27253e-08
-1.47493e-08
2.25865e-07
-8.4289e-10
-7.86902e-08
-1.04444e-09
9.8363e-08
-9.74417e-08
1.09202e-10
-2.0757e-09
1.1555e-08
2.65969e-08
1.23291e-07
-2.59302e-08
1.17193e-07
-9.00961e-09
-3.28068e-09
1.287e-07
-1.23994e-07
-1.42575e-09
-1.04153e-07
1.1035e-07
-5.64751e-09
1.22723e-07
5.561e-09
-3.1963e-08
-9.63211e-08
1.19602e-07
1.72974e-09
-1.19263e-07
-2.06877e-09
-7.13019e-08
-5.42581e-08
7.13945e-08
9.00359e-08
1.51504e-09
1.57959e-07
1.95205e-08
-3.62437e-08
-1.46824e-08
3.72085e-09
-7.85213e-08
1.23224e-07
-1.73438e-07