/*--------------------------------*- C++ -*----------------------------------*\
| =========                 |                                                 |
| \\      /  F ield         | OpenFOAM: The Open Source CFD Toolbox           |
|  \\    /   O peration     | Version:  2212                                  |
|   \\  /    A nd           | Website:  www.openfoam.com                      |
|    \\/     M anipulation  |                                                 |
\*---------------------------------------------------------------------------*/
FoamFile
{
    version     2.0;
    format      ascii;
    arch        "LSB;label=32;scalar=64";
    class       volVectorField;
    location    "0.04";
    object      U;
}
// * * * * * * * * * * * * * * * * * * * * * * * * * * * * * * * * * * * * * //

dimensions      [0 1 -1 0 0 0 0];

internalField   nonuniform List<vector> 
31639
(
(0.12173 0.000628981 -0.000563714)
(0.11881 -0.00041111 -1.36199e-05)
(0.120655 -0.00026793 0.000842248)
(0.12385 3.11761e-05 -0.00022619)
(0.120385 -0.000753983 -0.000314469)
(0.119478 -7.08781e-05 -3.9863e-05)
(0.118561 8.5861e-06 -0.000288191)
(0.121248 -8.11982e-05 -4.92604e-05)
(0.121083 0.000185102 -0.000242056)
(0.122122 -0.000421035 -0.000502704)
(0.122767 0.000465924 -9.13582e-05)
(0.121885 -0.000565511 -0.000778731)
(0.119495 -0.000417473 4.84354e-06)
(0.121984 2.00797e-06 0.000155292)
(0.118008 -0.000363555 5.73912e-05)
(0.118921 -0.000413098 0.000756682)
(0.120602 0.000353725 0.000166803)
(0.118097 4.63598e-05 0.000405917)
(0.119178 5.32554e-05 -0.000398485)
(0.120177 -9.71053e-05 -0.000148411)
(0.113952 -0.000241234 -0.000418982)
(0.122742 -0.000316174 -0.000592894)
(0.122426 0.000698422 -0.000205544)
(0.119098 0.000159452 -0.00025826)
(0.117666 -0.000154511 -0.000118976)
(0.120831 -0.000196553 8.09495e-05)
(0.12005 1.29918e-05 -0.000133507)
(0.122282 0.000913587 -7.99702e-05)
(0.118507 0.000411405 0.000637762)
(0.122262 -7.18308e-05 0.000550631)
(0.122703 -0.000156145 -9.69419e-05)
(0.118051 -6.2974e-05 -0.000172022)
(0.122564 0.000326716 -0.000497644)
(0.119 -0.000177273 -7.58226e-05)
(0.115519 8.5738e-05 0.000206687)
(0.122734 0.000442859 7.75146e-05)
(0.11284 -0.000337149 -8.66555e-05)
(0.123503 -0.000514331 0.000315682)
(0.122396 -0.000376243 0.000272136)
(0.112776 4.40475e-05 -0.000107346)
(0.116465 -6.65507e-05 -0.000340804)
(0.115054 -0.000446141 9.13726e-05)
(0.121683 0.000116181 -5.10942e-05)
(0.123172 -0.000774475 -0.000871759)
(0.121894 -0.000637453 0.00072742)
(0.123204 -0.000827684 -0.000404489)
(0.116954 0.000284484 -0.000294207)
(0.120059 0.000466017 -0.000370159)
(0.120185 -8.41922e-05 0.000201299)
(0.123388 -0.000422532 -0.000266297)
(0.122868 -0.000203971 -0.000498671)
(0.114367 0.000146649 -0.00024003)
(0.122353 0.000580868 0.000229712)
(0.11353 -0.000262253 0.000378142)
(0.120476 -0.000383742 -0.00017478)
(0.120115 0.000155644 9.96913e-05)
(0.114834 -7.4371e-05 -0.00065117)
(0.120061 7.31382e-05 0.000320221)
(0.119589 0.000109724 0.000366421)
(0.115496 0.000236673 -0.000185082)
(0.121517 -0.000189672 -0.000471984)
(0.122041 0.000351122 -0.000168069)
(0.118084 -0.000231409 -0.000344285)
(0.119628 -3.27633e-05 -0.000187661)
(0.121007 0.000404092 0.00018427)
(0.123424 -0.000260302 -0.000519109)
(0.120963 0.00010992 -0.000987691)
(0.119842 -0.000308767 0.000116707)
(0.116522 -3.50694e-06 -0.000394551)
(0.123405 0.00030897 -0.000193211)
(0.121487 0.000129684 -0.000111332)
(0.116656 0.000252987 -0.00119522)
(0.121819 -0.000405154 -0.000815727)
(0.120262 -0.000185257 -0.000199395)
(0.12133 0.000572621 3.98439e-05)
(0.113826 0.000307501 -0.000635347)
(0.122806 -0.000651879 0.000255335)
(0.11948 0.000234039 -0.00063221)
(0.11891 -0.00020645 0.000364411)
(0.121637 0.000269359 -3.92442e-05)
(0.118078 -1.814e-06 0.000110064)
(0.111382 -0.000231806 3.90942e-05)
(0.12286 -0.000348687 0.000150131)
(0.120501 -0.000239393 -0.000257814)
(0.120557 -7.73064e-05 -0.00013062)
(0.122738 -0.000400699 -0.000274887)
(0.123475 -1.48376e-05 0.000133195)
(0.123007 -0.000199368 -0.000449746)
(0.114706 0.000887812 -0.0014399)
(0.122126 -0.00028652 -0.000477618)
(0.120657 -0.000353067 0.000262066)
(0.11926 -0.00047015 -0.000118921)
(0.115722 -0.000509076 -0.000410082)
(0.118022 0.00054512 -0.000799851)
(0.118149 -0.000792794 -0.000386925)
(0.118787 0.000929299 0.00038055)
(0.120516 0.000200324 -0.00046765)
(0.120173 -0.000176171 0.000138731)
(0.119566 0.000171995 0.000268059)
(0.114859 -0.00101752 -8.85428e-05)
(0.121289 0.000194073 -6.6667e-05)
(0.121099 0.000305947 0.000760176)
(0.118281 -0.000288066 -0.000167824)
(0.114129 7.48283e-05 -0.000177858)
(0.11536 -6.01421e-05 -0.000358932)
(0.123259 -0.000604121 -0.000284448)
(0.113597 0.000359204 -0.00043376)
(0.114684 -0.000868609 -0.000857355)
(0.117051 0.000413843 -2.00233e-05)
(0.113119 -0.000265566 0.000636313)
(0.121258 -0.00120805 0.000298652)
(0.115808 -8.53882e-05 -0.000267184)
(0.119518 3.82997e-05 -0.000216909)
(0.119174 -0.000664677 -0.00065665)
(0.119858 0.000161139 -0.000805575)
(0.113845 -0.000520525 0.000268423)
(0.119199 0.000591921 4.67141e-05)
(0.118674 -0.000705618 -0.000154116)
(0.121164 9.23327e-05 5.68849e-05)
(0.119395 -0.000339312 7.19569e-05)
(0.120933 -0.000413892 -0.000128052)
(0.121789 -0.000490367 0.000350861)
(0.122483 1.8653e-05 -0.000609706)
(0.121482 0.00032778 -0.000717592)
(0.121307 -0.000200004 -0.000826904)
(0.122171 -0.000374923 0.000130268)
(0.119303 -2.92714e-05 0.000341797)
(0.118096 0.000162548 -0.000272795)
(0.117834 -0.000599763 -0.000323425)
(0.122065 -0.000249221 0.000154082)
(0.121647 0.000128975 -0.000243688)
(0.122322 0.000163978 -0.000487623)
(0.121518 -0.000540661 -1.28669e-05)
(0.120305 -0.000176397 8.30635e-05)
(0.122498 -0.000143242 -0.000135164)
(0.120209 -0.000106681 1.54147e-05)
(0.115596 -0.000153843 -0.00031471)
(0.114674 -0.000706179 -0.00043178)
(0.12258 0.000385903 0.000577365)
(0.119751 -0.000451053 -0.000465126)
(0.119434 -0.000192231 -0.000402638)
(0.123129 0.000273051 0.0010568)
(0.122226 0.000460656 0.000283812)
(0.114126 -0.00034827 -0.000478016)
(0.114502 -0.000108775 -0.000670734)
(0.121967 -0.000221819 8.28875e-06)
(0.121728 -0.000136595 -0.000273706)
(0.115173 -0.00025518 -0.000446067)
(0.115727 -0.000101918 0.000153341)
(0.122351 -0.00043043 7.59178e-05)
(0.117739 -0.000121419 -0.00116629)
(0.119236 -1.60836e-05 0.000224771)
(0.119853 -0.000377963 -0.000840331)
(0.122147 -0.000157878 6.22205e-05)
(0.116016 0.000628731 -0.00120898)
(0.123834 -1.54082e-08 2.89851e-05)
(0.121365 -0.000295017 -0.000255419)
(0.116503 -0.0012374 -0.000185888)
(0.115018 -0.000741711 0.000954444)
(0.118867 -0.000388774 -0.000189637)
(0.123155 -0.000157985 -0.000457792)
(0.113956 0.000229877 0.000121936)
(0.115738 0.000142358 -0.00110453)
(0.114806 -0.000412444 0.000149119)
(0.114085 -0.00117058 8.63752e-05)
(0.118165 0.000243037 -0.000261226)
(0.114912 0.00037546 0.000135193)
(0.122748 -0.000682181 0.00021919)
(0.122745 -0.000462094 0.000246622)
(0.11495 0.00022994 -0.00076268)
(0.115697 -0.000741823 0.000413518)
(0.119029 0.000666387 -0.000602422)
(0.115387 -8.32771e-05 -5.02568e-05)
(0.120239 -8.52873e-05 0.000487957)
(0.123344 -0.0002612 -0.000253296)
(0.121503 -0.00063 -0.000451527)
(0.119908 0.000624349 0.000239037)
(0.122052 0.000299922 0.000420751)
(0.120485 -0.000485042 -7.57338e-05)
(0.118796 -0.000390253 -0.000160223)
(0.119085 0.000142159 -7.74555e-05)
(0.119082 -0.000587212 0.000730039)
(0.118247 2.07907e-05 0.000213887)
(0.113058 0.00105422 -0.000593374)
(0.120715 -0.000121868 0.000104655)
(0.122901 0.000235552 -0.000257106)
(0.118502 9.09799e-05 0.000606802)
(0.122412 0.000233756 -8.30858e-05)
(0.115653 -0.000243796 7.89575e-05)
(0.113576 -0.000169656 0.000385865)
(0.123351 -0.000254549 -7.253e-05)
(0.122135 -0.00024522 -0.000301241)
(0.120125 -0.000327912 0.00053131)
(0.119334 -0.000111872 0.000266129)
(0.119804 -0.000140437 -0.000400145)
(0.120094 -0.000158268 -0.000682085)
(0.119812 0.000576504 0.000434286)
(0.121905 0.000379926 -0.000478813)
(0.115445 -0.000149995 -0.000307493)
(0.11883 0.000139943 -0.000205331)
(0.123071 3.91124e-05 0.000194225)
(0.121922 -0.000304598 2.54523e-05)
(0.121044 -0.000336015 0.000149675)
(0.11977 -0.00150281 -0.000603136)
(0.120232 -0.000594338 -0.000462499)
(0.118616 2.25624e-05 -0.000376836)
(0.119666 -0.00021504 -0.000464188)
(0.118273 0.000579601 -0.000583887)
(0.12208 7.26706e-05 -0.000519682)
(0.113979 -0.000175856 -1.36337e-05)
(0.119754 -7.19754e-05 -0.000133431)
(0.119308 0.000460406 -5.68397e-06)
(0.120517 5.27078e-05 -0.000447195)
(0.122452 -0.000103959 -0.000507344)
(0.121851 -0.000523461 -0.000402846)
(0.12274 -0.000150729 -0.000297229)
(0.115541 -0.00108741 -0.00038414)
(0.117901 -0.000581901 0.000482089)
(0.121984 -0.000374647 -0.000262219)
(0.122762 -0.000178717 0.000264712)
(0.121686 4.71039e-05 0.000289842)
(0.12 -0.000408431 -0.000527111)
(0.112397 -0.000265965 0.000633898)
(0.119609 -0.000575347 0.000502173)
(0.114896 -0.000600227 -0.000312094)
(0.118058 0.000402945 7.21643e-05)
(0.122049 -0.000464284 0.000532148)
(0.118041 0.000141262 0.000445123)
(0.114264 0.00041216 -0.000265601)
(0.120292 0.000164471 0.000237755)
(0.121425 0.000455774 -0.000232571)
(0.123041 -0.000396983 -5.71278e-05)
(0.114669 -0.000311464 -1.99603e-05)
(0.113857 -0.000741419 0.000233079)
(0.120736 -0.0003549 0.000346106)
(0.122324 2.16751e-05 -0.000640971)
(0.115109 3.05339e-05 0.000469325)
(0.122364 -0.000736522 0.000278715)
(0.117567 2.83423e-05 -0.000480307)
(0.115648 -0.000450559 0.000170402)
(0.119146 0.000233007 -0.000375988)
(0.121142 -0.000315856 4.58116e-05)
(0.118273 -0.00103103 -7.70323e-05)
(0.117322 0.000220336 0.000925272)
(0.1184 0.000323825 0.000367675)
(0.120125 -0.000174384 -0.000133952)
(0.118601 0.00051217 -0.000496044)
(0.117525 0.000502714 -0.00101813)
(0.114065 -0.000478707 0.00052117)
(0.118745 0.00031992 -0.0006046)
(0.119147 0.000135336 -0.000702059)
(0.116629 -0.00013714 -2.448e-05)
(0.118226 -0.00111703 0.000319722)
(0.122443 0.000117318 -0.000173458)
(0.122713 0.000610121 0.000138298)
(0.120153 0.000485146 -9.79247e-05)
(0.115543 0.000159657 -3.73373e-05)
(0.122246 0.000274106 -0.000184952)
(0.121721 0.000359097 -0.000524987)
(0.119933 -0.000423542 -0.000329806)
(0.123521 0.000131858 0.000819272)
(0.123065 0.000109157 -0.000395353)
(0.121278 0.000221266 -0.000441033)
(0.12288 -4.02305e-05 8.68109e-05)
(0.118302 0.000438243 0.00015825)
(0.119889 -0.000294021 -0.000662848)
(0.114091 0.000313977 -0.00158133)
(0.118129 -5.54515e-05 -0.000177151)
(0.122107 -0.000961806 0.000281573)
(0.11818 4.61486e-05 0.000363254)
(0.122117 0.000340276 -0.000131581)
(0.119407 0.000482394 -0.000702254)
(0.120494 -0.000205255 7.22703e-05)
(0.121321 0.000224067 0.000384536)
(0.123187 -4.95445e-05 -0.000699533)
(0.120295 0.000637589 0.000166984)
(0.114908 0.000269575 -5.31946e-06)
(0.11914 0.000175547 0.000195535)
(0.116296 0.00158861 -0.000367009)
(0.122698 -0.00028886 -0.000950908)
(0.119286 -0.000601958 -0.000340719)
(0.122155 6.98123e-05 -0.000440119)
(0.12048 0.000166426 -0.000184609)
(0.11831 -0.000141667 -0.000472556)
(0.114081 -5.40567e-05 3.25935e-06)
(0.116096 0.000100652 -0.00057695)
(0.115387 0.000305948 0.000264655)
(0.113879 -0.000338118 0.000116031)
(0.123013 -0.0003746 -0.00042463)
(0.114497 -0.000470525 -0.000586342)
(0.120904 -0.000428492 0.000221842)
(0.1202 0.000556265 -0.000291561)
(0.119227 4.53401e-05 -0.000233281)
(0.11578 -0.000203049 -0.000252569)
(0.122688 -0.000801174 -6.35058e-06)
(0.119465 9.75069e-05 -0.000747812)
(0.117384 0.0001142 0.000654167)
(0.122427 0.000165879 -0.000457787)
(0.120944 -0.000136028 -8.09399e-05)
(0.116191 0.000484753 0.000456379)
(0.118379 0.000136588 -6.49763e-05)
(0.115314 0.000199224 -5.34932e-05)
(0.120047 0.000300915 -0.000348701)
(0.118802 0.000324682 -0.00017673)
(0.115698 0.000418362 0.000886097)
(0.119863 -6.95631e-05 -0.000216952)
(0.118521 0.0010778 0.000488566)
(0.113033 0.000109748 -0.00120336)
(0.112996 0.000345281 0.000266707)
(0.12149 -0.000516701 0.000216938)
(0.122659 0.000141445 -5.86737e-05)
(0.123225 0.000236968 -0.000140981)
(0.114435 0.000299165 0.000184513)
(0.116005 -4.34632e-05 0.000483164)
(0.121867 0.000240698 0.000351025)
(0.117233 -0.0002323 -0.000264323)
(0.117138 0.000637785 -0.000830782)
(0.121826 0.000327157 0.000322575)
(0.122435 -0.000529596 -8.23995e-05)
(0.119011 -0.000792754 0.000126209)
(0.122267 -0.000958047 -0.000292763)
(0.123298 7.13738e-05 -0.00023605)
(0.115153 -0.000173957 -0.000250178)
(0.123222 -0.00107959 -0.000322815)
(0.113002 0.000260214 -0.000193347)
(0.114159 -5.21188e-05 -5.74407e-05)
(0.122749 -0.000444843 -0.000262643)
(0.121991 -0.000526079 -0.000136578)
(0.123019 0.000111631 -0.000718557)
(0.123264 0.000447411 -0.00102181)
(0.122036 -0.000158292 -0.000783089)
(0.116293 0.00119089 -0.000589824)
(0.117871 -0.000976023 0.000718354)
(0.118946 -6.68004e-05 -0.000257808)
(0.121232 -0.000954709 0.00010587)
(0.122793 0.000932533 0.000825091)
(0.123204 -0.000777726 0.000305454)
(0.119429 0.000177317 -0.000260564)
(0.117369 -0.0010134 0.000492588)
(0.119295 -7.28767e-05 -7.90447e-05)
(0.122246 -6.43157e-05 -0.000171181)
(0.121762 -6.45379e-05 -0.000985641)
(0.118221 0.000109583 -0.000244823)
(0.120744 -0.000240627 -5.40216e-05)
(0.118949 0.00061987 -0.000601645)
(0.119009 -0.000386175 -0.000363054)
(0.121293 -0.000360328 0.000257197)
(0.1177 -0.00101804 0.000899276)
(0.11525 -0.000170454 -4.46928e-06)
(0.120085 0.000789505 -0.000601207)
(0.121355 7.29792e-05 0.000250811)
(0.118602 0.000172411 -0.000182055)
(0.121366 0.000388392 0.000306186)
(0.122214 -0.000569707 0.00026854)
(0.119982 0.000141637 -0.000389378)
(0.116101 0.000240311 -0.000492723)
(0.119232 0.000431808 -0.00041782)
(0.118385 0.000430032 0.000438438)
(0.114181 0.000249889 -0.000473993)
(0.121918 -0.000880333 0.000232075)
(0.114075 0.000534503 0.000455076)
(0.121238 -9.47607e-05 -0.000493743)
(0.122934 -0.000838936 -0.000230131)
(0.114961 -0.000318986 0.000183207)
(0.119887 0.000317658 2.77377e-05)
(0.118585 0.000393429 0.000435112)
(0.114651 -0.000243252 5.81641e-05)
(0.120891 -0.000160165 -0.000170932)
(0.116091 3.32603e-05 -0.000145857)
(0.119397 -4.96813e-05 0.000653987)
(0.122495 0.000434389 9.35015e-05)
(0.121059 0.000137668 0.000172638)
(0.113868 0.000332682 -4.79808e-05)
(0.121369 0.000265944 2.36129e-05)
(0.115937 0.000133214 -0.000387746)
(0.121332 -0.000101259 -1.67946e-05)
(0.121453 0.00029346 0.000113554)
(0.121881 -0.000235799 -0.000531154)
(0.12255 -0.000222876 -0.000490211)
(0.11489 -7.51135e-05 -0.000607704)
(0.121461 -0.000920503 0.000143333)
(0.114208 3.2265e-05 -0.000534687)
(0.118719 3.25502e-05 -0.000449722)
(0.115048 0.000100021 -0.000367234)
(0.12352 -5.69271e-07 -0.000483798)
(0.122469 0.000109886 -0.000486449)
(0.123263 -2.01761e-05 2.18884e-05)
(0.122778 -0.000362309 -0.000535025)
(0.12037 -5.16537e-05 -0.000546359)
(0.121832 -9.2702e-05 0.000232963)
(0.119044 0.000264143 -5.90204e-05)
(0.120383 0.000206088 -0.000275966)
(0.11961 0.000113122 -0.000375115)
(0.115916 8.92133e-05 9.72043e-05)
(0.121671 -3.6491e-05 -0.000408972)
(0.119985 -0.000346542 -0.000116074)
(0.120158 -0.000235408 -0.000272028)
(0.122166 0.000107957 0.000117159)
(0.121794 -3.02355e-05 -0.000528167)
(0.122119 4.91713e-05 0.000200845)
(0.11924 -0.000694565 0.000141988)
(0.114251 -0.000131981 0.000705324)
(0.119036 0.00025172 0.00020838)
(0.121403 0.000136877 0.000350484)
(0.120722 -0.000283917 0.000108827)
(0.11498 -0.000587013 -0.000467051)
(0.122557 7.93967e-05 -0.000341534)
(0.12231 -0.00015056 -0.000802858)
(0.118063 0.000264952 -0.000466357)
(0.121287 -0.000338123 -0.000517913)
(0.121727 -0.000272263 -0.00110532)
(0.121402 -0.000338284 -0.000629707)
(0.121609 -0.000355737 -9.67051e-05)
(0.114553 -0.000177768 -0.000106086)
(0.120874 -0.000391394 8.41956e-05)
(0.121432 -0.000477226 0.000268639)
(0.1129 0.000144191 -3.59888e-05)
(0.120513 -0.000797618 1.0167e-05)
(0.120898 -0.000303122 -0.000198373)
(0.117342 0.000143345 0.000244574)
(0.113882 -0.000127078 0.0001276)
(0.113779 -0.000275085 0.000651493)
(0.118841 -0.000890147 0.000184944)
(0.113414 0.000466051 -0.000411754)
(0.119259 1.5534e-05 0.000193713)
(0.120196 -0.000104755 -2.18151e-05)
(0.117667 0.000567997 0.000294023)
(0.121435 0.00053686 5.10781e-05)
(0.114777 -0.000179958 0.00018035)
(0.121062 0.000385818 7.65932e-05)
(0.123434 0.000234587 1.38098e-05)
(0.119211 -0.000161843 0.000103447)
(0.121213 -0.000114219 0.000575794)
(0.119004 5.30651e-05 2.0325e-05)
(0.12266 0.000849716 -0.00010556)
(0.120467 0.000431536 6.78373e-06)
(0.120533 -0.000179765 -0.000601754)
(0.123542 4.89043e-05 -0.000449788)
(0.119798 7.57733e-05 -0.00038488)
(0.114864 7.08947e-05 0.000197411)
(0.119371 -5.39341e-07 -0.000188578)
(0.123112 0.000268747 -0.00105663)
(0.122264 0.000290734 -0.000659885)
(0.121571 -0.000129628 0.000610884)
(0.122504 0.000102316 -2.30451e-06)
(0.119548 -0.000678752 0.000530658)
(0.121728 -0.000233549 0.000180095)
(0.120696 0.000122364 0.000282401)
(0.121887 0.0001792 -0.00021593)
(0.122295 -0.000485839 -0.000408785)
(0.113717 -0.000474176 -0.000274246)
(0.118964 -0.000355795 0.000217001)
(0.112572 -0.000215726 0.000186982)
(0.11897 0.000435443 0.000696846)
(0.118173 -8.58138e-05 -0.000635492)
(0.114796 -0.000379564 0.00066135)
(0.113842 -0.000479277 -0.000376914)
(0.119816 0.000348923 -0.000253065)
(0.120876 -0.000387038 -0.000159152)
(0.122324 1.619e-05 -0.00061743)
(0.115132 -0.000131633 0.000550337)
(0.121231 -0.000181044 8.35622e-05)
(0.119324 -7.16712e-05 0.000204433)
(0.119499 -0.000173965 -0.000479368)
(0.120798 3.15709e-05 -0.000585163)
(0.114045 0.000253471 0.00198733)
(0.119499 -5.82442e-05 -0.000524327)
(0.114504 0.000116948 0.000352061)
(0.117965 -0.000402576 -0.000390349)
(0.121679 -0.000202156 4.31372e-06)
(0.12378 0.00129013 0.000393875)
(0.122082 0.000216466 -0.000979764)
(0.12041 0.000586388 -0.000670678)
(0.113387 0.000196172 0.00113296)
(0.121267 -0.000211094 0.000115697)
(0.120676 -5.0142e-05 -0.000435896)
(0.1219 -0.000213856 -0.000385069)
(0.113959 2.1206e-05 -4.72853e-06)
(0.116263 -0.000151758 0.000448102)
(0.118541 0.000441543 0.000535131)
(0.116076 0.000407815 -0.000266197)
(0.113242 -0.000548061 -0.000130214)
(0.121757 -4.59994e-05 -0.000362694)
(0.115754 -7.47183e-05 2.58137e-05)
(0.118227 0.000814674 0.000204534)
(0.11478 -0.000463632 -0.000915516)
(0.12137 0.000310633 6.38817e-05)
(0.115374 7.67438e-05 -0.00027146)
(0.122712 -0.000129247 0.000549483)
(0.121534 0.000170431 -0.000413503)
(0.122851 -9.6075e-05 0.000509834)
(0.12298 -0.000106118 -0.00041988)
(0.115498 1.2725e-05 0.000205475)
(0.122092 0.000122342 0.000232616)
(0.123124 -0.000171839 -0.000134382)
(0.12036 -0.000406149 0.000324479)
(0.121355 0.000543895 -0.000176561)
(0.120623 -0.000450381 -0.000254786)
(0.122588 0.000403171 -9.915e-05)
(0.12185 5.72198e-05 0.000493157)
(0.117735 7.28719e-05 -0.000427308)
(0.123833 -0.00015935 -9.71184e-05)
(0.123283 -0.000271499 -0.000122812)
(0.120001 -0.000203425 -0.000158401)
(0.119018 -0.000316913 -0.000794906)
(0.122556 -0.000399051 -0.000241067)
(0.120243 0.000278756 -2.2371e-06)
(0.113182 0.000639118 -0.000252719)
(0.113281 0.000402564 -6.32298e-05)
(0.119511 2.301e-05 0.0001356)
(0.122015 1.62811e-05 0.000141577)
(0.123255 -0.000193588 -0.000217423)
(0.117676 -0.000251445 -8.69627e-05)
(0.122227 0.000446945 0.000245305)
(0.121168 -8.82836e-05 0.00025628)
(0.122608 0.00100218 0.000847641)
(0.119907 -2.15886e-05 -7.56117e-05)
(0.119664 0.000487646 -0.000389168)
(0.120673 -0.00158798 0.000726316)
(0.114575 -1.27321e-05 -0.000225828)
(0.119046 0.000139077 7.44542e-05)
(0.120726 3.06589e-05 -0.000228989)
(0.122649 2.88551e-05 -3.71256e-05)
(0.115938 -0.000264874 7.2233e-05)
(0.116593 0.000603754 -0.000627052)
(0.117551 -9.52362e-05 -0.00033549)
(0.11727 -0.000382959 -9.29896e-05)
(0.119471 -0.000154059 -0.000534164)
(0.114253 -9.32455e-05 -0.000416655)
(0.122006 0.000260252 -0.000838445)
(0.118443 8.83474e-05 -0.000267206)
(0.121216 9.016e-05 0.000978247)
(0.119056 -0.000245923 -9.62456e-05)
(0.123226 -0.00023642 -0.000284619)
(0.120037 -0.000177475 -0.000838318)
(0.114363 0.000183009 0.000562311)
(0.12054 0.000828102 9.28688e-05)
(0.123367 -0.000199156 -0.000944105)
(0.115195 0.000348993 0.00108358)
(0.122206 -0.000105502 -0.000736553)
(0.123925 -0.00101911 -0.000552019)
(0.120105 -0.00027968 -8.29865e-06)
(0.11871 0.000248128 0.000113892)
(0.122833 -7.63289e-05 -0.000860794)
(0.117606 -8.98552e-06 -6.15933e-05)
(0.119743 -0.000421593 2.07061e-05)
(0.119493 0.000179942 0.000247804)
(0.115308 -4.87085e-05 3.22386e-05)
(0.115709 -0.000129098 -0.00117312)
(0.118748 0.000216943 0.000408972)
(0.117741 0.000588456 0.000148041)
(0.121805 -0.000109746 -0.000304743)
(0.1174 -0.000392492 0.000307012)
(0.118837 0.000420841 0.000441644)
(0.122917 0.00016488 0.000329857)
(0.118779 0.000209882 -1.28991e-05)
(0.113719 0.000215204 0.000299173)
(0.117657 0.00027175 0.000125821)
(0.119843 0.000411095 -0.000252594)
(0.123217 -0.00018917 0.000232165)
(0.11425 0.000703514 0.000425424)
(0.114134 -0.000100826 0.000268631)
(0.123109 0.000289724 0.000880477)
(0.114404 0.000245788 4.12154e-05)
(0.120687 -6.11759e-05 -0.000105992)
(0.121919 0.000199233 -0.000246892)
(0.115792 -0.000159553 -0.000811382)
(0.119903 0.00018338 -0.000260168)
(0.122681 0.0004558 -0.000555564)
(0.119617 1.13864e-05 0.000628799)
(0.112783 3.72407e-05 0.000183856)
(0.12241 0.000199599 -9.96963e-05)
(0.11965 -6.12941e-05 -0.000331967)
(0.11344 0.000513844 5.03792e-06)
(0.122702 0.000228825 -0.000175731)
(0.118287 -0.000131677 -0.000212238)
(0.118641 0.000483512 -0.000386077)
(0.121304 -0.000133914 -4.2485e-05)
(0.113711 0.000806166 -0.000445571)
(0.118515 -5.38014e-05 -0.00100071)
(0.118046 -0.000559052 3.12021e-05)
(0.119664 4.042e-05 -0.000476175)
(0.115698 -0.000101543 0.000425289)
(0.117364 -5.33187e-05 -8.53735e-05)
(0.121577 0.000476313 0.000384831)
(0.123682 -0.000780523 -0.000635277)
(0.12437 -0.00032518 9.46269e-05)
(0.123102 0.000415477 -0.000279346)
(0.122652 -0.000565699 -0.000204356)
(0.121516 0.000121905 -0.00126907)
(0.117038 -0.000231836 0.000375813)
(0.123783 0.00018086 -0.000981268)
(0.12169 -8.82135e-05 -6.62406e-05)
(0.121046 0.000599588 0.00017201)
(0.115959 0.000851806 -0.000312699)
(0.120228 -0.000165813 -0.000223134)
(0.120912 0.000386139 0.000568274)
(0.124204 0.000892007 4.43632e-05)
(0.11432 -5.08664e-05 0.000278979)
(0.113237 -0.000525445 0.00036687)
(0.122598 0.000121014 -0.000604695)
(0.11772 -7.18409e-05 -0.000341933)
(0.122563 7.34085e-05 -3.21874e-05)
(0.118336 6.14671e-05 -0.000424775)
(0.115756 -0.000231588 -0.000794175)
(0.120715 -2.00517e-05 -0.000858144)
(0.122515 0.000360657 -0.000116391)
(0.120115 0.000251187 9.52986e-05)
(0.121873 0.000908856 -0.000300816)
(0.114988 6.87866e-05 -0.00164707)
(0.122024 0.0010651 0.000382453)
(0.121635 -0.000208262 -0.000489885)
(0.113595 0.000343806 -3.58844e-05)
(0.121583 -0.000193301 -0.000514716)
(0.121399 -0.000243666 2.24212e-05)
(0.12056 0.000248304 0.00143636)
(0.115242 -0.000607467 -0.000873438)
(0.114173 0.000276364 -0.000751734)
(0.119055 0.000319618 -0.000312822)
(0.119322 4.95003e-06 0.000919333)
(0.11988 -0.000183219 0.000176747)
(0.119223 0.000506066 0.00017104)
(0.118702 0.00046492 0.00068121)
(0.122272 0.000117931 1.71514e-05)
(0.120104 -0.000140495 0.000195134)
(0.120396 0.000326639 0.000231603)
(0.115945 -0.000280181 0.000654778)
(0.12313 -9.39072e-05 -0.000973971)
(0.114666 -0.000212538 -4.66281e-06)
(0.119755 0.000720042 -2.60145e-06)
(0.11915 0.000358202 -7.37621e-05)
(0.119218 -0.000828851 -0.00063362)
(0.120888 0.000459837 5.5114e-05)
(0.11775 -0.000253485 -0.000425014)
(0.115198 -0.00077917 -0.000487017)
(0.11385 -0.00016884 -0.00050911)
(0.115227 -0.000308859 -0.000244426)
(0.119076 -0.000507259 -0.00037282)
(0.121506 0.000664327 0.000250255)
(0.114486 0.000442493 0.00171248)
(0.121927 -0.000186976 -8.12419e-05)
(0.119414 1.74103e-05 -0.000729546)
(0.122825 -0.000363387 -0.000408427)
(0.114392 -1.4807e-05 -0.000742535)
(0.117763 0.000406006 0.000555608)
(0.121738 0.000186948 -0.000720445)
(0.122926 -0.000824415 -3.84041e-05)
(0.121628 0.000342827 -0.000393628)
(0.122619 -0.000230532 -0.000246749)
(0.12022 0.00010821 0.000180535)
(0.119316 0.000542422 0.000156564)
(0.12313 -2.95936e-05 0.000320299)
(0.12284 0.000379722 -1.6965e-05)
(0.122963 0.00027081 9.71477e-05)
(0.116213 0.000958978 -0.000421929)
(0.122866 -0.000747563 -0.000728704)
(0.113893 -0.000316717 0.000411971)
(0.123056 0.000692568 2.5043e-05)
(0.120359 0.000187102 -0.000203661)
(0.119126 8.78381e-05 -0.000518121)
(0.115117 0.000811954 9.62534e-06)
(0.11941 0.00114003 -0.000722104)
(0.112606 -0.000849237 -0.000592752)
(0.121906 0.000165512 -0.000520073)
(0.119624 0.000116786 -0.000254622)
(0.122259 -0.000166199 -0.000243288)
(0.11861 0.000352732 -0.000291564)
(0.118573 0.00116357 -0.000312663)
(0.114481 -0.000302786 0.000678201)
(0.123443 0.000220562 -5.9486e-05)
(0.115755 -0.000547089 0.00022864)
(0.113043 -0.000281078 -0.000335322)
(0.11556 -0.000225321 6.58761e-05)
(0.115943 0.00027964 0.000122892)
(0.11534 0.000741008 -0.000102515)
(0.119571 -0.000316771 0.000106772)
(0.11458 0.000123678 -7.78546e-05)
(0.12109 -0.00111207 0.000408046)
(0.121625 8.18498e-06 -0.000478469)
(0.112971 -6.68167e-05 -3.58592e-05)
(0.121252 0.000360407 -9.7509e-05)
(0.115035 0.000356333 -0.000737258)
(0.118838 0.000721198 -0.000125455)
(0.119855 0.000342943 -0.000105294)
(0.119342 -0.000221672 -0.000967478)
(0.121692 0.000108396 -9.74788e-05)
(0.123632 0.0002344 -0.000845366)
(0.121789 -1.96323e-05 0.00037132)
(0.120965 4.58867e-05 -0.000149274)
(0.120614 -0.000180081 -0.00110221)
(0.121482 0.000389917 0.000207449)
(0.118597 0.00028834 3.01483e-05)
(0.119059 0.00036811 0.000154384)
(0.113568 0.000609825 -0.000827807)
(0.110812 0.00123191 0.00350377)
(0.122436 2.7486e-05 0.000105985)
(0.11962 6.01386e-05 -0.000213993)
(0.12161 -0.00028955 -0.000139744)
(0.121636 -4.965e-05 0.000187073)
(0.113922 -0.000533231 -5.78315e-05)
(0.122361 -0.000128533 -0.000340105)
(0.122732 0.000557583 6.37819e-05)
(0.122443 5.79654e-05 0.000139161)
(0.122416 0.000231366 0.000439343)
(0.120917 0.000365175 0.000433581)
(0.120457 -0.000537814 -0.000234881)
(0.122442 -5.77355e-05 6.1753e-05)
(0.123157 -0.000157525 0.000482509)
(0.120684 0.000356846 0.000348477)
(0.122731 0.000235222 -0.000216547)
(0.122088 -0.000364434 -0.000455682)
(0.116407 -0.000326453 -0.000471183)
(0.122364 -0.000145805 0.000257077)
(0.116876 -9.90298e-05 0.000529751)
(0.119823 8.27924e-05 -7.85057e-05)
(0.119941 -0.000826892 2.08083e-05)
(0.119331 -0.000504309 0.000175467)
(0.118725 0.000651071 6.12377e-05)
(0.121525 0.000368043 -0.000112629)
(0.118931 0.000333244 0.000268221)
(0.120407 0.000462385 -0.000494023)
(0.118788 0.00116599 -0.000602146)
(0.113924 0.00119769 -0.000816279)
(0.123557 0.000441673 -0.000337144)
(0.121433 0.000612838 -0.000173954)
(0.118466 4.55428e-07 0.000698345)
(0.114475 -0.000476164 -2.00805e-05)
(0.121835 -0.000365332 -7.96281e-05)
(0.114036 -0.000600309 -0.000580196)
(0.122635 -0.000328955 6.26603e-05)
(0.121869 -7.55838e-05 0.000351395)
(0.118433 0.0011528 -0.000499465)
(0.121608 -0.000375052 0.000193641)
(0.123052 0.000110709 -0.000466542)
(0.120504 -0.000459377 -0.000139881)
(0.113772 -0.000124374 0.000219869)
(0.118894 -1.17472e-05 5.85674e-05)
(0.116712 0.000595724 -0.000486347)
(0.119523 0.000139092 -0.000180882)
(0.11406 -0.000495984 -0.000916693)
(0.12118 -0.000128279 -0.000333017)
(0.121712 -0.000489273 0.000578299)
(0.11733 0.000661655 -0.000726357)
(0.119427 9.40666e-05 4.88192e-05)
(0.116726 5.03891e-05 -0.000347762)
(0.12197 2.25151e-05 -0.000423967)
(0.118599 -0.000689489 0.000131331)
(0.119619 0.000408594 0.000480012)
(0.114576 -0.000197359 3.65557e-05)
(0.12232 -7.79449e-06 6.07653e-06)
(0.120506 -0.000386686 -0.000178113)
(0.122464 4.84333e-05 -0.000100988)
(0.117024 0.000538401 -0.000368473)
(0.119545 -6.50006e-05 -0.000326815)
(0.120474 0.000116612 -0.000320208)
(0.118365 -0.000117236 0.000248962)
(0.120252 -7.39575e-05 0.000259909)
(0.119762 -0.000227846 0.000558025)
(0.122051 -0.000415313 0.00010669)
(0.119557 -0.000212883 -0.000110097)
(0.115081 8.95966e-06 -0.000205271)
(0.11323 -0.000172561 -0.000648577)
(0.121076 -0.000659694 0.000101806)
(0.114034 0.000526936 -0.00107484)
(0.117595 -0.0006902 -0.00131445)
(0.119593 0.000274015 -0.000233646)
(0.11974 0.000295506 8.64307e-05)
(0.123037 0.000513781 -0.000302829)
(0.113912 -1.70261e-05 -5.34613e-05)
(0.119248 -0.000117634 -0.000701518)
(0.123421 9.13487e-05 -0.0004153)
(0.115206 0.000828993 -0.00268601)
(0.115425 0.00137928 7.95363e-05)
(0.118779 5.63661e-05 -0.000768698)
(0.115406 -1.12804e-05 -1.90509e-06)
(0.121058 0.000677028 -0.000756029)
(0.115565 -0.000321922 8.82844e-05)
(0.122828 -0.000799792 -0.000330134)
(0.117136 0.000218887 0.000493032)
(0.118255 0.000457652 0.000496577)
(0.123786 0.000403279 0.0008359)
(0.113156 -0.000173417 0.000495748)
(0.117726 0.000115455 0.000390197)
(0.117702 1.72952e-05 0.000560442)
(0.122397 -6.44132e-05 -0.000741132)
(0.122563 5.33844e-05 0.000269498)
(0.122364 4.25171e-05 -0.000169782)
(0.114765 0.000703325 0.000324853)
(0.121271 0.000104376 -0.000374336)
(0.122097 0.00013377 0.000909682)
(0.117357 -0.00019511 -0.000170729)
(0.122326 0.000380524 -0.000107574)
(0.121709 0.000366165 0.000203008)
(0.121525 0.000377805 -7.57147e-06)
(0.122689 -4.36047e-05 -0.000607821)
(0.1197 6.12441e-05 -0.00016949)
(0.123725 -8.48545e-06 0.000365087)
(0.123056 0.000713269 0.000813578)
(0.122587 6.24792e-05 -0.000456963)
(0.120438 0.00051006 0.000314037)
(0.118735 -0.000261093 -0.000377387)
(0.119869 0.00039394 6.97811e-05)
(0.119532 0.000160877 -0.000350025)
(0.113623 -0.00087453 -0.000260901)
(0.118574 -0.000459597 6.4797e-05)
(0.120551 -0.000222486 0.000466153)
(0.122396 -0.000275385 -0.000292179)
(0.122846 -0.000298132 -0.000674799)
(0.118913 -0.000446849 4.07743e-05)
(0.123696 0.00114424 -0.000170282)
(0.121568 -6.04921e-05 -3.70667e-05)
(0.117767 -0.00069306 0.000567881)
(0.121709 -0.000100691 -0.000399822)
(0.122454 2.5723e-05 -0.000231256)
(0.120959 6.44753e-05 -0.0005394)