/*--------------------------------*- C++ -*----------------------------------*\
| =========                 |                                                 |
| \\      /  F ield         | OpenFOAM: The Open Source CFD Toolbox           |
|  \\    /   O peration     | Version:  2212                                  |
|   \\  /    A nd           | Website:  www.openfoam.com                      |
|    \\/     M anipulation  |                                                 |
\*---------------------------------------------------------------------------*/
FoamFile
{
    version     2.0;
    format      ascii;
    arch        "LSB;label=32;scalar=64";
    class       surfaceVectorField;
    location    "0.04";
    object      Uf;
}
// * * * * * * * * * * * * * * * * * * * * * * * * * * * * * * * * * * * * * //

dimensions      [0 1 -1 0 0 0 0];

internalField   nonuniform List<vector> 
68568
(
(0.120997 0.00024691 -0.000134257)
(0.120279 0.000575041 -0.000178188)
(0.119983 0.000384165 -2.48121e-05)
(0.122449 0.00080012 -0.000346434)
(0.120343 -0.000405821 -0.000248627)
(0.120297 -0.000474128 -0.000471578)
(0.119164 -0.000411225 5.96315e-06)
(0.113501 -0.000203497 -0.000228669)
(0.121597 0.000212834 0.000292628)
(0.121313 -0.000480146 0.00074489)
(0.120019 -0.000288766 0.000173487)
(0.116561 -0.000627419 0.000776354)
(0.123608 -0.000195668 -0.000231375)
(0.122477 -5.22043e-05 -0.0004231)
(0.123491 -0.000126352 -0.000310134)
(0.123795 -0.000198121 -0.000327454)
(0.118457 -0.000228363 -0.000261965)
(0.121246 -0.000500078 -0.000308552)
(0.117858 -0.000229074 -0.000321588)
(0.120871 -0.000496919 -0.000356392)
(0.120917 -0.000124532 -2.77951e-05)
(0.119566 -6.71261e-05 0.000139069)
(0.121089 -7.367e-05 0.000153366)
(0.114849 -7.51524e-05 -0.000270733)
(0.119829 -3.07511e-05 -0.000199038)
(0.115414 -0.000169472 0.000121455)
(0.117173 0.00011541 -0.000467361)
(0.119895 -4.1302e-05 -0.00026145)
(0.1198 0.000253677 0.000431206)
(0.121983 0.000139949 1.47941e-05)
(0.120718 -4.50743e-05 -3.25399e-05)
(0.121141 -0.000173039 -0.000363854)
(0.119975 8.54627e-05 -0.000272995)
(0.120015 0.00026221 -0.000609613)
(0.121947 -0.000267355 -9.73218e-05)
(0.120858 -0.000516131 -0.000365401)
(0.122482 -0.000123579 -0.000592908)
(0.12268 -0.000494594 -0.000425392)
(0.122733 0.000470463 1.42871e-05)
(0.121561 0.000319392 -7.85428e-05)
(0.122561 0.00028956 -9.50746e-05)
(0.119136 -0.000132283 -0.000519293)
(0.122982 -0.000460103 -0.000741663)
(0.122561 -0.000555861 -0.000664335)
(0.120395 -0.000223669 3.61357e-05)
(0.119394 -0.000425806 -3.16004e-05)
(0.113975 1.36025e-05 -0.000336884)
(0.122487 -0.000156077 -0.000150293)
(0.122379 -0.000144456 0.000252621)
(0.121545 -0.000149303 0.000160096)
(0.119658 -8.43884e-05 0.000165006)
(0.118157 -0.000314617 -3.11806e-05)
(0.119768 -0.000286827 -0.000150955)
(0.119097 -0.000255941 -4.52495e-05)
(0.113468 -0.000307943 -7.9849e-05)
(0.119992 -0.000427638 0.000787166)
(0.11555 -0.000356655 0.00049321)
(0.117256 -0.000390131 0.000723058)
(0.120259 -0.000315017 0.000288245)
(0.119417 0.000168855 0.000252288)
(0.120301 0.000311978 0.00026825)
(0.119879 0.000243185 0.000183419)
(0.121358 7.17084e-05 0.00015929)
(0.115823 0.000412313 0.000442502)
(0.115952 -0.000324687 0.000697126)
(0.119605 -6.27334e-05 0.000269609)
(0.119796 4.27915e-05 -0.00059752)
(0.117396 -0.000356875 -4.7482e-05)
(0.11614 0.000103428 -0.000691371)
(0.120242 -0.000185417 -0.00035215)
(0.120137 8.32325e-06 -0.000129049)
(0.121505 -0.000308369 -5.36007e-05)
(0.121098 -0.000471814 3.99468e-05)
(0.115927 -0.000140698 -3.58939e-05)
(0.11525 -0.000184207 -0.000380431)
(0.116898 5.44915e-05 -0.00031479)
(0.11557 0.000267346 -0.000323817)
(0.105738 -0.000144976 -0.000469345)
(0.121512 -0.000450955 -0.000555887)
(0.122958 -0.000204983 -0.00063131)
(0.122007 -0.000306509 -0.000627377)
(0.122441 -0.000342858 -0.000737232)
(0.122031 0.000388983 -0.000238953)
(0.122068 0.000446575 -0.000111966)
(0.119822 0.000491709 -5.38696e-06)
(0.122797 0.000565364 -0.000261939)
(0.11698 0.000268566 -0.000255675)
(0.117354 -0.00013171 -0.000240589)
(0.119898 0.000180557 -0.000381494)
(0.12034 3.87596e-05 -4.88899e-05)
(0.114897 -3.45248e-05 8.07059e-05)
(0.118969 -0.00012643 -7.39865e-05)
(0.116709 0.000241827 -0.000449519)
(0.119037 -0.00010905 0.000241389)
(0.119653 -6.28136e-06 -7.05783e-05)
(0.119677 -0.00039335 0.000167242)
(0.121716 -0.000264171 0.000733356)
(0.119882 -7.469e-05 -0.000254328)
(0.121196 -0.000160257 -0.000136444)
(0.115601 -0.00011153 0.000285758)
(0.122659 0.000712778 0.000355211)
(0.120439 0.000855107 -0.000218452)
(0.122477 0.000845607 0.00015367)
(0.120842 0.000550011 -0.000618946)
(0.12073 0.00019405 0.000423454)
(0.114912 0.000440209 -0.000242481)
(0.11669 0.000450676 0.000140802)
(0.122402 9.06149e-05 0.000301567)
(0.121531 -9.1847e-05 0.000294834)
(0.122446 1.95042e-05 0.0003072)
(0.12304 -0.000285174 -0.00020945)
(0.121386 -5.85058e-05 -9.66358e-06)
(0.123175 -0.000231044 -0.000142517)
(0.120866 -0.0001371 -0.000187248)
(0.119393 -0.000222579 -0.000161162)
(0.11943 -8.79791e-05 -0.000276097)
(0.115999 0.000325069 1.98966e-05)
(0.115534 -0.000290011 0.000335233)
(0.122091 0.000249007 -0.000474645)
(0.121421 3.28704e-05 -0.000299884)
(0.122231 4.79779e-06 -0.000432167)
(0.122612 -3.14441e-06 -0.000311663)
(0.117115 -0.000125206 -0.000226815)
(0.116001 -0.000264209 0.000109592)
(0.120308 -0.000200491 4.24321e-05)
(0.120461 -2.41609e-05 0.000128996)
(0.117192 0.000323882 0.000228942)
(0.114985 0.000196231 0.000197176)
(0.114936 7.80325e-05 -0.000105986)
(0.106545 6.50435e-05 0.000202079)
(0.122482 0.000459586 -0.000136894)
(0.11478 -7.79007e-07 -7.14165e-05)
(0.114976 -0.000463913 -0.000216069)
(0.112703 -0.000255119 5.49783e-05)
(0.105905 -0.000297254 -5.25621e-05)
(0.123012 -0.000453139 0.00029632)
(0.122982 -0.000613679 0.000165464)
(0.123148 -0.000207487 0.000430452)
(0.12244 -0.000547184 0.000294688)
(0.121015 -0.000322485 0.000331697)
(0.121062 -0.000328166 0.00053912)
(0.122541 -0.000370498 0.000589399)
(0.113642 0.000516309 -0.000439762)
(0.114895 -0.00030026 -3.37997e-05)
(0.106798 6.06641e-05 -0.000118215)
(0.118296 -7.32263e-05 -0.000113539)
(0.115826 -0.000107193 -0.000393442)
(0.106997 0.000129398 -0.000481707)
(0.116605 -0.00021362 0.000115672)
(0.116626 -0.000493175 -0.00011039)
(0.117605 -0.000417822 -9.99082e-05)
(0.106199 -0.000325382 0.00011259)
(0.122277 -0.000180231 0.00014087)
(0.120313 -0.000164596 2.93655e-05)
(0.121586 -0.000302531 -0.000495666)
(0.122613 -0.000824032 -0.000462861)
(0.121335 -0.000781177 -0.000771031)
(0.122767 -0.000555079 -0.000896911)
(0.121996 -0.000558084 0.000624976)
(0.12238 -0.000719873 0.000234739)
(0.121743 -0.000280948 0.000303999)
(0.123181 -0.000632256 -0.000246742)
(0.121877 -0.000700522 -3.34087e-05)
(0.121282 -0.000419965 -0.000364886)
(0.123093 -0.000282934 -0.000485801)
(0.119226 -8.46363e-06 -0.000352971)
(0.11754 0.000491006 -0.000512469)
(0.112465 -4.21294e-05 -0.000340075)
(0.120554 0.000343809 -0.000476782)
(0.120873 2.29758e-05 -0.00034304)
(0.118365 0.000207444 -0.00074729)
(0.11703 0.000110754 -0.000266166)
(0.119223 -0.000221239 0.000209054)
(0.118957 -3.46778e-05 4.57413e-05)
(0.121106 -1.94699e-05 -0.000265387)
(0.120015 -0.000227381 0.000123069)
(0.122322 -0.000135086 -0.000369023)
(0.121273 -0.000281721 -0.00052005)
(0.12149 5.42923e-05 -0.000433561)
(0.123083 0.000146942 -0.000815133)
(0.123498 -0.000111358 -0.000396211)
(0.117236 -0.000217389 -0.000561913)
(0.114981 4.11883e-05 -0.00026428)
(0.115695 1.71293e-05 -0.000167315)
(0.105379 3.3872e-05 -0.000327085)
(0.121636 0.000675452 0.000190026)
(0.120854 0.000538259 0.000244922)
(0.12244 0.000614626 0.000209372)
(0.122014 0.000421792 0.000171551)
(0.114168 -0.000403282 9.27905e-05)
(0.106371 -0.000148277 0.00035694)
(0.118098 -0.000182222 -0.000258727)
(0.117936 -0.000425867 -1.15277e-05)
(0.121072 -0.000229254 -0.000279826)
(0.121114 -0.000343162 -7.33724e-05)
(0.11853 0.000215197 0.000229689)
(0.119104 0.000112054 0.000186027)
(0.121025 -0.000136697 1.85895e-05)
(0.116763 -6.20745e-05 -0.000711921)
(0.115462 -7.50823e-05 -0.000343726)
(0.116978 8.43563e-05 -0.00017497)
(0.106307 0.00034756 -0.000289692)
(0.121501 0.000128628 0.000454436)
(0.121074 -0.000199293 0.000124407)
(0.120006 6.82835e-06 0.000415171)
(0.115858 3.00823e-05 0.000355371)
(0.12123 -0.000284153 0.000159163)
(0.119946 6.21752e-05 0.000448516)
(0.121203 -7.34024e-05 -5.52947e-06)
(0.114925 6.30018e-05 0.000246564)
(0.114814 6.60479e-06 -0.000137968)
(0.114967 0.000472742 -0.00014734)
(0.107237 0.000155278 -0.000126393)
(0.120035 -0.000465503 -0.00053909)
(0.119717 -3.98741e-05 -0.000368625)
(0.11997 -0.000147441 -0.000212007)
(0.121802 0.000365185 0.000102162)
(0.120484 0.000421386 0.000191973)
(0.12258 0.000131466 -0.000131255)
(0.121133 0.000249197 -0.000187557)
(0.119755 -0.000148393 -0.000411649)
(0.117082 -0.000231742 -0.000534489)
(0.117159 -0.000221986 -0.000293713)
(0.107169 -0.000314558 -0.000216845)
(0.121107 -0.000111149 -0.000121668)
(0.121199 3.65829e-05 6.48926e-05)
(0.114318 2.33345e-05 -0.000225226)
(0.119496 0.000114572 -2.89044e-05)
(0.119803 0.000387513 0.000109164)
(0.121364 0.000442192 0.000166902)
(0.119952 0.000404803 0.000285536)
(0.123008 -0.000122452 -0.000593542)
(0.123281 -0.000201868 -0.000487055)
(0.12318 -0.000327861 -0.000415392)
(0.122606 -0.000222643 -0.000357991)
(0.119116 0.000293203 -0.00103082)
(0.12132 0.000180094 -0.000890148)
(0.121972 -0.000250982 -0.000722388)
(0.119678 -0.000438632 4.81011e-05)
(0.120992 -0.00029867 2.933e-05)
(0.119648 -0.000141176 0.000197633)
(0.115166 -6.59916e-05 -0.000227198)
(0.1171 -0.000928853 -0.000483011)
(0.117637 0.000251875 -0.000385475)
(0.106358 -6.46442e-05 -0.000470192)
(0.122898 0.000284505 5.88161e-05)
(0.12325 0.000215156 -0.000297566)
(0.122844 2.50606e-05 -9.38284e-05)
(0.123409 6.67304e-05 -0.000428893)
(0.122017 0.000313085 -8.45814e-06)
(0.12005 0.000292372 8.22256e-05)
(0.121247 9.30674e-05 8.37576e-06)
(0.121134 0.000184548 -0.000204936)
(0.117239 -6.90234e-06 -0.00108233)
(0.11673 0.000192184 -0.000477512)
(0.118304 2.5795e-05 -0.000807986)
(0.109501 -0.000648331 -0.00079538)
(0.120353 -0.000276689 -0.000640978)
(0.120429 -0.000325642 -0.000858012)
(0.122334 -0.000301586 -0.000484559)
(0.122029 -0.0002683 -0.000605036)
(0.121585 -0.000229749 -0.000211764)
(0.120028 -0.000320865 -0.000357538)
(0.120009 2.91855e-05 -0.000107832)
(0.115472 7.58681e-05 -0.000568525)
(0.121799 0.000603117 0.000300109)
(0.121237 0.000629803 2.8176e-05)
(0.120034 0.000386398 -0.000123457)
(0.11504 3.2473e-06 -0.000650684)
(0.114601 0.000125359 -0.000445991)
(0.116327 0.000336181 -0.000674043)
(0.105674 0.000386085 -0.000215525)
(0.122137 -0.000553931 -0.000118132)
(0.121836 -0.000587008 0.000130898)
(0.123214 -0.000501471 5.7341e-05)
(0.117613 0.00102787 -0.00061761)
(0.120862 3.16832e-05 -0.000431934)
(0.12036 0.0001546 -0.000452752)
(0.119645 -0.000268539 0.000479006)
(0.120095 -9.03063e-06 0.000229167)
(0.120555 4.78355e-05 0.00032728)
(0.114298 -0.000118541 0.000335668)
(0.11711 -0.000207726 -0.000134266)
(0.122011 -6.30641e-06 4.64624e-05)
(0.119924 0.000253184 4.41452e-05)
(0.121988 0.000430552 -0.000103874)
(0.115332 0.000326919 -0.000311909)
(0.119103 -0.000155484 -9.69585e-05)
(0.119362 -4.74253e-05 2.39205e-05)
(0.112421 -9.27001e-05 -0.000298877)
(0.113496 -1.52137e-05 0.000260579)
(0.113115 -0.000306268 9.72611e-05)
(0.106293 -0.000170088 0.000114881)
(0.123091 -3.68623e-05 0.000212671)
(0.121269 -9.36095e-05 -0.000101196)
(0.123026 -0.00027361 0.000173275)
(0.122235 -0.000509313 0.000216593)
(0.122144 -0.000465903 -0.000287742)
(0.121727 -2.97707e-05 -0.000149886)
(0.121562 -0.000104806 -0.000287435)
(0.114828 -0.000165513 2.55548e-05)
(0.119281 -0.000270581 -0.00011435)
(0.121242 -0.000291101 -0.000124085)
(0.121637 -0.000122915 -0.000182289)
(0.119278 2.21439e-05 0.00011504)
(0.12295 -0.000150566 -0.000133559)
(0.121061 -0.000104554 -0.000279291)
(0.121283 6.86076e-05 4.39828e-05)
(0.122934 -0.000224437 -4.28342e-05)
(0.122998 1.77504e-05 0.000193026)
(0.122498 -0.000157224 2.73087e-05)
(0.12326 -0.0001369 -0.000167645)
(0.121468 -0.000164417 -0.000273031)
(0.121222 -0.000279039 -0.000454775)
(0.122913 -0.000108278 -0.000622316)
(0.114968 0.00133564 -0.000937097)
(0.117993 0.000187649 -0.00132957)
(0.116987 0.000569955 -0.000881341)
(0.104196 0.000108409 -0.00040058)
(0.121721 -0.000185796 -0.000253095)
(0.121793 -0.00027804 -0.00031391)
(0.123012 -0.000228325 -0.000546623)
(0.120416 -0.000263084 0.000201838)
(0.121988 -0.000203057 7.33227e-05)
(0.114735 -9.45134e-05 -7.90121e-05)
(0.117369 -0.000250894 2.06354e-05)
(0.116947 -2.57369e-05 4.52816e-05)
(0.120197 -0.0002969 0.000250656)
(0.119997 -0.000352304 -6.60906e-05)
(0.11639 -0.000388334 -0.000961596)
(0.116961 -0.000545457 -0.000139884)
(0.105605 -0.00039297 -0.000162008)
(0.117925 0.000484502 -0.00081278)
(0.119675 0.000231993 -0.000944428)
(0.113465 -0.000283074 -0.000492891)
(0.116313 -0.000562142 -8.12886e-05)
(0.119462 -0.000644806 -0.000164214)
(0.115878 -0.000428383 -0.000409735)
(0.119262 -0.000450437 -0.000219639)
(0.120541 0.000499017 0.000127177)
(0.120333 0.000786508 -1.38774e-05)
(0.118672 0.0010489 0.000477099)
(0.115232 0.000586388 0.000352361)
(0.118812 0.000285954 -0.000242396)
(0.119657 -6.63166e-05 -0.00028996)
(0.121703 0.000234429 -0.000109773)
(0.122086 -0.000239381 -7.02293e-05)
(0.121698 -0.000192899 -2.0813e-06)
(0.114558 -0.000182866 1.41837e-05)
(0.119429 8.2194e-05 0.00029698)
(0.118986 0.000364634 0.000231897)
(0.120441 7.82385e-05 0.000233411)
(0.114112 5.8759e-05 -0.00017037)
(0.116081 -0.00084866 0.000164882)
(0.116573 -0.000357819 -2.84866e-06)
(0.115488 -0.00103025 -0.000319581)
(0.105955 -0.000704618 0.000194584)
(0.121156 0.000330364 0.000190115)
(0.121305 -1.34835e-05 0.000164034)
(0.119293 0.000234623 -0.00027046)
(0.121473 -0.000103384 -0.000177847)
(0.121153 0.000149508 0.000237776)
(0.119596 -0.000111996 0.000386749)
(0.11941 0.000536463 0.000250435)
(0.11798 -0.000361151 -0.000423308)
(0.113673 -4.08378e-06 -0.000177772)
(0.11489 -3.92156e-05 -0.000237251)
(0.116648 -0.000349463 -0.00030804)
(0.115771 0.000119615 -0.000351911)
(0.106256 -4.82538e-05 6.97652e-05)
(0.117234 -5.70753e-05 -0.000279544)
(0.105861 -3.13699e-05 -0.000315925)
(0.121542 -0.000405827 -1.51069e-05)
(0.123333 -0.000189843 0.000275126)
(0.12343 -0.000291746 -8.44846e-05)
(0.10733 3.15963e-05 0.000233664)
(0.115722 -0.000639521 -0.000711664)
(0.116831 -0.000492886 -0.000306284)
(0.116364 -0.000844969 -0.000669539)
(0.105299 -0.000392558 -0.000954402)
(0.115543 0.000622978 -0.000178268)
(0.11896 0.000421725 -7.73362e-05)
(0.114892 -0.000330876 0.000686256)
(0.113765 1.19208e-05 0.000328651)
(0.115594 0.000265238 0.000665452)
(0.10603 -0.000268581 0.000320435)
(0.121773 -0.00105519 0.000303536)
(0.119532 -0.00108239 0.000553862)
(0.119913 -0.000943749 0.000418159)
(0.121796 -0.000994563 0.000175652)
(0.118402 -0.000322431 -0.000643498)
(0.117314 -0.000297699 -0.000268499)
(0.116528 -0.000155225 -0.000263465)
(0.10568 0.000119328 -0.000283596)
(0.120931 0.000326561 -0.00012488)
(0.119957 0.000238487 -0.000157883)
(0.120493 -0.000415891 -0.000136452)
(0.115867 0.000128209 -0.000345901)
(0.117274 -0.000464429 -0.000477076)
(0.117215 -0.000467838 -0.000615386)
(0.119964 -0.000525537 -0.00060514)
(0.121111 0.000101329 -0.000624622)
(0.120924 0.000169741 -0.000626121)
(0.11991 0.000142632 -0.000585609)
(0.114064 0.0004262 -0.000725523)
(0.116439 -7.37232e-05 6.3911e-05)
(0.114705 -0.000429217 0.000100134)
(0.115667 -0.000557705 0.000441662)
(0.105819 -0.000424843 -2.94112e-05)
(0.120879 0.000535353 0.000263991)
(0.116971 0.000435709 -0.000300748)
(0.11676 -0.000210952 -4.71511e-05)
(0.120479 -0.000747989 -8.97573e-05)
(0.116923 -0.000510296 1.35927e-05)
(0.12024 -0.000631717 0.00025577)
(0.121535 0.000126502 0.000134759)
(0.120473 4.21981e-05 -0.000100527)
(0.121407 4.19015e-05 -0.000135313)
(0.120847 7.96957e-05 0.000196483)
(0.120986 -0.000276502 -4.23581e-05)
(0.115014 -0.000292538 7.07519e-05)
(0.119929 -0.000391715 -0.000230811)
(0.120367 -8.03825e-05 -0.000465496)
(0.121665 -2.33444e-06 -0.000257223)
(0.12011 -0.000255271 -0.000115922)
(0.120537 -0.000335032 0.000299505)
(0.122138 -0.000182528 0.000181714)
(0.122826 -0.000342955 0.000131937)
(0.120998 -9.26306e-06 -0.000583726)
(0.120906 -6.2515e-05 -0.000507622)
(0.12302 2.52766e-05 -0.000629664)
(0.119695 0.000238725 -0.00048941)
(0.121428 0.00017366 -0.000342565)
(0.121768 -0.000170692 -0.000685266)
(0.11824 -0.000766761 -0.000244198)
(0.122574 0.000133183 -0.000641144)
(0.120433 -0.000420694 0.000268763)
(0.122073 9.44015e-05 0.000410834)
(0.121972 -5.52343e-05 0.000180252)
(0.122127 -0.000311801 0.000189757)
(0.120289 8.11006e-05 0.00012329)
(0.121068 -0.000166037 0.000251195)
(0.113928 -4.46018e-05 6.06314e-05)
(0.115537 -0.000105151 -0.000573121)
(0.115598 -0.000317616 -0.000282656)
(0.116209 -0.000687343 -0.000333858)
(0.119361 -0.000611248 -0.000374249)
(0.119801 -0.00050073 -0.000392143)
(0.120564 -0.000388847 0.00016577)
(0.120308 -0.000316419 -3.74215e-05)
(0.122529 -0.000235818 -0.000296203)
(0.122513 -0.000229091 3.73741e-05)
(0.121756 -3.12917e-05 -0.000259314)
(0.120231 -0.000264159 -0.000409839)
(0.119848 0.000177886 -0.000154603)
(0.121699 0.000315581 -3.31679e-05)
(0.12146 0.000319967 -0.000412359)
(0.122801 1.49019e-06 -0.000690143)
(0.121935 0.000109238 -0.000230316)
(0.122709 -0.000133908 -0.000628538)
(0.121558 -0.000452153 -5.20852e-05)
(0.120611 -0.000240869 -4.69388e-05)
(0.119405 -0.000893456 0.000175396)
(0.121978 -0.000637442 6.22902e-05)
(0.121326 -0.000159395 6.2419e-05)
(0.117928 -0.000169114 -0.000337052)
(0.122104 -0.000164863 -5.18455e-06)
(0.117738 6.38323e-05 -0.00066881)
(0.122244 -7.00513e-05 -2.06981e-05)
(0.123012 -0.000200543 -0.000405897)
(0.121886 -3.86079e-05 -0.000254383)
(0.121546 -2.37826e-05 0.000269999)
(0.114358 -1.42583e-05 -9.95486e-05)
(0.115031 -0.000231568 -0.000431056)
(0.107105 -0.000103292 -0.000279598)
(0.115576 -0.000601864 -0.000849657)
(0.105717 -0.000312597 -0.000213386)
(0.123016 0.000208089 0.000712612)
(0.121069 0.000225215 0.000209526)
(0.119871 -0.000511511 -0.000448785)
(0.114314 -0.000334017 -0.000335651)
(0.121201 -0.00015567 -0.00077585)
(0.120916 -0.000181439 -0.000571967)
(0.119716 -0.000315248 -0.000317416)
(0.113802 -0.000289463 -0.000397062)
(0.122652 0.000323743 0.000671219)
(0.122703 0.000121385 0.000697564)
(0.122807 0.000195595 0.00060808)
(0.121867 0.000336127 0.000658775)
(0.12099 0.000612821 0.000317904)
(0.121103 0.000358971 0.000233318)
(0.122354 0.000441782 0.000271602)
(0.114735 -0.000217626 -0.000393119)
(0.116478 -9.50914e-05 -0.000226157)
(0.105356 -0.000340493 -0.000424421)
(0.117364 0.000272839 -0.000346891)
(0.116186 -9.43778e-05 -0.000278037)
(0.115519 0.00028856 -0.000353186)
(0.10621 -5.71195e-05 -0.000693756)
(0.122391 -0.00010839 7.11428e-05)
(0.120863 -0.000255295 -0.000399258)
(0.122433 -0.000409673 -0.000106356)
(0.119575 -5.08748e-05 -0.000254095)
(0.121323 -0.000195218 -0.000348686)
(0.116006 -0.000328523 -0.000513092)
(0.116651 -0.000217683 -0.000623685)
(0.106125 -0.000368457 -0.000390433)
(0.117415 -0.000332751 -0.000132974)
(0.115263 -7.35929e-05 1.11783e-06)
(0.114859 -5.29856e-06 0.000237484)
(0.107153 -0.000115783 0.000123951)
(0.122836 -0.000626842 0.000194164)
(0.121203 -0.000418739 0.000437655)
(0.121029 -0.000419239 6.1842e-05)
(0.122735 -0.000382441 -4.34358e-05)
(0.117062 -0.000121537 -0.00126148)
(0.116834 2.89941e-05 -0.000837597)
(0.119665 -0.000243127 -0.000837059)
(0.106455 -0.000275799 -0.00112477)
(0.119613 0.000213135 0.000203018)
(0.120055 -0.000434289 0.0002355)
(0.12007 -0.000153718 0.000243957)
(0.114527 -0.000268745 0.000284772)
(0.11744 -0.000605406 -0.00043972)
(0.120575 -0.000316964 -0.000633708)
(0.120398 -6.70232e-05 -0.000802483)
(0.121009 -0.000118446 -8.29918e-05)
(0.122677 -0.000170335 9.75719e-05)
(0.121748 5.40851e-05 0.000367454)
(0.118057 0.000204603 -0.00111769)
(0.115711 0.000417249 -0.000800624)
(0.11753 0.000827095 -0.000851417)
(0.104888 -0.000338173 -0.000856689)
(0.123866 -7.13339e-05 6.07395e-05)
(0.123631 -0.000220428 -2.04767e-06)
(0.122052 1.68737e-05 -4.95868e-05)
(0.123681 2.87279e-05 7.60899e-06)
(0.121881 -0.00011729 -0.000461229)
(0.119294 -0.000161906 -0.000305252)
(0.118804 -2.32461e-05 -0.000669707)
(0.121619 -0.000251063 -0.000193314)
(0.118158 -0.00100735 -0.000371434)
(0.11851 -0.000919471 -7.37269e-05)
(0.106226 -0.00031392 -0.000514084)
(0.117015 -0.000663352 0.000898346)
(0.115852 -0.000279136 0.000871524)
(0.117589 -0.000560703 0.000633527)
(0.10489 6.3631e-05 0.00017228)
(0.120134 -0.000329217 -1.98721e-05)
(0.11537 -0.000295206 2.15405e-05)
(0.117594 -0.000302221 -0.000724115)
(0.123597 -0.000181964 -0.000209526)
(0.122097 -0.000164871 -0.000325243)
(0.115688 0.000253593 0.000258694)
(0.114854 0.000124173 0.000254977)
(0.116718 -0.000153447 -0.000131104)
(0.105158 -0.00014978 0.000186113)
(0.11798 -0.000198143 -0.000821073)
(0.117804 0.000356394 -0.000549124)
(0.106315 -0.000397357 -0.000923461)
(0.115104 -0.000193078 0.000284147)
(0.117535 -8.5911e-05 0.000283891)
(0.115413 -0.000497589 9.19492e-05)
(0.106663 -0.000283519 9.99007e-05)
(0.115176 -0.000986197 -0.000341362)
(0.117872 -0.000726982 0.0002565)
(0.116254 -0.00103432 -0.000213717)
(0.104641 -0.000553988 -0.000351036)
(0.117858 0.000408505 -0.000538655)
(0.119278 0.000211534 -2.25952e-05)
(0.119631 -9.30116e-06 -0.000342196)
(0.113369 0.000196872 -0.000244149)
(0.116145 0.000342699 0.000153148)
(0.115362 0.00023212 0.000297758)
(0.106632 3.44129e-05 0.000219727)
(0.122431 -0.000561818 2.06549e-05)
(0.122015 -0.00038632 0.000153519)
(0.122813 -0.000500933 -5.74578e-06)
(0.122404 -0.000472095 0.000194717)
(0.121075 -0.000321741 0.00023476)
(0.121236 -0.000236794 3.22109e-05)
(0.123045 -0.000323427 0.000282062)
(0.123316 -0.000327533 0.000270812)
(0.114076 0.000174194 -0.00105519)
(0.114183 0.000117351 -0.000428496)
(0.116143 0.000205975 -0.000700241)
(0.107425 -0.000240574 -0.000532842)
(0.11667 -0.000398988 0.000532776)
(0.117106 -0.00129134 -6.46209e-05)
(0.117323 -0.000635708 0.000209572)
(0.109471 -0.000500315 5.04211e-05)
(0.118766 0.000929063 -0.000186735)
(0.120554 0.000577546 -0.000407842)
(0.120576 0.000527119 -0.000631693)
(0.115231 0.000230146 -0.000681537)
(0.1172 3.33234e-05 0.000114376)
(0.114778 -6.4135e-05 -5.13491e-05)
(0.114163 -0.000228767 -0.000200887)
(0.106633 0.00015687 -7.89505e-05)
(0.121309 -4.35653e-05 0.000458124)
(0.115302 5.01653e-05 -9.82203e-06)
(0.121457 -0.000473685 -0.000369773)
(0.122662 -9.83722e-05 -0.000385605)
(0.121786 -0.000117374 -0.000231988)
(0.121715 -0.000110189 -0.000276781)
(0.119937 0.000412456 8.66301e-05)
(0.11879 0.000342804 0.000209528)
(0.11496 0.000456146 0.000319735)
(0.122063 0.000201579 -2.74727e-05)
(0.121171 0.000253629 0.000390104)
(0.121865 0.000164364 0.000301172)
(0.121835 0.000326565 0.000331267)
(0.121735 -0.000134914 -6.38591e-05)
(0.121648 -0.00043085 -0.000140148)
(0.114657 -0.00027272 -0.000137748)
(0.120018 -0.000209803 -0.000215982)
(0.118819 -0.000333733 2.28725e-05)
(0.119986 -0.000356576 0.00011881)
(0.112816 -0.000114643 -0.000283961)
(0.120098 -1.57402e-05 -2.3315e-05)
(0.120411 0.000257728 8.62242e-05)
(0.114267 0.000175899 0.000206119)
(0.116521 -0.000492778 0.000622739)
(0.120045 -0.000490735 0.000406399)
(0.12025 -0.00074242 0.000594552)
(0.118174 -2.15578e-06 0.000230038)
(0.119674 -0.000340488 -0.000113342)
(0.119841 -0.000289521 9.70102e-05)
(0.114095 -0.000122766 0.000221755)
(0.116634 0.000394118 -0.000148322)
(0.114061 0.000266887 -0.000497333)
(0.105534 0.00088224 -0.000496268)
(0.121368 -0.000169661 -5.33458e-05)
(0.122707 -0.000132513 -0.000131283)
(0.123268 0.000405946 -0.000204098)
(0.119725 -9.63063e-05 0.000322987)
(0.120237 -9.93347e-05 0.000524737)
(0.113332 -0.00041662 0.000677237)
(0.121665 0.000294138 9.39141e-05)
(0.122395 -4.65027e-05 9.75874e-05)
(0.122258 0.000248199 -7.41516e-05)
(0.122454 0.000269752 -5.25897e-05)
(0.11677 -6.10297e-05 -0.000106365)
(0.117494 -0.000145968 0.000163469)
(0.116927 -0.000364601 2.17737e-07)
(0.105406 0.000114992 8.49127e-05)
(0.114918 3.17651e-05 0.000392989)
(0.114752 -0.000199106 0.000381023)
(0.116111 -0.000100769 0.000597929)
(0.105783 -0.000260713 0.000345089)
(0.12122 -0.000302239 -0.000260096)
(0.122054 -0.000186339 0.000231289)
(0.122894 -0.00039438 1.29162e-05)
(0.122591 -7.82328e-05 0.000211827)
(0.121203 -0.000379215 -0.000357588)
(0.122363 1.22907e-05 -0.000464486)
(0.120789 0.000135839 -0.000365109)
(0.118716 -0.000224254 0.000704491)
(0.120795 -0.00027769 0.000150721)
(0.120394 -0.000170713 0.000292888)
(0.119219 -0.000237006 0.000730748)
(0.119281 -0.000120488 0.000183037)
(0.120897 -0.000381972 7.0634e-05)
(0.11462 -0.000114153 0.000296948)
(0.121274 -0.000294783 -0.000669754)
(0.121427 -2.36042e-05 -0.000564675)
(0.119394 -0.000100048 -0.000309522)
(0.114244 0.000168106 -0.000558736)
(0.120794 -0.00012961 -0.000761651)
(0.117401 -0.000210536 -0.000719859)
(0.120675 8.41461e-05 -0.000620723)
(0.117222 0.000306227 0.000295763)
(0.120591 0.000442093 0.000438829)
(0.118095 0.000180138 0.000639124)
(0.120967 0.000312782 0.000284431)
(0.122358 0.000205726 -0.000539045)
(0.119758 0.00036905 -0.000542987)
(0.120339 -7.34928e-05 -0.000778139)
(0.117306 -3.6124e-05 -4.19785e-05)
(0.1063 -0.00016608 -0.000324692)
(0.116725 1.03098e-05 -6.77411e-05)
(0.119763 -0.000208974 -8.81955e-05)
(0.122898 0.000259265 9.79498e-05)
(0.122692 -6.43625e-05 7.1031e-05)
(0.122246 9.61101e-05 0.000282571)
(0.122767 -1.09259e-05 0.000378987)
(0.121636 -0.000515057 6.98464e-05)
(0.121707 -0.0006163 -5.91162e-05)
(0.121464 -0.000480165 7.09933e-06)
(0.121683 -0.000531529 -0.000189565)
(0.121772 -0.000453916 0.000177659)
(0.121475 -0.000578307 0.000154313)
(0.11974 -0.000472121 0.000390483)
(0.118498 -0.00124331 2.83613e-07)
(0.120789 -0.00124673 -0.000311142)
(0.119944 -0.00104993 -0.000561903)
(0.118581 -9.67908e-05 -0.00027952)
(0.118408 0.000249963 -0.000502335)
(0.114417 6.32946e-05 0.000232777)
(0.121487 0.000119348 -0.000439046)
(0.115228 -0.000154266 -0.000344622)
(0.118467 0.000579054 -0.000479517)
(0.118642 0.000617317 -0.000670423)
(0.119779 0.000178628 -0.000501571)
(0.113733 -5.96625e-05 -0.000453774)
(0.12241 0.000201742 -0.000348947)
(0.120867 0.00032698 -0.000379646)
(0.121466 0.000112621 -0.000547244)
(0.106396 3.24614e-05 -0.000172098)
(0.119777 0.000113908 -0.000241934)
(0.114912 -0.000112379 -0.000130463)
(0.117542 0.000169915 -9.1606e-05)
(0.120249 0.000186001 0.00024592)
(0.117204 0.000226212 -0.000140236)
(0.120533 0.000495339 1.5323e-05)
(0.120799 5.7081e-05 -0.000264923)
(0.120262 5.72667e-05 -0.000418833)
(0.119725 7.34546e-05 -7.44847e-05)
(0.115785 0.000282643 -0.000341798)
(0.122605 -8.83663e-05 -0.000405432)
(0.121061 -0.000183634 -0.000570195)
(0.122158 -0.000280452 -0.000556323)
(0.120837 -0.000454135 -0.000405283)
(0.120535 -0.000605949 -0.000420088)
(0.122486 -0.000455769 -0.00024817)
(0.121607 -0.00047962 -0.000122257)
(0.12215 0.000155571 -0.000410923)
(0.122406 -0.000114768 -0.000309855)
(0.116044 -0.000671249 -0.000430146)
(0.117057 -0.000886301 -0.000463563)
(0.105434 -5.46238e-05 -0.000397342)
(0.119318 -0.000705416 0.000317103)
(0.120356 -0.000346736 4.43747e-05)
(0.122618 -0.000370698 -0.000167604)
(0.120373 -0.000186644 -0.00026093)
(0.122778 -0.000403957 -0.000188925)
(0.122242 -6.07233e-05 0.00020224)
(0.122049 6.73025e-05 -9.78113e-05)
(0.121383 0.000267808 0.000246233)
(0.117966 -0.000269114 -0.000480874)
(0.121671 -0.000301631 -0.000593305)
(0.112748 0.000146206 0.000139469)
(0.114751 -0.000287388 0.000658364)
(0.114415 -0.000457192 0.000278033)
(0.10392 -0.000508691 0.00034952)
(0.121123 -0.000395185 -8.59937e-06)
(0.12029 -0.000473229 0.000308147)
(0.11555 -0.000354091 0.000866116)
(0.114798 -0.00103364 -0.000346708)
(0.106852 -0.000562379 -0.000207696)
(0.119618 0.000342413 -0.00015473)
(0.119858 0.000467779 0.000206001)
(0.103241 0.000138604 -0.000217335)
(0.120551 -0.00021547 0.000338901)
(0.122732 -0.000373115 0.000309082)
(0.115571 -0.000390494 0.000300132)
(0.118144 0.000311653 0.000309617)
(0.118881 -0.000368777 6.20862e-05)
(0.116272 0.000475619 -0.000232057)
(0.116404 0.000210071 -0.000274233)
(0.116835 0.000402321 -0.000573212)
(0.10532 2.94703e-05 -0.000112572)
(0.120458 -4.98872e-05 0.000126901)
(0.119819 9.1702e-06 0.000121617)
(0.119337 6.05316e-06 0.000199976)
(0.121332 0.00071078 -0.000292627)
(0.122171 0.000761232 -0.000256383)
(0.119401 0.000109312 -0.000197206)
(0.120232 5.83234e-05 -0.00035153)
(0.122295 -0.000632497 -0.00019007)
(0.121889 2.29018e-05 0.000271077)
(0.11715 -0.000530394 -2.00328e-05)
(0.11693 -0.000277797 -9.86425e-05)
(0.104681 -0.00030922 0.000123221)
(0.115721 -0.000919506 0.000214946)
(0.114406 -0.00061601 0.000585743)
(0.106424 -0.000594894 0.000174443)
(0.121595 -0.000634631 0.000347885)
(0.119944 -0.000137881 0.000539382)
(0.120991 -0.000467808 0.000608691)
(0.119721 -0.000293113 0.000101071)
(0.122079 0.000133555 -0.000640554)
(0.122848 1.3028e-05 -0.000611273)
(0.120749 0.00016161 -0.000442172)
(0.116452 0.000491262 0.00011775)
(0.117263 0.000143048 5.53974e-05)
(0.104551 0.000301985 -0.000467078)
(0.1222 -0.000641029 0.000115413)
(0.122127 -0.000675006 0.00035662)
(0.12196 -0.000465498 0.000280068)
(0.118944 -8.82623e-05 -0.000208918)
(0.116754 8.74138e-05 -0.000486016)
(0.106669 -4.2337e-05 -0.000379198)
(0.114955 -0.000244913 0.00022782)
(0.11494 -0.000516513 8.89938e-05)
(0.107124 -0.000310187 -4.27035e-05)
(0.119346 0.000224753 -0.000440444)
(0.118981 0.000191219 -0.000334128)
(0.120457 0.000308048 -0.000156218)
(0.114588 -0.000218748 -0.000358493)
(0.119871 -0.000337971 -0.000293178)
(0.121632 -0.000492128 6.79963e-05)
(0.119655 -0.00028449 0.000454768)
(0.121118 -0.000352896 6.49681e-05)
(0.117996 -0.00113412 0.000244257)
(0.119638 -0.000881974 2.36733e-05)
(0.119805 -0.000798218 -8.7316e-05)
(0.112858 -0.000856132 -0.000181517)
(0.115163 -0.000322125 0.000575353)
(0.118926 2.83799e-05 0.000543306)