/*--------------------------------*- C++ -*----------------------------------*\
| =========                 |                                                 |
| \\      /  F ield         | OpenFOAM: The Open Source CFD Toolbox           |
|  \\    /   O peration     | Version:  2212                                  |
|   \\  /    A nd           | Website:  www.openfoam.com                      |
|    \\/     M anipulation  |                                                 |
\*---------------------------------------------------------------------------*/
FoamFile
{
    version     2.0;
    format      ascii;
    arch        "LSB;label=32;scalar=64";
    class       volScalarField;
    location    "0.016";
    object      epsilon;
}
// * * * * * * * * * * * * * * * * * * * * * * * * * * * * * * * * * * * * * //

dimensions      [0 2 -3 0 0 0 0];

internalField   nonuniform List<scalar> 
31639
(
3.24289
3.26561
3.30682
3.31647
3.22259
3.23638
3.23563
3.27696
3.23684
3.31592
3.32406
3.30696
3.2806
3.29409
3.24007
3.19931
3.24958
3.19823
3.14107
3.26139
3.15867
3.28524
3.31306
3.16788
3.17682
3.23423
3.26573
2.85462
3.21577
3.3086
3.3103
3.19251
3.31051
3.16326
3.16735
3.31857
3.10312
3.33146
3.31833
3.11766
3.15816
3.13343
3.30669
3.28707
3.31021
3.31034
3.24384
3.19081
3.23761
3.31187
3.30206
3.07417
3.33295
3.1569
3.16866
3.24807
3.13464
3.27547
3.26644
3.12878
3.21559
3.26874
3.19653
3.24848
3.23857
3.30613
3.19835
3.27817
3.18781
3.30843
3.3212
3.16765
3.29238
3.26764
3.33272
3.1772
3.31483
3.20209
3.25106
3.28581
3.15695
3.12334
3.32245
3.29399
3.26793
3.31435
3.31762
3.32023
3.11315
3.33869
3.28143
3.19837
3.11992
3.25456
3.12197
3.23358
3.20478
3.26798
3.28026
3.14714
3.31977
3.32297
3.24188
3.11947
3.11703
3.31665
3.11914
3.10617
3.15951
3.16232
3.24776
3.14756
3.25993
3.18713
3.26709
3.13285
3.23957
3.22953
3.32224
3.26234
3.25543
3.30682
3.2818
3.22582
3.2384
3.30823
3.26557
3.1508
3.14768
3.29641
3.29816
3.26625
3.27136
3.1951
3.25194
3.2762
3.1196
3.12751
3.29907
3.27173
3.26183
3.30212
3.31765
3.09622
3.13153
3.30576
3.28144
3.14999
3.13739
3.32036
3.17453
3.28448
3.14359
3.24803
3.13619
3.30731
3.20352
3.18668
3.10239
3.16209
3.31317
3.16085
3.18692
3.13456
3.16167
3.22291
3.17048
3.3133
3.29925
3.07936
3.15042
3.22678
3.15642
3.28048
3.31894
3.29413
3.28558
3.31342
3.2844
3.26112
3.25221
3.15653
3.20409
3.12339
3.24836
3.32078
3.17674
3.31461
3.16276
3.11482
3.32067
3.27248
3.21994
3.25555
3.25636
3.1711
3.19762
3.29501
3.09329
3.1888
3.29148
3.33887
3.21977
3.22845
3.24113
3.27096
3.23717
3.24064
3.30661
3.11679
3.26017
3.20937
3.29127
3.27932
3.25325
3.29963
3.15682
3.20264
3.32907
3.29277
3.28789
3.23326
3.12054
3.31049
3.12667
3.255
3.32259
3.18168
3.15105
3.25175
3.25005
3.31779
3.12688
3.14215
3.21073
3.22941
3.09289
3.27037
3.20201
3.09799
3.24835
3.20542
3.21805
3.17239
3.23475
3.24427
3.23133
3.20938
3.09332
3.2688
3.19282
3.18658
3.18466
3.30872
3.30166
3.20431
3.16398
3.2895
3.27232
3.228
3.32005
3.30526
3.27081
3.31719
3.24503
3.22853
3.10326
3.1598
3.25059
3.21571
3.23389
3.16268
3.23476
3.30164
3.32114
3.27563
3.12097
3.19998
3.16438
3.29895
3.2034
3.32207
3.31307
3.19628
3.13534
3.2216
3.135
3.1299
3.28694
3.14856
3.32775
3.2225
3.16275
3.16348
3.32403
3.18694
3.23405
3.26979
3.26518
3.24839
3.2671
3.1172
3.26155
3.23888
3.1564
3.18428
3.2325
3.06162
3.13599
3.30042
3.33033
3.29243
3.13712
3.19362
3.29626
3.15353
3.12706
3.31359
3.31621
3.23027
3.29928
3.31879
3.14358
3.32682
3.13181
3.15981
3.30458
3.28334
3.29551
3.30524
3.24373
3.14719
3.20587
3.23724
3.32567
3.33919
3.3364
3.25237
3.17895
3.29449
3.30165
3.21306
3.20134
3.18093
3.24127
3.17369
3.2775
3.18921
3.15448
3.28086
3.34526
3.18721
3.32007
3.2619
3.24929
3.14103
3.24294
3.25438
3.13533
3.32032
3.14449
3.23705
3.32776
3.11206
3.27249
3.25418
3.1414
3.21646
3.16248
3.16944
3.31716
3.26014
3.12551
3.24391
3.14994
3.24146
3.30261
3.3092
3.34832
3.16339
3.25643
3.12755
3.23706
3.11711
3.29524
3.29036
3.32068
3.3109
3.15242
3.2967
3.27892
3.30048
3.25147
3.19526
3.19668
3.21049
3.2451
3.23186
3.21724
3.26148
3.17995
3.17362
3.2387
3.28562
3.28328
3.11611
3.32527
3.29959
3.26049
3.24299
3.27152
3.2259
3.27806
3.1481
3.23697
3.29752
3.13245
3.23545
3.2931
3.16759
3.09064
3.14043
3.22967
3.17004
3.27874
3.25545
3.21213
3.33021
3.15342
3.28721
3.30969
3.25941
3.22835
3.1982
3.32512
3.27752
3.26859
3.2987
3.26708
3.12574
3.25877
3.32125
3.31893
3.25859
3.32449
3.211
3.23399
3.28099
3.30071
3.32614
3.13585
3.26866
3.09719
3.22919
3.24143
3.15225
3.17243
3.18752
3.21268
3.26837
3.13808
3.24718
3.19729
3.24739
3.25838
2.76749
3.23962
3.14091
3.22559
3.30155
3.34008
3.27723
3.20092
3.10107
3.24603
3.24853
3.2976
3.14148
3.15147
3.24859
3.14846
3.16225
3.21903
3.14271
3.18624
3.14715
3.24973
3.12045
3.3148
3.29923
3.30912
3.28352
3.24862
3.32439
3.32352
3.23217
3.27682
3.27993
3.30227
3.3343
3.19428
3.28492
3.31118
3.24491
3.12572
3.30588
3.26854
3.09052
3.1549
3.27937
3.34665
3.30186
3.21867
3.31706
3.34128
3.30041
3.29033
3.21774
3.20354
3.1498
3.24642
3.25249
3.31897
3.21807
3.18227
3.14521
3.19701
3.24103
3.07805
3.24122
3.17668
3.21363
3.18011
3.26027
3.21235
3.16329
3.28744
3.27636
3.151
3.24329
3.34728
3.27069
3.2424
2.89756
3.17116
3.25484
3.27304
3.16187
3.12165
3.27965
3.15436
3.25057
3.20053
3.21223
3.31601
3.25462
3.11044
3.24559
3.27828
3.30086
3.13824
3.07461
3.30447
3.12465
3.28716
3.30877
3.14052
3.26414
3.32572
3.2439
3.18144
3.33194
3.25673
3.14467
3.31623
3.2942
3.22741
3.28663
3.08722
3.13052
3.26058
3.17779
3.26571
3.27995
3.33437
3.2902
3.26253
3.30642
3.29363
3.20851
3.18075
3.28069
3.30775
3.37413
3.18969
3.2752
3.22312
3.37419
3.17656
3.10752
3.31052
3.11772
3.31481
3.22434
3.10591
3.17599
3.30242
3.26212
3.24418
3.08947
3.24506
3.19221
3.1354
3.30166
3.30309
2.84097
3.1572
3.21095
3.21526
3.27173
3.27251
3.26193
3.26385
3.2934
3.26852
3.25783
3.17487
3.2997
3.16873
3.27332
3.21917
3.22434
3.34384
3.26288
3.16676
3.09907
3.19967
3.21305
3.29339
3.11702
3.30507
3.25446
3.29274
3.154
3.22515
3.30115
3.3129
3.30398
3.2696
3.2878
3.25604
3.33831
3.3268
3.3245
3.22573
3.25543
3.11997
3.32281
3.3081
3.24735
3.15043
3.23396
3.09141
3.2872
3.24942
3.3282
3.2629
3.22261
3.11182
3.29181
3.09497
3.13357
3.20868
3.22668
3.11161
3.27102
3.15087
3.2272
3.22899
3.09156
3.30991
3.16611
3.12402
3.21885
3.14844
3.25196
3.2907
3.30001
3.30661
3.15199
3.24045
3.18967
3.19616
3.08601
2.6709
3.30997
3.25583
3.245
3.31492
3.13211
3.31481
3.31978
3.29402
3.28205
3.29146
3.28493
3.31684
3.31224
3.27416
3.31567
3.27468
3.15981
3.30906
3.18564
3.29776
3.20552
3.25192
3.14954
3.332
3.25236
3.27299
3.25124
3.20005
3.2969
3.21591
3.17619
3.15327
3.28099
3.07244
3.26501
3.2861
3.22335
3.32096
3.31333
3.32089
3.14392
3.25656
3.26256
3.30872
3.15086
3.26976
3.22936
3.20983
3.26633
3.17849
3.23302
3.2129
3.16862
3.09989
3.28722
3.24032
3.27824
3.20577
3.25278
3.27065
3.24394
3.1856
3.27393
3.29232
3.25756
3.08192
3.12058
3.22677
3.08457
3.08811
3.30256
3.29579
3.27808
3.07845
3.22749
3.29415
3.11605
3.07236
3.22296
3.15312
3.30218
3.19283
3.315
3.18938
3.16611
3.30156
3.09483
3.23384
3.23927
3.29783
3.32166
3.30223
3.17246
3.28257
3.31695
3.19806
3.31433
3.29331
3.25285
3.32742
3.25981
3.35334
3.32221
3.33916
3.27251
3.21196
3.2695
3.25127
3.14863
3.19615
3.30299
3.29259
3.33204
3.25905
3.33731
3.30844
3.19672
3.28215
3.31221
3.27427
3.26804
3.1311
3.15326
3.33585
3.10709
3.2332
3.24625
3.19354
3.22595
3.28516
3.21508
3.29364
3.19773
3.2451
3.19471
3.31089
3.27062
3.19632
3.15328
3.30165
3.18343
3.23047
3.19311
3.22666
3.20736
3.34007
3.17484
3.33011
3.16953
3.27804
3.23259
3.25021
3.24618
3.29806
3.14647
3.29859
3.3151
3.31079
3.29703
3.24995
3.11565
3.32035
3.31486
3.26489
3.291
3.30669
3.2575
3.27828
3.28126
3.10528
3.20419
3.31525
3.11488
3.20711
3.37199
3.31966
3.16047
3.16107
3.32536
3.15251
3.23192
3.12211
3.29602
3.31492
3.10238
3.22078
3.29139
3.26847
3.3205
3.22383
3.30195
3.16626
3.16669
3.33699
3.32422
3.22581
3.11631
3.22009
3.32807
3.19164
3.32534
3.24836
3.2733
3.2332
3.2642
3.29235
3.25832
3.22177
3.14644
3.09603
3.21252
3.27742
3.11171
3.29334
3.11674
3.22742
3.16173
3.14404
3.25206
3.15747
3.24148
3.22573
3.2783
3.16626
3.1674
3.1922
3.12185
3.21537
3.29969
3.24151
3.32415
3.2384
3.26418
3.34226
3.20213
3.24091
3.24721
3.25658
3.23381
3.19988
3.28173
3.30489
3.29545
3.33837
3.18713
3.08614
3.25331
3.30028
3.14076
3.22805
3.28794
3.26421
3.35417
3.16648
3.22811
3.26853
3.12916
3.30854
3.32068
3.14578
3.16057
3.25357
3.18905
3.32357
3.33137
3.25395
3.17425
3.31904
3.10479
3.2694
3.31601
3.21884
3.34113
3.12798
3.25934
3.25733
3.25602
3.16188
3.09681
3.26805
3.32354
3.17155
3.28736
3.30704
3.24072
3.16102
3.20204
3.31285
3.19742
3.2664
3.32069
3.30485
3.35021
3.29568
3.21797
3.23747
3.2818
3.19317
3.29219
3.28315
3.27853
3.30687
3.3481
3.22179
3.28863
3.25855
3.12131
3.31894
3.20627
3.3229
3.18005
3.29501
3.17834
3.268
3.3624
3.26898
3.27658
3.16284
3.29177
3.32189
3.26437
3.10908
3.39325
3.19096
3.25243
3.29582
3.31485
3.29191
3.25428
3.22884
3.34242
3.1824
3.2095
3.17289
3.17617
3.29165
3.13814
3.31903
3.3072
3.33058
3.2485
3.17431
3.27327
3.3195
3.28256
3.2682
3.32283
3.32929
3.25254
3.29623
3.25571
3.25161
3.23711
3.18977
3.32079
3.34059
3.29622
3.30975
3.28957
3.173
3.35694
3.24679
3.2463
3.244
3.28731
3.33086
3.27329
3.28602
3.15047
3.26091
3.2362
3.18048
3.19168
3.25637
3.24613
3.34429
3.19514
3.08813
3.22579
3.31186
3.22678
3.18837
3.26408
3.32084
3.30946
3.2182
3.22752
3.26581
3.29568
3.19477
3.22438
3.26979
3.15959
3.23147
3.21707
3.25864
3.32241
3.2793
3.32155
3.26326
3.26782
3.27173
3.08485
3.11207
3.18194
3.32872
3.28418
3.3464
3.40137
3.27813
3.12251
3.30251
3.21315
3.25636
3.2468
3.27812
3.12031
3.32268
3.14449
3.25739
3.21294
3.24126
3.34954
3.28695
3.31294
3.10587
3.26954
3.25622
3.30871
3.12211
3.2379
3.26597
3.27938
3.22931
3.26654
3.33218
3.1336
3.23074
3.18411
3.20196
3.25951
3.33253
3.33012
3.29642
3.31459
3.16363
3.18295
3.14581
3.35897
3.20032
3.26818
3.1965
3.1486
3.19062
3.31086
3.33485
3.17704
3.21361
3.24029
3.27138
3.32666
3.23609
3.11979
3.26865
3.33148
3.31396
3.34882
3.31003
3.38358
3.3149
3.27414
3.21877
3.15292
3.29086
3.13097
3.33185
3.21438
3.29278
3.18041
3.286
3.19791
3.27451
3.30614
3.31797
3.21878
3.18242
3.33609
3.23242
3.33052
3.22785
3.36714
3.32338
3.2785
3.17281
3.16268
3.24339
3.25263
3.20311
3.36111
3.19936
3.28946
3.24653
3.21625
3.27274
3.32001
3.32452
3.31437
3.3497
3.29644
3.209
3.13519
3.14618
3.29826
3.20328
3.2401
3.25742
3.16256
3.25499
3.20899
3.24707
3.28484
3.31813
3.20392
3.25138
3.27849
3.16798
3.15877
3.23106
3.23231
3.2603
3.16432
3.14194
3.26161
3.18754
3.31406
3.33071
3.27938
3.22804
3.23468
3.24935
3.21744
3.33437
3.17136
3.25802
3.19289
3.31188
3.29495
3.24732
3.28545
3.32061
3.18579
3.27989
3.32209
3.25298
3.06423
3.17111
3.22047
3.22532
3.15353
3.34353
3.34603
3.31845
3.29333
3.18088
3.12857
3.31165
3.35405
3.33106
3.28123
3.26674
3.28735
3.35324
3.28626
3.13445
3.26773
3.27069
3.28325
3.20857
3.28665
3.08728
3.31162
3.30535
3.2077
3.28068
3.24755
3.26897
3.31243
3.31012
3.18187
3.25282
3.31713
3.24739
3.2152
3.26385
3.16086
3.09748
3.31848
3.3294
3.30897
3.31356
3.25692
3.26649
3.20258
3.27772
3.26963
3.31294
3.19144
3.22534
3.20744
3.27564
3.32431
3.12631
3.21657
3.08703
3.31322
3.09752
3.15222
3.24798
3.05629
3.26977
3.30576
3.30312
3.30116
3.1589
3.21177
3.35467
3.26103
3.2319
3.26346
3.15447
3.30719
3.31024
3.22573
3.1893
3.31503
3.35085
3.29327
3.15712
3.1863
3.26532
3.3219
3.34567
3.12267
3.16195
3.30051
3.27295
3.32757
3.24882
3.1085
3.24997
3.31312
3.14104
3.12263
3.31116
3.14273
3.14352
3.31339
3.31336
3.27626
3.36031
3.23491
3.2401
3.33298
3.18176
3.28087
3.17041
3.25691
3.26782
3.23002
3.12907
3.27951
3.28005
3.17026
3.2496
3.18201
3.17033
3.02827
3.22144
3.2915
3.32753
3.17398
3.29022
3.14184
3.2873
3.3195
3.17603
3.31999
3.27896
3.05741
3.12228
3.28183
3.25975
3.30244
3.18151
3.16863
3.28421
3.3291
3.31027
3.23226
3.29794
3.12939
3.32583
3.26864
3.15382
3.13161
3.07684
3.08546
3.29264
3.21027
3.29403
3.27896
3.10138
3.11361
3.10329
3.09682
3.36577
3.35022
3.20189
3.33596
3.28711
3.19887
3.24021
3.23313
3.20465
3.18357
3.28391
3.23993
3.16242
3.29633
3.36265
3.18216
3.31698
3.27332
3.19467
3.1484
3.23206
3.15025
3.17125
3.28416
3.26877
3.19255
3.31777
3.29755
3.25962
3.33449
2.69227
3.2371
3.12747
3.26476
3.32325
3.2409
3.17615
3.25035
3.12176
3.28965
3.25242
3.14963
3.18768
3.07798
3.09601
3.17665
3.11662
3.21215
3.1201
3.20446
3.27024
3.26088
3.2239
3.28972
3.25626
3.26516
3.28687
3.12639
3.18126
3.30919
3.3069
3.23928
3.34663
3.14952
3.30574
3.25019
3.13625
3.29006
3.32301
3.2315
3.29129
3.31864
3.25378
3.08988
3.06914
3.24345
3.32722
3.2362
3.27801
3.20412
3.20546
3.13641
3.13461
3.1171
3.14943
3.23569
3.28344
3.32451
3.20945
3.2036
3.33548
3.17667
3.27733
3.31239
3.32021
3.19919
3.2344
3.31323
3.35508
3.30693
2.90148
3.24797
3.32085
3.25853
3.28165
3.3645
3.28779
3.33008
3.28598
3.17036
3.26219
3.33724
3.26203
3.27487
3.14469
3.29407
3.31688
3.34457
3.30065
3.1045
3.10366
3.24645
3.26442
3.26813
3.26922
3.28583
3.28437
3.27444
3.16598
3.24467
3.27768
3.3188
3.20652
3.21529
3.21396
3.33452
3.15611
3.31818
3.14356
3.18311
3.27165
3.32601
3.19345
3.29611
3.32859
3.29662
3.23803
3.29058
3.27986
3.19841
3.09468
3.31529
3.1335
3.18928
2.93358
3.08693
3.13888
3.18123
3.28263
3.11707
3.18023
3.0728
3.18548
3.2417
3.32016
3.10149
3.18019
3.29002
3.10982
3.16399
3.29774
3.2603
3.26247
3.18711
3.15252
3.1585
3.31464
3.23332
3.15931
3.23386
3.18904
3.29418
3.24917
3.20784
3.32613
3.13492
3.19647
3.25232
3.32857
3.1945
3.22461
3.2513
3.27327
3.10499
3.19811
3.24628
3.31395
3.28728
3.17844
3.12352
3.20888
3.30636
3.24391
3.26367
3.19065
3.20605
3.24905
3.11433
3.31655
3.17296
3.12023
3.13213
3.29345
3.24638
3.311
3.19869
3.30958
3.12341
3.23267
3.10156
3.15068
3.32294
3.18446
3.23157
3.27479
3.21433
3.13376
3.31103
3.29363
3.31085
3.24902
3.13118
3.28539
3.05749
3.33429
3.164
3.322
3.08421
3.291
3.29566
3.20816
3.20608
3.09019
3.17643
3.25176
3.27973
3.25374
3.31644
3.32513
3.14882
3.32087
2.98733
3.28921
3.30098
3.31169
3.29156
3.24858
3.31437
3.20257
3.13973
3.13195
3.28963
3.33651
3.10436
3.19447
3.29331
3.24614
3.26489
3.36908
3.29915
3.24881
3.29272
3.25995
3.323
3.20662
3.21299
3.32168
3.2874
3.01557
3.2308
3.1769
3.32592
3.28105
3.29328
3.16752
3.12931
3.27429
3.29493
3.29902
3.31334
3.32827
3.20487
3.23227
3.1524
3.27292
3.28058
3.30459
3.3224
3.321
3.2377
3.30363
3.21163
3.29298
3.15974
3.24102
3.16476
3.27922
3.21271
3.30384
3.1433
3.3196
3.31651
3.21945
3.13027
3.37804
3.23047
3.29201
3.26687
3.27456
3.27006
3.12257
3.30906
3.23545
3.29475
3.12221
3.14199
3.19989
3.11451
3.15223
3.31434
3.27404
3.0803
3.28962
3.13979
3.22355
3.28137
3.08435
3.10502
3.16986
3.19758
3.27705
3.1664
3.25758
3.2045
2.97521
3.1759
3.29717
3.29976
3.33024
3.28096
3.29481
3.16258
3.10035
3.31009
3.20711
3.26152
3.30575
3.35933
3.28213
3.25359
3.10966
3.28328
3.33035
3.17981
3.2929
3.28197
3.29509
3.20532
3.27083
3.20282
3.09773
3.26643
3.18259
3.14767
3.23373
3.28261
3.32205
3.31499
3.29224
3.30841
3.1244
3.17216
3.35308
3.33742
3.15428
3.26082
3.12377
3.19368
3.29732
3.19782
3.23062
3.33246
3.23186
3.11132
3.29303
3.12863
3.28188
3.26328
3.27218
3.30224
3.28902
3.29198
3.13022
3.30003
3.3079
3.17029
3.29898
3.24746
3.21181
3.32132
3.21538
3.29431
3.33658
3.30135
3.2845
3.32278
3.26946
3.22919
3.21741
3.19417
3.15771
3.06446
3.21185
3.29949
3.26169
3.32285
3.22453
3.30434
3.09679
3.3292
3.32755
3.30329
3.28569
3.19092
3.12548
3.26129
3.1561
3.2801
3.28166
3.1099
3.17103
3.32515
3.30609
3.06452
3.15328
3.10289
3.34563
3.12977
3.31503
3.17381
3.18285
3.29982
3.30013
3.32764
3.2847
3.0981
3.22296
3.3407
3.15352
3.31892
3.27275
3.3194
3.10538
3.26559
3.19505
3.26009
3.22415
3.23561
3.17107
3.20559
3.2404
3.18072
3.27388
3.24452
3.32051
3.20558
3.25626
3.28798
3.31047
3.31533
3.22599
3.2725
3.12148
3.21223
3.31056
3.33229
3.2576
3.20362
3.27834
3.15087
3.22371
3.21897
3.14547
3.11665
3.28982
3.3231
3.15923
3.19511
3.32901
3.12368
3.29146
3.16258
3.23275
3.32113
3.28969
3.13095
3.32417
3.13947
3.30903
3.29338
3.11478
3.33102
3.1604
3.17425
3.20643
3.08872
3.15885
3.20618
3.09623
3.29496
3.33426
3.12753
3.16341
3.28903
3.26965
3.28549
3.36045
3.30289
3.23814
3.12818
3.13899
3.0838
2.8628
3.31062
3.28132
3.21409
3.26745
3.1119
3.11785
3.23218
3.29182
3.05392
3.26452
3.24939
3.23889
3.26379
3.19967
3.30813
3.20058
3.18965
3.34538
3.08823
3.22679
3.29803
3.31886
3.21288
3.31374
3.29275
3.12455
3.34449
3.37097
3.24612
3.27545
3.18723
3.24529
3.30199
3.30184
3.27732
3.26684
3.21302
3.11003
3.19486
3.32984
3.27614
3.33025
3.29932
3.26247
3.33934
3.1795
3.32026
3.12206
3.33427
3.2445
3.17277
3.34939
3.16271
3.20311
3.34093
3.18591
3.34072
3.28125
3.26581
3.16817
3.27601
3.24896
3.20198
3.30482
3.21645
3.23898
3.34009
3.15349
3.2963
3.28137
3.30315
3.17187
3.28327
3.15274
3.20261
3.36738
3.15135
3.27463
3.32061
3.14704
3.22271
3.32126
3.15424
3.16947
3.14209
3.21236
3.15027
3.31944
3.18788
3.31289
3.26454
3.33326
3.13665
3.15474
3.31353
3.24869
3.15158
3.15662
3.18625
2.81171
3.08351
3.24713
3.2471
3.30605
3.20892
3.31277
3.31395
3.3268
3.29357
3.29889
3.1377
3.20913
3.27847
3.23693
3.20093
3.30239
3.25285
3.10446
3.11977
3.18495
2.90932
3.25819
3.30866
3.19482
3.25151
3.31073
3.29787
3.34354
3.18325
3.18508
3.22162
3.21572
3.31569
3.18681
3.25666
3.32323
3.18076
3.18611
3.29158
3.34361
3.32323
3.39262
3.3217
3.25454
3.27746
3.19825
3.21621
3.32581
3.19856
3.30652
3.20875
3.29644
3.09047
3.31005
3.25382
3.31485
3.2315
3.22934
3.25962
3.28723
3.0945
3.21151
3.23687
3.19876
3.1835
3.2937
3.26941
3.32119
3.24968
3.15308
3.17085
3.14185
3.2079
3.28119
3.16551
3.37703
3.26456
3.20673
3.26774
3.12467
3.16493
3.3109
3.15233
3.06298
2.94092
2.97999
3.07901
3.15254
3.32047
3.30068
3.21108
3.29635
3.30801
3.2457
3.25338
3.10093
3.31686
2.63697
3.3071
3.11276
3.10359
3.27332
3.11696
3.22706
3.26073
3.31249
3.1613
3.24286
3.18672
3.25028
3.16621
3.23193
3.1966
3.27234
3.26117
3.14309
3.27857
3.22742
3.22367
2.96398
3.15976
3.16681
3.12898
3.10753
3.26002
3.20133
3.14759
3.20042
3.31133
3.29556
3.31594
2.69416
3.15574
3.32497
3.15999
3.29078
3.08859
3.32264
3.27991
3.33768
3.11526
3.24363
3.32968
3.323
3.25136
3.3209
3.25575
3.23436
3.24064
3.10272
3.22964
3.18387
3.25537
3.26366
3.14716
3.24569
3.28638
3.14217
3.10513
3.13644
3.26152
3.26729
3.14403
3.26908
3.26018
3.26956
3.16916
3.28974
3.20207
3.35663
2.82184
3.22634
3.25661
3.15896
3.31059
3.23104
3.17517
3.23345
3.32406
3.08913
3.28725
3.29011
3.05174
3.12471
3.31765
3.30628
3.15254
3.26364
3.12096
3.24323
3.32223
3.20829
3.2904
3.30163
3.32441
3.20415
3.16964
3.22793
3.25195
3.20105
3.15423
3.26221
3.11815
3.1861
3.21697
3.22859
3.27907
3.22599
3.29789
3.27831
3.26371
3.29529
3.24008
3.19647
3.14827
3.26261
3.21107
3.18506
3.26183
3.30809
3.24812
3.26271
3.1573
3.27934
3.14503
3.14353
3.2356
3.27003
3.15115
3.24346
3.19875
3.07592
3.06738
3.29695
2.98792
3.24192
3.29395
3.23312
3.15353
3.2561
3.37433
3.11618
3.13595
3.196
3.29404
3.26335
3.25979
3.33043
3.11851
3.3132
3.25106
3.32082
3.33529
2.62374
3.25416
3.28435
3.29669
3.21989
3.22089
2.86186
3.30495
3.29853
3.13905
3.12989
3.20183
3.28188
3.25002
3.10768
3.24739
3.28592
3.30815
3.23545
3.26011
3.1191
3.11862
3.13204
3.27183
3.23943
3.21325
3.31281
3.3027
2.90951
3.30453
3.30594
3.29884
3.17387
3.30203
3.17846
3.12391
3.1429
3.2186
3.15429
3.08442
3.22516
3.20948
3.2815
3.16321
3.06645
3.21055
3.30306
3.27193
3.17306
3.19398
3.30019
3.32084
3.23128
3.15012
3.27178
3.29646
3.25708
3.31999
3.28686
3.24304
3.09365
3.18716
3.13257
3.27302
3.28548
3.17122
3.13678
3.33242
3.15145
3.22051
3.14738
3.19735
3.07529
3.25944
3.26044
3.2572
3.19189
3.18105
3.31588
3.13973
3.2586
3.18747
3.25721
3.0882
3.27237
3.26455
3.07633
3.1729
3.23242
3.22959
3.24942
2.8016
3.29412
3.17209
3.24529
3.13975
3.18902
3.1832
2.82863
3.2983
3.15802
2.56903
3.10856
3.27012
3.29623
3.26472
3.16881
2.84615
3.25566
3.12697
3.29014
3.31954
3.21201
3.18465
3.28426
3.09538
3.13151
3.09774
3.27018
3.25
3.17243
3.30261
3.24499
3.2854
3.19557
3.07546
3.32395
3.26572
3.33366
3.29406
3.14185
3.24937
3.26586
3.12206
3.26193
3.17153
3.2281
3.40712
3.27488
3.20817
3.12326
3.22957
3.2322
3.2583
3.19843
3.08402
3.16019
3.21727
3.26834
3.16195
3.29595
3.14545
3.26496
3.17445
3.19098
2.9472
3.30258
3.27239
3.20554
3.32396
3.24435
3.16206
3.07662
2.93995
3.27717
3.0992
3.24483
3.22412
3.3003
3.2436
3.31485
3.13706
2.58376
3.15303
3.31507
2.63894
3.23462
3.3243
3.25133
3.30785
3.11989
3.16979
3.19282
3.32644
2.81582
3.33036
3.17592
3.03753
3.29963
3.16167
3.30934
2.58214
3.12045
3.24975
3.30856
3.31837
3.20949
3.2809
3.24686
3.24196
3.26225
3.23501
3.2313
3.22662
2.97468
3.27701
3.22376
3.21046
3.31871
3.32657
3.27706
3.08867
3.31516
3.28966
3.15404
3.15203
3.10412
3.27997
3.31117
3.29577
3.32219
3.2724
3.2696
3.08624
3.27845
3.22465
3.23312
3.19874
3.12382
2.9789
3.2214
3.36424
3.26857
3.23351
3.14426
3.19947
3.13163
3.13438
3.29846
3.2427
2.63375
2.88741
3.09637
3.11899
3.28509
3.22593
3.24164
3.19308
3.06083
3.25259
3.31197
3.07974
3.33912
3.06559
3.31056
3.18427
3.30317
3.29006
3.26634
3.30937
3.2295
3.13185
3.09651
3.19773
3.28203
3.21837
3.17678
3.13711
3.27786
3.1156
3.21736
3.17283
3.30111
3.216
3.2506
2.69231
3.31534
3.32283
3.17012
3.26003
3.19647
3.2365
3.31381
3.23286
3.27502
3.32042
3.26123
3.12908
3.12569
3.36347
3.08987
3.12711
3.02481
3.27486
3.32424
3.25976
3.31435
3.36509
3.32009
3.28316
3.22125
3.13584
3.24576
2.87173
3.18674
3.28066
3.19666
3.13311
3.18688
3.26391
3.34442
3.02433
3.21388
3.25787
3.01617
3.31449
3.02313
3.07404
3.11279
3.32334
3.17698
3.10723
3.17906
3.07344
3.26718
2.83188
2.86584
3.21302
3.12222
3.08741
3.2516
3.16365
3.17428
3.24399
3.18556
3.09653
3.2633
3.12158
3.14951
3.14978
3.24109
3.15993
2.99941
3.30765
3.2532
3.26217
3.15951
3.15675
3.09443
3.24731
3.21096
3.30693
3.22874
3.28311
3.10769
3.25608
3.29215
3.29108
2.76886
2.85919
3.04924
3.30378
3.08456
3.24767
2.71066
3.21657
3.27837
3.19072
3.24031
3.18269
3.22763
3.22558
3.30599
3.19353
3.21444
3.36791
2.96044
3.21761
3.05596
3.26888
3.18108
3.12623
3.26187
3.11062
2.87467
3.06171
2.96792
3.13384
3.0167
3.30134
3.1048
3.12835
3.17316
3.30022
3.19634
2.98118
3.33136
3.25989
3.16822
3.16299
3.24722
3.09547
3.2392
3.25742
3.21042
3.09421
3.09818
3.23759
3.15661
2.8488
3.08495
3.12443
3.22476
3.10105
3.28863
3.23952
3.21217
3.18536
3.29253
3.10238
3.1993
3.17635
2.57226
3.3393
2.89428
3.20525
3.28805
3.30476
2.91766
3.29846
3.32868
3.13153
3.20293
3.19379
3.16463
2.82483
3.2118
3.14036
3.2625
3.33261
3.14257
3.31888
3.15454
3.15053
2.94763
2.77684
2.86452
3.31252
3.01746
3.27627
3.1479
3.05024
3.13729
3.29713
2.99331
2.5951
3.12532
3.28508
3.28609
3.26913
2.62191
3.20883
3.29884
3.27922
3.33112
3.21641
3.00244
3.29945
3.05096
3.25257
3.14223
3.14315
3.18428
3.26759
3.12477
3.10018
2.94623
3.13607
3.28213
3.22735
3.19215
3.0325
3.08679
3.15077
3.15256
3.2557
3.06346
2.97327
3.2753
3.29255
2.99351
3.28224
3.12884
3.34728
2.86342
3.3013
3.17241
3.27526
3.23815
3.131
3.05079
3.3803
3.18397
3.24049
3.18466
3.02021
3.25697
3.31029
2.95763
3.00284
3.14067
2.96006
3.06062
3.25274
2.82481
3.31908
2.87013
3.15541
3.21419
3.02622
3.18982
3.18183
2.96022
3.19785
3.11264
3.22482
3.0542
3.2878
3.03375
3.19545
2.61898
3.22216
2.83517
2.92163
3.2122
3.09972
3.09913
3.32828
3.25058
3.21441
3.29039
2.8869
3.22865
3.15383
3.24068
3.21336
3.13183
3.28415
3.26689
3.08745
3.0979
3.28793
3.18977
3.21699
2.96183
3.31014
3.36995
3.309
3.21853
3.08006
3.15763
3.1704
2.90449
3.02387
3.26969
3.17033
3.1283
3.17932
3.2099
3.22766
2.90234
3.14719
3.12849
2.89362
3.3402
3.19679
3.09554
3.30741
3.20436
3.1746
3.27939
2.95203
3.12654
2.90505
2.98329
3.32444
3.26261
2.77022
3.31154
3.02202
3.23404
3.24469
3.20633
3.29009
3.1413
3.23693
3.15499
3.19224
3.18096
3.28256
3.00869
2.94587
3.09924
2.83703
3.14578
3.02661
2.97654
3.30064
3.1909
2.80183
2.83067
3.08776
2.96854
3.10723
3.0701
3.14391
3.2835
2.93944
3.24265
3.12852
3.13462
2.97095
3.16412
2.97656
2.71169
2.9824
3.03727
2.94819
3.17831
3.09506
3.17886
2.97913
3.28622
3.09078
3.18402
3.0226
3.16993
3.05632
3.06158
3.22501
3.20184
2.8289
3.08566
3.1077
3.33756
3.28366
3.22805
3.31454
3.26753
3.25583
3.27245
3.13406
3.28804
3.34659
3.169
3.28361
3.25666
3.21727
2.67577
3.14932
3.21821
3.20244
3.05724
3.30605
2.81508
2.84437
2.75498
3.27129
3.02794
3.12842
3.28764
2.87159
3.31858
2.93231
3.30779
3.32794
3.34521
3.34245
2.72586
3.21548
3.34415
3.10481
2.85484
3.08157
2.89376
2.92006
3.17564
2.92487
3.16369
3.22604
3.00026
3.09703
3.07674
3.06646
3.3095
3.24209
3.05705
3.11196
3.08822
3.22811
3.25378
3.3211
2.96937
2.62709
2.98772
3.02879
2.99795
2.96732
3.331
3.29383
3.01561
3.24104
2.80093
2.74557
3.16248
2.82013
3.24348
3.23041
3.04743
3.00657
3.22976
3.31238
3.19225
3.2485
3.10241
2.729
2.7616
3.16561
2.97724
3.27413
2.95737
3.15824
3.15799
3.08259
3.1116
3.09255
3.32123
2.74264
3.06472
3.19298
3.15435
3.17846
3.3448
3.1345
3.10872
3.14484
3.04787
3.04148
2.86619
2.85182
3.04144
2.84532
2.9232
3.07842
3.01652
2.77719
3.17582
2.88083
3.2033
2.83384
2.82599
2.93062
3.05674
3.1494
3.02304
3.15834
2.91546
2.95215
3.02782
3.28262
3.04882
3.28236
3.22648
3.13722
3.04018
3.0935
3.23646
2.90396
3.08998
3.13677
3.24007
3.08782
3.12652
2.84127
3.29394
2.66243
2.68286
2.64755
3.25936
3.26597
3.11474
3.10867
3.22248
2.84937
3.29507
3.13335
3.05242
2.99989
3.12534
3.32092
2.80319
3.22351
3.25769
2.69941
2.81681
3.0159
2.9995
2.75831
3.0896
2.99234
3.17589
2.98054
3.25032
3.09165
2.91235
3.08406
3.20792
3.07398
3.15467
3.02486
3.13385
2.77415
3.0356
3.03038
3.0991
2.69139
2.96812
2.66728
2.74625
3.25587
3.16725
2.84503
2.88061
3.15273
2.96566
2.96972
3.25121
3.06005
2.80795
2.966
2.98226
2.86047
3.07863
3.19433
2.82257
2.6853
3.1435
2.82363
3.04049
3.308
2.6995
3.24235
3.2632
3.22835
2.71062
2.95142
2.7576
3.12154
3.30908
3.20086
3.02265
2.60045
3.01154
3
3.1104
3.1318
3.0296
2.90115
2.89412
2.76153
2.92735
2.85363
2.87259
2.94113
3.0004
3.08532
2.68519
3.14859
2.90896
2.86181
3.15316
3.0338
2.76657
3.18635
3.12397
3.27757
2.62032
3.27429
3.17583
3.17642
2.93336
2.65432
3.17568
3.15063
2.76262
3.10217
2.82932
3.14175
2.97451
2.80655
2.78661
3.18585
2.91001
2.88074
3.18228
3.07562
3.02556
3.08723
2.73308
2.84266
2.92653
3.12749
3.08381
3.28297
2.92904
3.30203
2.65118
2.81507
3.11149
2.91748
2.59851
3.08261
3.09148
2.74759
2.64589
2.91452
3.11084
3.22833
3.05808
2.70928
3.25822
2.96994
3.26765
2.75326
2.89626
2.89171
2.95381
2.94458
2.94049
2.84539
3.31014
3.23528
3.09046
3.14164
2.6969
2.88376
3.04651
3.20666
2.78117
2.87794
2.91896
2.77803
3.20978
3.16121
2.73981
3.23401
3.30567
2.874
3.18108
3.03706
2.67208
3.26442
2.79563
3.2354
3.2458
3.16961
3.28571
3.07434
3.00049
3.23537
3.13654
2.96843
2.83386
3.26702
3.25036
3.0342
3.19147
2.67388
3.11067
3.25252
3.09757
2.73269
2.84124
3.30069
2.96103
2.7345
3.20277
2.6846
2.64161
3.12122
3.09684
3.09546
3.05149
2.86208
3.21966
3.01277
2.93912
3.15822
2.59647
2.93419
2.97913
2.84997
2.74136
3.16358
2.97861
3.15981
2.79333
2.62655
2.82848
3.07597
2.81494
3.20373
3.16887
3.17511
2.69138
3.03517
2.84409
2.72698
2.98653
2.87029
2.90391
2.86057
2.78702
2.68828
2.8243
3.15606
3.31916
3.10566
3.1434
2.81319
3.04529
2.79211
2.8553
2.84985
3.16021
3.10369
3.19452
3.21791
3.14123
3.13046
2.81145
3.24515
2.75259
2.84625
3.24609
2.55013
2.88511
3.27628
2.76243
2.88931
3.15932
3.02993
2.94834
2.84451
3.08367
3.14527
2.9
3.21787
3.12575
3.03844
2.74493
3.20762
2.88848
2.93066
3.04959
2.82081
2.8587
3.07945
2.95931
2.90736
2.95562
2.64795
3.02348
3.14473
2.67331
3.04534
3.2757
2.88529
2.95993
3.04609
3.03904
3.25267
2.65529
3.26338
3.26939
2.88478
2.7994
2.65658
3.00477
2.7408
2.69462
3.26566
2.97815
2.9022
2.67065
2.89359
2.77907
2.88307
3.19015
3.06003
2.85501
2.9616
2.92044
2.84605
2.78975
2.8559
3.06634
2.74103
2.84586
2.70115
3.12288
2.75359
3.1064
2.84349
3.08084
2.83172
3.11977
2.76087
2.84364
2.76824
2.73409
3.18246
3.23057
2.74742
3.21693
2.72631
3.1339
2.90363
3.30836
3.05764
3.02086
2.89561
3.11356
2.87548
2.80993
2.82014
2.95961
2.98879
2.92737
2.91718
2.7735
2.90001
3.00756
2.87332
3.02071
2.61947
3.28949
2.92085
2.95788
2.7365
2.83192
2.79459
2.54042
2.99192
3.27883
2.99273
3.3269
3.28647
2.87433
3.15256
2.86894
2.56371
3.21363
3.22429
3.15704
2.86274
2.78254
2.63192
2.82041
3.21009
2.94667
2.75383
3.06122
2.99565
2.90863
2.8651
2.79643
3.14708
3.20377
2.8017
2.70611
3.06252
2.73306
3.2526
3.1406
3.26778
2.81758
2.73345
3.15945
2.91406
2.80539
2.93347
2.73576
2.81732
3.02588
2.82718
2.78433
3.24049
3.11547
2.68847
2.92115
3.05299
2.91365
2.98028
3.17242
2.91936
3.07664
2.82082
3.10774
2.70264
2.65605
2.68275
3.00149
3.02202
2.96041
2.83307
3.00751
2.87316
3.10113
2.91966
3.22662
2.79867
3.26231
2.88621
3.08999
2.68993
2.84294
3.27325
2.93534
2.69681
2.80543
2.93006
3.17662
3.11286
2.95131
3.1459
3.12305
2.85228
2.63907
2.54056
2.96051
2.77669
2.8886
2.80483
3.20703
2.7223
2.83138
2.98481
3.24474
3.11305
2.82145
2.87646
3.03954
2.9832
3.01311
2.94936
2.83333
2.66735
2.92256
2.87342
3.04977
2.74036
3.09971
2.69763
2.79619
3.15937
3.08495
2.76051
2.87657
3.17731
2.89409
3.02395
2.96742
2.76553
2.78167
3.32245
3.29445
2.84414
2.91211
3.2741
2.66182
3.13895
2.75856
2.70309
3.11361
3.06817
3.38163
3.05189
2.79368
3.10085
2.99637
2.78354
3.25773
2.84005
2.72712
2.81147
2.8853
2.72338
2.79323
2.74957
2.92866
2.67871
2.90715
3.0781
3.0525
3.14146
2.86293
2.72105
3.13972
2.96073
2.86692
2.80717
2.89139
3.04417
2.9475
2.90978
2.78783
3.15613
3.03482
3.04542
2.96534
2.60674
2.78721
2.92783
2.80162
3.29621
2.78338
2.7704
2.95397
2.74188
2.71722
2.82556
2.61823
2.88603
2.82283
3.13229
2.89739
2.72954
3.30085
3.01748
2.77939
2.67391
2.80887
2.85381
2.62734
3.08415
2.68312
2.62435
2.5966
2.74921
2.74936
2.89107
2.56427
2.96251
2.75735
3.21319
3.24105
3.08345
2.87516
2.73064
2.83281
2.7256
2.94662
2.6078
2.76049
3.20518
3.24752
3.13215
3.08577
2.89803
2.8556
2.59172
2.99839
2.87645
2.67761
3.25519
3.2135
2.81045
2.94742
2.64957
3.17317
2.74148
2.72715
2.87802
2.923
2.93472
2.93599
2.69244
2.82162
2.9325
3.00492
3.10448
2.86489