/*--------------------------------*- C++ -*----------------------------------*\
| =========                 |                                                 |
| \\      /  F ield         | OpenFOAM: The Open Source CFD Toolbox           |
|  \\    /   O peration     | Version:  2212                                  |
|   \\  /    A nd           | Website:  www.openfoam.com                      |
|    \\/     M anipulation  |                                                 |
\*---------------------------------------------------------------------------*/
FoamFile
{
    version     2.0;
    format      ascii;
    arch        "LSB;label=32;scalar=64";
    class       volScalarField;
    location    "0.016";
    object      k;
}
// * * * * * * * * * * * * * * * * * * * * * * * * * * * * * * * * * * * * * //

dimensions      [0 2 -2 0 0 0 0];

internalField   nonuniform List<scalar> 
31639
(
0.0535141
0.0529438
0.0539535
0.0554176
0.0525105
0.0521691
0.0520342
0.0540976
0.0534056
0.0549709
0.0550158
0.0546448
0.0534998
0.0550769
0.0522851
0.0512148
0.0536389
0.0518595
0.0504784
0.0529995
0.0482492
0.0545643
0.0553021
0.0508948
0.0507583
0.053218
0.0531502
0.0465119
0.0519869
0.0552032
0.0548926
0.0515164
0.0551084
0.0506591
0.0491416
0.0552147
0.0470201
0.0557382
0.0551057
0.0464904
0.0493758
0.0485255
0.0547821
0.0546752
0.0551509
0.054923
0.0521994
0.0518018
0.0534418
0.0553021
0.0546701
0.0465037
0.0556599
0.0479524
0.0512327
0.0534273
0.0481962
0.0532769
0.0529854
0.0480778
0.0527118
0.0541268
0.0505934
0.052608
0.0533142
0.0551817
0.0526441
0.0533184
0.0498286
0.0551926
0.0554744
0.0505496
0.0543418
0.0530615
0.0556511
0.0489897
0.055048
0.0520922
0.0526138
0.0545803
0.0504143
0.0464565
0.0552545
0.0538269
0.053758
0.0549457
0.055402
0.0551871
0.0486136
0.0558351
0.0535309
0.0522365
0.0483034
0.0527045
0.0495946
0.052116
0.0523863
0.0531398
0.0534721
0.0484293
0.0556498
0.0548944
0.0524841
0.0476628
0.0481411
0.0550395
0.0476202
0.0471501
0.0501338
0.0480559
0.0536543
0.0486673
0.0526512
0.0512786
0.0532239
0.0477582
0.0521888
0.0520733
0.055282
0.0528259
0.0538584
0.0546373
0.0541312
0.0531852
0.052867
0.0552114
0.0530029
0.0501939
0.0499591
0.0545324
0.0547059
0.054009
0.0542172
0.051498
0.0538331
0.0533631
0.048145
0.0477
0.0544834
0.0531613
0.0529628
0.0548874
0.055027
0.047114
0.0471627
0.0552841
0.0546057
0.0485677
0.0484296
0.0550841
0.0500961
0.0532525
0.0505036
0.0538254
0.0485801
0.0552663
0.0523202
0.0500395
0.0485616
0.0508003
0.0549725
0.0489088
0.0500379
0.0480923
0.0488636
0.0521088
0.0489265
0.0552032
0.0545162
0.0473542
0.0500934
0.051971
0.0491611
0.0535049
0.0555192
0.0547768
0.0535892
0.0553035
0.0536645
0.0531215
0.0526712
0.0513417
0.0516004
0.0468978
0.0534155
0.0554621
0.0513181
0.0552096
0.0488752
0.0476386
0.0556075
0.0542562
0.0531158
0.0527446
0.0529061
0.0512229
0.0515708
0.0544293
0.0475991
0.0515808
0.0548588
0.0556883
0.0530949
0.0532769
0.0530444
0.0530992
0.0522383
0.0523767
0.0546529
0.046919
0.0527747
0.0519103
0.0537549
0.0544609
0.0536315
0.0549277
0.0493171
0.0511847
0.0549227
0.0548623
0.0542429
0.0522098
0.0477146
0.0535426
0.0479315
0.0529833
0.0549063
0.0507463
0.0487129
0.0538417
0.0535013
0.0555693
0.0487815
0.0481756
0.0531164
0.0534863
0.0480085
0.0543943
0.0505083
0.0473515
0.0525255
0.0528816
0.052272
0.0507579
0.0509358
0.0535476
0.0521634
0.0516636
0.047974
0.0529794
0.0513908
0.0493513
0.0509708
0.0552549
0.0550508
0.0516494
0.049152
0.0543072
0.0538473
0.0521837
0.0554337
0.0548437
0.0540962
0.0550976
0.0524218
0.0526144
0.0474236
0.0506043
0.0540664
0.0518476
0.0536219
0.0509687
0.0528455
0.0549416
0.0554134
0.0532356
0.0480141
0.0518514
0.0498673
0.0546955
0.0520273
0.0550358
0.0553852
0.0513431
0.0485636
0.0503726
0.0487891
0.0477934
0.0544445
0.0492321
0.0554301
0.0521166
0.0508315
0.0495142
0.0555797
0.0513277
0.0511307
0.0543926
0.0530484
0.0506848
0.0528622
0.0485807
0.052959
0.0523675
0.0490226
0.0517022
0.0522536
0.0458759
0.0475717
0.0545905
0.0554652
0.0544754
0.0481459
0.0495095
0.0544158
0.0495588
0.049642
0.0552246
0.0551492
0.0520262
0.0548173
0.0554036
0.0488407
0.0558075
0.047458
0.048183
0.0547311
0.0542094
0.0545907
0.0551359
0.0536112
0.0491785
0.0519555
0.0523578
0.0550651
0.0556024
0.0557415
0.052515
0.0511726
0.053797
0.0545517
0.0530931
0.0513113
0.0520423
0.052316
0.0515907
0.0544136
0.0514631
0.0489057
0.0541611
0.0561152
0.0515044
0.055371
0.054345
0.0526756
0.0488236
0.0524776
0.0526848
0.048121
0.0551845
0.0489064
0.0529924
0.0552194
0.0472781
0.0530783
0.0526307
0.0483538
0.0527594
0.0494168
0.051668
0.0553999
0.0538401
0.0474626
0.0533898
0.0489858
0.0534043
0.0547329
0.0550664
0.0553177
0.0491822
0.053685
0.0479511
0.0521838
0.0474466
0.0549508
0.0544759
0.0551498
0.0548453
0.0502582
0.0549164
0.053147
0.0538606
0.0525963
0.0497586
0.0522257
0.0530698
0.0532457
0.0534729
0.0529248
0.0538885
0.0517813
0.0488576
0.0527174
0.0545734
0.0541634
0.0472296
0.0551573
0.0545799
0.0527216
0.053357
0.0538798
0.0526633
0.0546602
0.0485257
0.0533179
0.0548409
0.0475257
0.0530321
0.0538567
0.0494895
0.0476395
0.048379
0.0518901
0.048594
0.0531177
0.0529443
0.0514342
0.0555183
0.0487652
0.05441
0.0551796
0.0528558
0.0533998
0.0517691
0.0550594
0.0530975
0.0530854
0.0551443
0.0530359
0.0481811
0.0529087
0.0554894
0.0550189
0.0537999
0.05556
0.0517046
0.0532884
0.0541011
0.0551049
0.0555066
0.0486971
0.0527979
0.0465
0.0522275
0.0523376
0.0488497
0.0481886
0.0515089
0.0531774
0.0542224
0.0484419
0.0535529
0.0511538
0.052589
0.053893
0.0437498
0.0523187
0.0478659
0.0519302
0.0547163
0.0560278
0.0540556
0.0521134
0.0473484
0.0536383
0.0528134
0.0545355
0.0481134
0.04867
0.0525668
0.0485999
0.0491467
0.0531502
0.048167
0.0513741
0.0486931
0.0536502
0.048292
0.0552925
0.0545992
0.0548397
0.054693
0.0508347
0.0550963
0.0552573
0.0531066
0.054262
0.053364
0.0546921
0.0557305
0.0513107
0.0547068
0.0553932
0.0526375
0.0497609
0.0552894
0.0531183
0.0466159
0.0478621
0.0532426
0.0553482
0.0550965
0.0519208
0.0554184
0.0558731
0.0544703
0.0535504
0.052135
0.0527218
0.0492037
0.0524469
0.0534788
0.0553832
0.0504995
0.0501248
0.0493934
0.0511492
0.0524744
0.0465558
0.0536416
0.0509004
0.0530649
0.0518142
0.0539706
0.0523375
0.0488846
0.0537287
0.0545964
0.0494643
0.0538114
0.0560358
0.0532596
0.0523516
0.0472623
0.0498495
0.0527824
0.0532465
0.0490064
0.0484345
0.0533384
0.0505355
0.0536821
0.050621
0.0521524
0.0549916
0.0528175
0.0479231
0.0512744
0.0532619
0.0549727
0.0482064
0.0463607
0.0547552
0.0480123
0.0536772
0.0554056
0.0482183
0.0530962
0.0553147
0.0528481
0.0484953
0.0552529
0.0528262
0.0484788
0.0549787
0.0536769
0.0519739
0.0546812
0.046825
0.0502353
0.0526755
0.0514506
0.0512587
0.0533753
0.0553759
0.0549244
0.0540989
0.0552082
0.0545945
0.0531046
0.0506984
0.0540278
0.0551487
0.0567646
0.0501429
0.0532905
0.0528746
0.0565688
0.0491669
0.0471321
0.0551995
0.0494694
0.0554452
0.0518466
0.0481394
0.0518607
0.0547999
0.052771
0.0535559
0.0476124
0.0539148
0.052458
0.0476876
0.0550704
0.0545195
0.0460011
0.0491183
0.0496719
0.0521102
0.0531892
0.0531687
0.0527574
0.0530668
0.0544928
0.0531961
0.0528654
0.049327
0.0551181
0.0483389
0.0531199
0.0522355
0.0519564
0.0560539
0.0529786
0.0499188
0.047446
0.0493571
0.0521741
0.0548743
0.0488219
0.0552016
0.0525787
0.0544628
0.048637
0.0519117
0.0544473
0.0553648
0.0547688
0.054083
0.0535489
0.0526773
0.0556941
0.0554826
0.0551889
0.0507413
0.0541829
0.0485165
0.0552878
0.0548578
0.0524873
0.049087
0.0519688
0.0467086
0.0546328
0.0528849
0.055606
0.0529309
0.0517378
0.0484775
0.054903
0.0476323
0.0467794
0.0500229
0.0505185
0.0486022
0.0529749
0.0483626
0.0532597
0.0532013
0.0463381
0.0552976
0.048868
0.0500863
0.0519117
0.0507666
0.0538291
0.0548518
0.0552472
0.0551515
0.0510268
0.0526724
0.0514515
0.0517253
0.0468948
0.040393
0.0550966
0.0526452
0.0537563
0.0548749
0.0483434
0.0550329
0.0555566
0.0543469
0.0543417
0.0543767
0.0536638
0.0551788
0.0553509
0.0531779
0.0549309
0.0543572
0.049297
0.0548817
0.0513901
0.0547135
0.0516436
0.0527358
0.0503329
0.0557558
0.0522803
0.0531975
0.0527098
0.0493717
0.0550245
0.0527513
0.0510856
0.0485568
0.0541234
0.0469907
0.0542982
0.0542125
0.0519138
0.0553439
0.055398
0.0553121
0.0483947
0.0527535
0.0527948
0.0535204
0.0490753
0.0539382
0.0537316
0.0514663
0.0529755
0.0508847
0.0533823
0.0518069
0.0515981
0.0471444
0.0544001
0.0532825
0.0547475
0.0507018
0.0528449
0.0534575
0.0525387
0.0509214
0.0532567
0.0544661
0.0525858
0.047017
0.0474329
0.052148
0.0469069
0.0484131
0.0538483
0.0537386
0.0543212
0.0469328
0.0522552
0.0549531
0.0485463
0.0471636
0.0527798
0.0493005
0.0542721
0.0499677
0.0553481
0.0508473
0.0508913
0.0550573
0.047267
0.0521449
0.0521974
0.0545978
0.0551461
0.0549844
0.0495039
0.0542176
0.0551847
0.0515401
0.0552943
0.054355
0.053769
0.0554528
0.0530249
0.0561953
0.0554527
0.0558721
0.0538502
0.0517935
0.0531369
0.0527648
0.0487191
0.0517005
0.0539988
0.0546378
0.055579
0.0524105
0.0558729
0.0545707
0.0513232
0.054309
0.0549541
0.0541389
0.0540158
0.0485972
0.0510527
0.0555762
0.0470349
0.0523775
0.0524924
0.0518025
0.0521981
0.0548374
0.053292
0.0546191
0.0523794
0.0535633
0.0524444
0.0548607
0.0532864
0.0517223
0.0488393
0.0548374
0.0493676
0.0519428
0.0519893
0.0518381
0.0526175
0.0557414
0.0489902
0.0556899
0.0490918
0.0533613
0.0521227
0.0525822
0.0526247
0.0550371
0.0486423
0.0545131
0.0549061
0.0551457
0.0535729
0.0535098
0.0470212
0.0554646
0.0548858
0.054174
0.0543903
0.0548393
0.0528094
0.0532068
0.0534038
0.0486659
0.0521492
0.055294
0.0477165
0.0502739
0.0565655
0.0549778
0.0504919
0.0510703
0.0539183
0.0505703
0.0522089
0.0490874
0.0544034
0.0553098
0.0469377
0.052772
0.0547866
0.0540554
0.0552179
0.0519488
0.0547168
0.0494181
0.0492184
0.0557019
0.0550699
0.0523466
0.0486136
0.0533962
0.0551532
0.0502961
0.0551922
0.0540885
0.0544088
0.0532939
0.0544168
0.0534993
0.0532358
0.0521609
0.0506569
0.0474921
0.0527392
0.0533262
0.0486855
0.0548019
0.0474636
0.0519243
0.0515393
0.0488585
0.052528
0.0508849
0.0537762
0.0528416
0.0543661
0.048693
0.0490477
0.0516376
0.0483462
0.051669
0.0548146
0.0523256
0.055188
0.0526844
0.0529699
0.0553622
0.0516046
0.0527887
0.0526241
0.0526532
0.053317
0.0500345
0.0533541
0.0545548
0.0549561
0.0559287
0.0488221
0.0476791
0.0526604
0.0549599
0.0492151
0.0520688
0.0537037
0.0529474
0.0562255
0.0515924
0.052088
0.0540233
0.0482449
0.0549627
0.0552211
0.0489725
0.0505465
0.0526174
0.0513006
0.0554678
0.055293
0.0534485
0.0495628
0.0549979
0.0481196
0.0525369
0.0548929
0.0513003
0.0559405
0.0479079
0.0528417
0.0535182
0.0529529
0.0483158
0.0476279
0.0545038
0.0552913
0.0513275
0.0548576
0.0540293
0.0524889
0.0488584
0.050027
0.0539328
0.052192
0.0529238
0.055467
0.0548648
0.0561042
0.0549708
0.0528918
0.0531886
0.054286
0.0491502
0.0545128
0.054068
0.0533965
0.0538987
0.055599
0.0521672
0.0548864
0.0526512
0.0471968
0.055531
0.0512794
0.055436
0.0514349
0.0546196
0.0493404
0.0539228
0.0564356
0.0529258
0.0532751
0.04867
0.0545122
0.055569
0.0535828
0.048187
0.0571174
0.0522415
0.0535239
0.0550083
0.0548404
0.054449
0.05258
0.0524187
0.0560202
0.0492786
0.049881
0.049409
0.0502459
0.0537781
0.047907
0.0554412
0.0549042
0.055617
0.0523757
0.051831
0.0532673
0.0553546
0.0532914
0.0532188
0.0552797
0.0553933
0.0528375
0.0546383
0.0528559
0.0525042
0.0537822
0.0514348
0.0555658
0.0557931
0.0551204
0.0552906
0.0549587
0.0507966
0.0563086
0.0529882
0.0533668
0.0523422
0.0537323
0.0558405
0.0531643
0.0544139
0.0509735
0.0529223
0.0535643
0.049868
0.0489931
0.0526419
0.0523897
0.0557886
0.0513354
0.0474837
0.0530941
0.0547447
0.0506025
0.0513465
0.0531384
0.0554855
0.0553282
0.0518826
0.050916
0.0530094
0.0543684
0.0515876
0.0531071
0.0531651
0.0484032
0.051999
0.0516122
0.053858
0.0551992
0.0532636
0.0553305
0.053996
0.0532337
0.053584
0.0483635
0.0491959
0.0483986
0.0552873
0.0534638
0.0557007
0.0571749
0.0542201
0.0480991
0.0543808
0.0518695
0.0537672
0.0535495
0.0541719
0.0479951
0.0556115
0.0488762
0.0529966
0.0528625
0.0525112
0.0560286
0.0529799
0.054423
0.0485965
0.0528809
0.0530856
0.0546395
0.0501907
0.0503183
0.0539322
0.0546723
0.0532462
0.0538146
0.0556245
0.0485851
0.0524014
0.0517099
0.0505089
0.0541931
0.05558
0.0555897
0.0548653
0.0554931
0.0494389
0.0492706
0.049026
0.0561851
0.0489568
0.053975
0.0527077
0.0490395
0.0515202
0.0547993
0.0552114
0.0506576
0.0516146
0.0522087
0.0532703
0.0554584
0.0532287
0.0487433
0.0531184
0.0556994
0.0552046
0.0558611
0.0552027
0.0568983
0.0553895
0.0543082
0.0500297
0.0486237
0.0534496
0.0501995
0.0555317
0.0492846
0.0537495
0.0518004
0.0548957
0.0497537
0.0539164
0.0547658
0.0540667
0.0518379
0.0491756
0.0550338
0.0517041
0.055672
0.0527409
0.0568304
0.0554955
0.0533965
0.0486201
0.0490595
0.052509
0.0532372
0.0513904
0.0562457
0.0495968
0.0549262
0.0537923
0.0518662
0.0539175
0.0550465
0.0552646
0.0552657
0.0559752
0.0537841
0.0530894
0.0481714
0.0507579
0.0549335
0.0497476
0.0534214
0.0525436
0.0491742
0.0528701
0.0533468
0.0525967
0.054222
0.054946
0.0495579
0.0525718
0.0533408
0.0487979
0.0509582
0.0521731
0.0519345
0.0538964
0.0494297
0.0491058
0.0527831
0.0514078
0.0550592
0.0557572
0.0546718
0.0521222
0.0522039
0.0530331
0.0516196
0.0555426
0.0493059
0.0529259
0.051855
0.0553077
0.0542889
0.0525774
0.0531912
0.0550484
0.0494529
0.0533589
0.0553906
0.0521489
0.0451965
0.0519335
0.0491418
0.0531255
0.0479689
0.0559411
0.0557107
0.0552736
0.0538219
0.049773
0.0482301
0.0548112
0.0559416
0.0554795
0.0532426
0.0531694
0.0542737
0.0560045
0.054847
0.0482107
0.0528789
0.0533324
0.0540197
0.051858
0.0543463
0.0474732
0.0553297
0.0548277
0.0528725
0.0534842
0.0537191
0.0531141
0.0553417
0.0542544
0.0496633
0.0528192
0.0544392
0.0525293
0.0528836
0.0536848
0.0482375
0.0489367
0.0550529
0.0556538
0.0548277
0.0553007
0.0541358
0.0543733
0.0529511
0.0533538
0.0538361
0.0550469
0.0514644
0.0524165
0.0515116
0.0532785
0.0551301
0.0476388
0.0528471
0.0475346
0.0549041
0.047721
0.0487476
0.0526228
0.0465638
0.0528474
0.0540246
0.0548178
0.0547546
0.0506154
0.0513297
0.0562375
0.051083
0.0498517
0.0526291
0.0505165
0.0551011
0.0541432
0.0529851
0.0494683
0.0549177
0.0558647
0.0549836
0.0488324
0.0501016
0.0528973
0.0552753
0.0559952
0.048792
0.0485676
0.0544812
0.0532411
0.0556392
0.0527067
0.0474436
0.0536542
0.0549168
0.0486617
0.0476763
0.0550679
0.0494756
0.0492267
0.0552925
0.0554502
0.0540459
0.0564665
0.0524044
0.0521172
0.0552775
0.050988
0.0547252
0.0510935
0.0537446
0.0544645
0.0522481
0.0486347
0.0543429
0.0546023
0.0513823
0.0527043
0.0521661
0.0501679
0.0493363
0.0529176
0.0541833
0.0554932
0.0511851
0.0544584
0.0483269
0.0542513
0.0555916
0.0484673
0.0551412
0.0534018
0.0457822
0.0484411
0.0534269
0.0528343
0.0545939
0.051351
0.0492995
0.0547191
0.0557015
0.0552689
0.053229
0.0550378
0.0481832
0.0552811
0.0530572
0.0485641
0.0487139
0.0459764
0.048348
0.0544864
0.0518385
0.0538518
0.0532734
0.0494259
0.0498635
0.0471718
0.0472015
0.0565756
0.0560179
0.0497005
0.055402
0.0544404
0.0496049
0.0524112
0.0528086
0.0502176
0.0511974
0.0548515
0.0503903
0.0479192
0.0550214
0.056297
0.0508693
0.0551707
0.0528477
0.0501176
0.0491641
0.0525718
0.0486523
0.0488122
0.0534968
0.0539392
0.0519785
0.055223
0.0549319
0.0527278
0.0556762
0.0411777
0.052537
0.0481382
0.0531632
0.0555095
0.0524802
0.0509881
0.0527209
0.048659
0.0540129
0.0527208
0.0507312
0.0490911
0.0469009
0.0467715
0.0512445
0.0483143
0.0523211
0.0484429
0.0518815
0.0545751
0.053704
0.0522227
0.0536748
0.0537737
0.0529434
0.0544268
0.0480186
0.0521785
0.0553813
0.055208
0.0523125
0.0561487
0.0496517
0.0549506
0.0525365
0.0481751
0.0542816
0.0555124
0.0534174
0.0544418
0.0554408
0.0535232
0.046864
0.0468524
0.0523705
0.0556599
0.053257
0.0543762
0.0514131
0.0517381
0.049662
0.0478689
0.0476615
0.0482104
0.0537241
0.0536242
0.0554993
0.0516189
0.0517021
0.0557688
0.0481827
0.0532443
0.055301
0.0554843
0.0513465
0.0518191
0.05481
0.0560768
0.0552215
0.0467811
0.0528611
0.0546762
0.0535781
0.0533993
0.0566564
0.054764
0.0554686
0.053476
0.0506494
0.0530187
0.0555062
0.0541855
0.0532092
0.0483559
0.0548467
0.0549153
0.055669
0.054605
0.0478314
0.0467349
0.0525041
0.0540046
0.0529161
0.053399
0.054384
0.0543746
0.0544844
0.0510552
0.0537407
0.0531976
0.0548488
0.0491048
0.0489554
0.0515638
0.05526
0.0489699
0.0550922
0.0486668
0.051701
0.0531723
0.0555151
0.0517747
0.0546658
0.0552093
0.0548417
0.0531836
0.0544305
0.0534682
0.0515064
0.0470965
0.0553953
0.0468282
0.0484868
0.0465874
0.0473332
0.0478962
0.0514338
0.0534196
0.0486979
0.0512393
0.0459907
0.0497147
0.0523281
0.0551394
0.0474315
0.0490009
0.0544702
0.0475078
0.0515138
0.0546746
0.0534776
0.0530434
0.0492696
0.0483578
0.0511026
0.0553387
0.0507503
0.0490098
0.0530876
0.0513823
0.053779
0.0526367
0.0495419
0.0555177
0.0476982
0.0488122
0.0525518
0.0553808
0.0513178
0.0522413
0.0526827
0.0532432
0.0471359
0.0498283
0.0522619
0.0554561
0.0540631
0.0484807
0.0470627
0.0523246
0.0553177
0.0525573
0.0528635
0.0513207
0.0516296
0.0526982
0.0482418
0.0552532
0.0508519
0.0483526
0.0470314
0.0545654
0.052767
0.0554807
0.0527327
0.0547786
0.0481383
0.0523868
0.0471381
0.0471052
0.0550242
0.0494474
0.0522207
0.0531931
0.0535734
0.0486605
0.0553161
0.0546459
0.055349
0.053492
0.0457083
0.0533623
0.0468415
0.0558102
0.0490608
0.0555104
0.0464531
0.053755
0.0545528
0.05154
0.0518407
0.0465692
0.0507117
0.0528529
0.0547156
0.0536761
0.0551315
0.0555945
0.0482202
0.0554016
0.0487618
0.0537109
0.0537895
0.0548855
0.0545357
0.0529148
0.0555371
0.0517978
0.0502509
0.05025
0.0536596
0.0556815
0.0496638
0.0501189
0.0549131
0.0537534
0.0529394
0.0566867
0.0540038
0.0533476
0.0546549
0.0544267
0.0554995
0.0521259
0.051576
0.0550672
0.0544515
0.048134
0.0523098
0.0506807
0.0556432
0.0534978
0.05461
0.0489842
0.0488344
0.0532158
0.0545396
0.0549802
0.0554462
0.0553229
0.0527149
0.0533751
0.0490484
0.0531322
0.0533738
0.0549206
0.055551
0.0553772
0.0523561
0.0552029
0.0498441
0.0549663
0.0505453
0.0524206
0.0512602
0.0532614
0.0517014
0.0546948
0.0485922
0.0550849
0.0552086
0.0522498
0.0487257
0.0564414
0.0534992
0.0549593
0.0529811
0.0533214
0.0541448
0.0481287
0.0552475
0.0524244
0.0536371
0.0499105
0.0501494
0.0505531
0.0480833
0.0507264
0.0554511
0.0532877
0.0472375
0.0542186
0.0481531
0.052983
0.0534963
0.0469318
0.0477916
0.0507271
0.0525358
0.0542586
0.0511326
0.0542293
0.0520559
0.0480659
0.0508802
0.0550659
0.0551447
0.055281
0.0542621
0.0538745
0.0487683
0.0481061
0.0552814
0.051725
0.0531425
0.0550086
0.0563121
0.0532834
0.0534886
0.0472193
0.0544314
0.0552854
0.051178
0.0550915
0.0547996
0.0538784
0.051599
0.0540996
0.0515639
0.047459
0.0531562
0.0491038
0.0483319
0.0529019
0.053249
0.0550749
0.0551111
0.053621
0.0549467
0.0470434
0.0511831
0.0560442
0.0558504
0.0482642
0.0530346
0.0491055
0.0514521
0.0549904
0.0515635
0.0533207
0.0558294
0.0533742
0.0473157
0.0548485
0.0481054
0.0546692
0.0539745
0.0536547
0.0548781
0.053662
0.0548484
0.0485272
0.0551831
0.0552076
0.0494302
0.0540497
0.052688
0.0520794
0.0549381
0.0523857
0.0545326
0.0556591
0.0551492
0.0532985
0.0554422
0.0530439
0.0534229
0.0502393
0.0512843
0.0484348
0.0470868
0.052844
0.0540687
0.0528597
0.0553713
0.0521651
0.0552103
0.0473881
0.0556541
0.0556447
0.0541994
0.0548296
0.0497573
0.0475934
0.0528696
0.048154
0.0543729
0.0533365
0.0471229
0.0514909
0.055456
0.054807
0.0472065
0.0501795
0.0470392
0.0558752
0.0482114
0.0547839
0.0506844
0.0489159
0.0549823
0.055259
0.0554308
0.0542953
0.048267
0.0532407
0.0558984
0.0493351
0.0550959
0.0542573
0.0553383
0.0475689
0.0540723
0.0515356
0.0538776
0.0518442
0.0523158
0.0511491
0.0516443
0.0521588
0.0515826
0.0541531
0.0525976
0.055463
0.050117
0.0526689
0.0535678
0.0546792
0.0554816
0.0489227
0.0542025
0.0485007
0.0519163
0.0553454
0.0557019
0.0527729
0.0527042
0.0543583
0.0509972
0.0523753
0.0522928
0.0485097
0.0479985
0.0537606
0.0550942
0.0521115
0.0515113
0.0551902
0.0485936
0.0537625
0.0488298
0.0533071
0.0554412
0.0533057
0.0479355
0.0550883
0.0484059
0.0541092
0.0548802
0.0476831
0.0556665
0.0494824
0.0511033
0.0520138
0.0475209
0.0503989
0.0515744
0.0466311
0.0550109
0.0559542
0.0468212
0.050791
0.0543641
0.0538209
0.0536493
0.0561297
0.0550528
0.0524616
0.0501246
0.0480269
0.0467603
0.0464492
0.05543
0.0545484
0.0532284
0.0537191
0.0480342
0.048342
0.0523228
0.0549536
0.0464488
0.0535528
0.0527942
0.0523787
0.0539755
0.0514171
0.0548405
0.0504975
0.0521315
0.056181
0.0459532
0.0528167
0.0551156
0.0550278
0.0532156
0.0548303
0.0538158
0.0479451
0.0559851
0.0564886
0.0526601
0.0534135
0.0512996
0.0527513
0.0543174
0.0544448
0.053379
0.0528955
0.0519358
0.047659
0.0516755
0.0556469
0.0543522
0.0558286
0.0537681
0.0529614
0.0558482
0.0491294
0.0549395
0.048217
0.055726
0.0537254
0.0511747
0.0561128
0.0509486
0.052058
0.0558743
0.0514981
0.0559392
0.0547639
0.0542801
0.0487128
0.0532192
0.0526302
0.050585
0.0547903
0.0518925
0.0523427
0.055976
0.0485846
0.0549696
0.0532993
0.0551284
0.0515081
0.0535642
0.0487074
0.0499211
0.0564889
0.0486209
0.0531573
0.0549725
0.0486373
0.0522803
0.0551051
0.050669
0.0492587
0.0501906
0.0517909
0.0510305
0.0551852
0.0518683
0.055493
0.0539585
0.0552675
0.0477461
0.0503902
0.0553987
0.0526535
0.048464
0.0494303
0.0522643
0.0456505
0.0477279
0.0527343
0.0524022
0.0551734
0.0517778
0.0548703
0.0552409
0.0550834
0.0545844
0.0545344
0.0507026
0.0511966
0.0542607
0.0524086
0.0514739
0.0552396
0.0526704
0.0477589
0.0477331
0.0516931
0.0462785
0.053887
0.0548149
0.0510787
0.0541341
0.0547574
0.0546446
0.0560733
0.0521983
0.0490211
0.0516423
0.0518191
0.0549943
0.051125
0.0538459
0.0555563
0.0516161
0.051333
0.0536242
0.055441
0.0545094
0.0571222
0.0551408
0.0526054
0.0532136
0.0497764
0.0518715
0.0553003
0.0499969
0.0552006
0.0515141
0.0546446
0.0480054
0.0545186
0.0529894
0.0550214
0.0525587
0.0531946
0.052907
0.0545436
0.047496
0.0498394
0.0526584
0.0512141
0.052399
0.0534725
0.0531691
0.0554423
0.0535048
0.0482365
0.0508225
0.0484852
0.0526902
0.0532565
0.0491471
0.0565439
0.0529422
0.0519329
0.0540928
0.0499216
0.0492508
0.0553351
0.0489241
0.0472925
0.0481394
0.0487034
0.0488191
0.0503325
0.05524
0.0547105
0.0514941
0.05379
0.0547049
0.0528489
0.0540696
0.0474957
0.0551267
0.0408557
0.0547913
0.0483005
0.047999
0.0546966
0.04775
0.0521598
0.0536116
0.054944
0.0510784
0.0531378
0.0510969
0.0526123
0.0511839
0.0533844
0.0525291
0.0543568
0.0528341
0.0487118
0.054215
0.052144
0.0522018
0.0488608
0.0494488
0.0503591
0.0476022
0.0477439
0.0529709
0.0519436
0.0494042
0.0514541
0.0551431
0.0549937
0.0551965
0.0413349
0.0482293
0.0554641
0.0486132
0.0546533
0.0475215
0.0551129
0.0547131
0.0553658
0.0484186
0.0523933
0.0556437
0.0555074
0.0534208
0.0554477
0.052748
0.0532054
0.0524799
0.0479706
0.0532447
0.0510282
0.053098
0.0530968
0.050161
0.0523121
0.0548486
0.050398
0.0498279
0.0484307
0.0538796
0.0540066
0.0475044
0.0530279
0.052846
0.0538937
0.0490146
0.0535113
0.0520639
0.0558347
0.0449997
0.0524375
0.052698
0.0476669
0.0548001
0.0494454
0.0495608
0.0533676
0.0553477
0.0469862
0.0546698
0.0538661
0.0503197
0.0476201
0.0553509
0.0551348
0.0474959
0.052928
0.0470544
0.049672
0.0552597
0.0517277
0.0538584
0.0551103
0.0553094
0.0516474
0.0509285
0.0524379
0.0524815
0.0526261
0.0508321
0.054347
0.0480908
0.0514026
0.0523033
0.0520782
0.0539949
0.0521333
0.053954
0.0541581
0.0528597
0.0551903
0.0535595
0.0517268
0.0505406
0.0539217
0.051698
0.051095
0.0537814
0.0552547
0.0536721
0.0544811
0.0508779
0.0541507
0.0505201
0.0486895
0.0525974
0.0537389
0.0489104
0.0535452
0.0520659
0.0463756
0.0473546
0.0546064
0.0462236
0.0524393
0.0547881
0.0532742
0.0487785
0.0537397
0.0562781
0.0483697
0.0485266
0.0492485
0.0548102
0.0529157
0.052837
0.0556356
0.0479244
0.0542465
0.0527718
0.0554182
0.0558753
0.0412949
0.0528277
0.0543579
0.0548996
0.053008
0.0519207
0.046206
0.054092
0.0551463
0.0502693
0.0476774
0.0517383
0.0545379
0.0535169
0.0480952
0.0524243
0.0542626
0.0549374
0.0523185
0.0524081
0.047286
0.0484518
0.048358
0.0532391
0.0521192
0.0528517
0.0553511
0.0550133
0.046659
0.0547351
0.0549839
0.0538555
0.0510997
0.0547224
0.0516157
0.0487021
0.0507
0.0529736
0.0521039
0.0495657
0.0532503
0.0519715
0.0546021
0.0491856
0.0474319
0.0518763
0.0552624
0.0544678
0.0513577
0.0518382
0.0548902
0.0551976
0.0517322
0.0509349
0.0544468
0.0550995
0.05386
0.0553509
0.0544891
0.0534254
0.0475578
0.051428
0.0483162
0.0539846
0.0547949
0.051082
0.0483418
0.0557327
0.0484963
0.0514228
0.0495654
0.0523205
0.0473778
0.0537096
0.0528285
0.0526689
0.0525031
0.0496876
0.0552879
0.049006
0.0537803
0.052293
0.0526018
0.0480684
0.054497
0.0537746
0.0480377
0.0501342
0.0522481
0.0519433
0.0536025
0.0439001
0.0538576
0.0513412
0.0528947
0.0504331
0.0508951
0.0507705
0.0444168
0.0550089
0.051722
0.0345083
0.0482412
0.0529996
0.0549715
0.0541021
0.0493578
0.0460513
0.0542442
0.0481303
0.0543915
0.0552312
0.0530022
0.0494185
0.0545792
0.0476403
0.0476521
0.0472909
0.0539476
0.0525319
0.0512885
0.0552133
0.0535752
0.0535157
0.0496978
0.046269
0.0554998
0.0530296
0.0558209
0.0546109
0.0486559
0.0525622
0.0531106
0.0506099
0.0528574
0.0508377
0.0519676
0.0573868
0.0534479
0.051461
0.0483144
0.0533298
0.0524353
0.0539646
0.0515685
0.0477153
0.0490759
0.0530976
0.0538613
0.0508093
0.054592
0.0503811
0.0536842
0.0510546
0.0517184
0.0449531
0.0553195
0.0538365
0.0528604
0.0556211
0.0524816
0.0497353
0.0492991
0.0451313
0.0540103
0.0499153
0.0528882
0.0522109
0.0547512
0.0527226
0.0548835
0.0518373
0.0356853
0.0487601
0.0548841
0.0380572
0.0521392
0.05553
0.0541156
0.0552265
0.0500339
0.0491681
0.0497727
0.0556277
0.0444191
0.055665
0.0485798
0.0461368
0.054407
0.0491535
0.0548591
0.0356552
0.046992
0.0534741
0.0548651
0.0553277
0.0530992
0.0547293
0.0535536
0.0534377
0.0542545
0.053871
0.0521967
0.0522201
0.0448958
0.0546831
0.0521779
0.0516123
0.0554663
0.0552411
0.0545678
0.0490613
0.0550614
0.0537658
0.0509979
0.0495465
0.0475085
0.0541506
0.055077
0.0545467
0.0550503
0.0540671
0.0531305
0.0475662
0.0541101
0.0520491
0.0520936
0.0530446
0.0479275
0.0462362
0.0516064
0.0564551
0.0536881
0.0535125
0.0490008
0.0514351
0.0511752
0.0486124
0.0550557
0.0525731
0.040599
0.0436758
0.0472696
0.0489361
0.0547939
0.0536362
0.053987
0.0504144
0.0471582
0.0542412
0.054945
0.0466724
0.0558235
0.0489193
0.0553457
0.051775
0.0545387
0.0549304
0.052936
0.0540122
0.052596
0.0506759
0.0491653
0.0506516
0.0540535
0.0523885
0.0491884
0.0520511
0.0534835
0.0478078
0.0521433
0.0494196
0.0549721
0.0518326
0.052769
0.042601
0.0549704
0.0554318
0.0520851
0.0540055
0.0515154
0.0524078
0.0551257
0.0528293
0.0533983
0.0555678
0.0530083
0.0485699
0.0481218
0.0563705
0.0501201
0.0483763
0.0487341
0.054592
0.0554677
0.0540439
0.055301
0.0563461
0.0552923
0.0536684
0.0521911
0.0502853
0.0541286
0.0469735
0.0525345
0.0537775
0.0512642
0.0505548
0.0493895
0.0532819
0.0556594
0.0476979
0.0521676
0.0537283
0.0481153
0.0549947
0.0457751
0.0473449
0.0488287
0.0559008
0.0488858
0.0480341
0.0494214
0.0491931
0.0532278
0.0454559
0.0464649
0.0521289
0.050591
0.0465503
0.0525479
0.0487753
0.0498748
0.0536549
0.0499049
0.0479446
0.0542723
0.0515063
0.0508637
0.0481661
0.0522329
0.0510493
0.0459597
0.0552232
0.0529798
0.05429
0.0518304
0.0488154
0.0480058
0.052606
0.051726
0.0552719
0.0524416
0.0546966
0.0499591
0.0527334
0.0544966
0.0549684
0.0447286
0.0465265
0.0489188
0.054656
0.0486129
0.0526629
0.04135
0.0501747
0.0533766
0.0512774
0.0533165
0.0493362
0.0523069
0.0523861
0.0546375
0.0487758
0.0527789
0.0562231
0.048803
0.0530307
0.0502491
0.0539786
0.0492906
0.0482518
0.0532573
0.0482239
0.0442665
0.045977
0.048917
0.050368
0.045452
0.0551383
0.0510682
0.0470452
0.0525955
0.0546758
0.0530762
0.0463808
0.0557875
0.0539598
0.0479839
0.0519271
0.0522735
0.0496846
0.0524845
0.0527031
0.0532314
0.0477545
0.0469278
0.0525152
0.0488532
0.0457764
0.0464979
0.0480183
0.0534561
0.0483106
0.054255
0.0521611
0.0535434
0.0496423
0.0549726
0.0501051
0.0525393
0.0497202
0.0355227
0.0554083
0.0462718
0.0525937
0.0545459
0.0550625
0.0444772
0.0547232
0.0552723
0.0484117
0.0526433
0.0516979
0.0495894
0.0446252
0.0527865
0.0503856
0.053734
0.0556338
0.0519929
0.0553501
0.0505496
0.0507961
0.0481188
0.0450601
0.0463287
0.0548672
0.0457934
0.0540628
0.0503592
0.0464447
0.0505212
0.0548513
0.0459104
0.0385283
0.0498449
0.0537086
0.0549917
0.0532625
0.0355266
0.0500223
0.0548731
0.0535332
0.0557102
0.0522708
0.0462366
0.0551444
0.0462375
0.0540716
0.050436
0.0510119
0.0513843
0.054501
0.048242
0.0499903
0.0454135
0.0506582
0.054292
0.0537808
0.0531405
0.0479715
0.0482348
0.0516742
0.0483556
0.052697
0.046866
0.0486469
0.0532712
0.0549428
0.0478059
0.0546668
0.0497297
0.0561864
0.0469239
0.0551543
0.052687
0.0533206
0.0522946
0.0499501
0.0493614
0.0564645
0.052048
0.0525398
0.052918
0.048572
0.0536678
0.0553848
0.0483051
0.0495554
0.0503612
0.0472153
0.0507823
0.0538439
0.0435494
0.0553337
0.0447185
0.0518037
0.0536375
0.0461952
0.0515892
0.0528893
0.0488849
0.0519771
0.0501843
0.0519118
0.0464353
0.0535406
0.0466975
0.0517258
0.0396909
0.0532332
0.0464275
0.0481551
0.0528225
0.0479982
0.049869
0.05563
0.0530635
0.0528059
0.0548703
0.0456574
0.0534631
0.048703
0.0527387
0.0518796
0.0519775
0.0542957
0.0530839
0.0471696
0.0470686
0.0546569
0.0530615
0.0534474
0.0451259
0.0550378
0.0565199
0.0541088
0.0534692
0.0498688
0.0484616
0.0521872
0.0477467
0.0487842
0.0539868
0.0523271
0.0505098
0.0522957
0.0519827
0.0525129
0.0469811
0.0489156
0.0480274
0.0445707
0.0555728
0.0526458
0.0497886
0.0546328
0.0528993
0.0495714
0.0547282
0.045582
0.0486902
0.0462988
0.0477077
0.0554288
0.0538386
0.0425655
0.0548199
0.0460398
0.0526073
0.0526465
0.0527846
0.054941
0.0518968
0.0533423
0.0509075
0.0515592
0.0512894
0.0543939
0.0462006
0.047603
0.0513808
0.044768
0.050115
0.0455943
0.0490256
0.0550262
0.0513831
0.0420624
0.0428094
0.0474874
0.0477305
0.0505818
0.0495349
0.0517987
0.0533045
0.0441717
0.0521324
0.0502901
0.0505574
0.0463205
0.0519046
0.0455675
0.0416713
0.0486417
0.0484262
0.0482291
0.0492003
0.0502546
0.0512159
0.0477341
0.0549693
0.0471781
0.0526351
0.0494414
0.0523403
0.0503392
0.0471782
0.052808
0.0522834
0.0447668
0.0496701
0.0514643