/*--------------------------------*- C++ -*----------------------------------*\
| =========                 |                                                 |
| \\      /  F ield         | OpenFOAM: The Open Source CFD Toolbox           |
|  \\    /   O peration     | Version:  2212                                  |
|   \\  /    A nd           | Website:  www.openfoam.com                      |
|    \\/     M anipulation  |                                                 |
\*---------------------------------------------------------------------------*/
FoamFile
{
    version     2.0;
    format      ascii;
    arch        "LSB;label=32;scalar=64";
    class       volScalarField;
    location    "0.016";
    object      nut;
}
// * * * * * * * * * * * * * * * * * * * * * * * * * * * * * * * * * * * * * //

dimensions      [0 2 -1 0 0 0 0];

internalField   nonuniform List<scalar> 
31639
(
7.94779e-05
7.72517e-05
7.92267e-05
8.33415e-05
7.7007e-05
7.5685e-05
7.53115e-05
8.03763e-05
7.93041e-05
8.20171e-05
8.19498e-05
8.12665e-05
7.85225e-05
8.28792e-05
7.59352e-05
7.37864e-05
7.96845e-05
7.56815e-05
7.30089e-05
7.75145e-05
6.63313e-05
8.1563e-05
8.308e-05
7.35905e-05
7.29901e-05
7.88114e-05
7.78522e-05
6.82058e-05
7.5639e-05
8.28946e-05
8.19223e-05
7.48172e-05
8.25626e-05
7.30167e-05
6.86191e-05
8.26802e-05
6.41224e-05
8.39292e-05
8.23598e-05
6.23937e-05
6.94763e-05
6.76334e-05
8.1682e-05
8.18491e-05
8.26975e-05
8.20121e-05
7.55986e-05
7.56887e-05
7.93927e-05
8.31098e-05
8.14625e-05
6.33125e-05
8.36563e-05
6.55546e-05
7.45524e-05
7.9094e-05
6.66929e-05
7.79914e-05
7.73534e-05
6.64902e-05
7.77672e-05
8.06652e-05
7.20695e-05
7.66771e-05
7.89905e-05
8.28922e-05
7.79857e-05
7.80487e-05
7.00982e-05
8.28673e-05
8.33937e-05
7.26008e-05
8.07235e-05
7.75473e-05
8.36355e-05
6.79842e-05
8.22742e-05
7.627e-05
7.66332e-05
8.15967e-05
7.24574e-05
6.21893e-05
8.27026e-05
7.91625e-05
7.95896e-05
8.19806e-05
8.32657e-05
8.2556e-05
6.83215e-05
8.40388e-05
7.85939e-05
7.67825e-05
6.7306e-05
7.6815e-05
7.09057e-05
7.55963e-05
7.70691e-05
7.77684e-05
7.84493e-05
6.70722e-05
8.3958e-05
8.16155e-05
7.64719e-05
6.55421e-05
6.69166e-05
8.22039e-05
6.54318e-05
6.44144e-05
7.15951e-05
6.57251e-05
7.97751e-05
6.7724e-05
7.65334e-05
7.42531e-05
7.8036e-05
6.55238e-05
7.56674e-05
7.55671e-05
8.279e-05
7.69852e-05
8.01937e-05
8.12475e-05
8.03572e-05
7.89196e-05
7.76751e-05
8.29286e-05
7.74254e-05
7.19655e-05
7.13641e-05
8.11915e-05
8.16656e-05
8.03759e-05
8.087e-05
7.4703e-05
8.02043e-05
7.82265e-05
6.68723e-05
6.54759e-05
8.09801e-05
7.77423e-05
7.73967e-05
8.21098e-05
8.21418e-05
6.45224e-05
6.39268e-05
8.32092e-05
8.17813e-05
6.73952e-05
6.72817e-05
8.22451e-05
7.11491e-05
7.77062e-05
7.30231e-05
8.02781e-05
6.77262e-05
8.31167e-05
7.69049e-05
7.07181e-05
6.8412e-05
7.34515e-05
8.209e-05
6.81102e-05
7.07079e-05
6.64074e-05
6.79669e-05
7.58258e-05
6.79526e-05
8.2777e-05
8.10734e-05
6.55388e-05
7.16863e-05
7.53345e-05
6.89114e-05
7.85402e-05
8.35853e-05
8.19775e-05
7.86656e-05
8.30752e-05
7.89153e-05
7.78785e-05
7.67733e-05
7.51577e-05
7.47901e-05
6.33754e-05
7.90521e-05
8.33673e-05
7.4611e-05
8.27638e-05
6.79757e-05
6.55732e-05
8.38078e-05
8.0959e-05
7.88575e-05
7.69084e-05
7.73611e-05
7.44664e-05
7.48555e-05
8.09191e-05
6.59202e-05
7.50914e-05
8.22895e-05
8.35931e-05
7.87995e-05
7.91273e-05
7.81313e-05
7.75786e-05
7.58675e-05
7.61882e-05
8.12991e-05
6.3567e-05
7.68873e-05
7.55667e-05
7.90159e-05
8.14006e-05
7.95729e-05
8.22923e-05
6.93406e-05
7.3623e-05
8.155e-05
8.22676e-05
8.05398e-05
7.58762e-05
6.56623e-05
7.79381e-05
6.61305e-05
7.76191e-05
8.16601e-05
7.28443e-05
6.77759e-05
8.0235e-05
7.9265e-05
8.37651e-05
6.84924e-05
6.64769e-05
7.90851e-05
7.97269e-05
6.70679e-05
8.14241e-05
7.17042e-05
6.51373e-05
7.644e-05
7.85176e-05
7.64164e-05
7.30908e-05
7.21852e-05
7.95437e-05
7.57865e-05
7.48498e-05
6.69623e-05
7.728e-05
7.44457e-05
6.87884e-05
7.34214e-05
8.30471e-05
8.26109e-05
7.49272e-05
6.87213e-05
8.06917e-05
7.97472e-05
7.5924e-05
8.33003e-05
8.1901e-05
8.05229e-05
8.2364e-05
7.62164e-05
7.71696e-05
6.52248e-05
7.29388e-05
8.09346e-05
7.52356e-05
8.00206e-05
7.39255e-05
7.76992e-05
8.2284e-05
8.32117e-05
7.78668e-05
6.648e-05
7.56164e-05
7.07271e-05
8.16148e-05
7.6049e-05
8.20587e-05
8.33296e-05
7.42269e-05
6.76984e-05
7.08858e-05
6.83361e-05
6.56822e-05
8.11631e-05
6.9283e-05
8.30967e-05
7.58579e-05
7.35263e-05
6.9749e-05
8.36391e-05
7.43998e-05
7.27546e-05
8.14335e-05
7.75675e-05
7.11754e-05
7.69785e-05
6.81406e-05
7.73922e-05
7.62029e-05
6.85241e-05
7.55526e-05
7.60216e-05
6.18672e-05
6.4948e-05
8.12659e-05
8.31375e-05
8.11198e-05
6.65012e-05
6.90776e-05
8.08483e-05
7.0095e-05
7.0926e-05
8.28339e-05
8.25426e-05
7.54133e-05
8.19707e-05
8.32414e-05
6.82939e-05
8.42555e-05
6.47242e-05
6.61253e-05
8.15819e-05
8.05519e-05
8.13875e-05
8.27766e-05
7.9746e-05
6.91625e-05
7.57808e-05
7.62133e-05
8.2057e-05
8.33274e-05
8.38149e-05
7.63148e-05
7.41368e-05
7.90625e-05
8.112e-05
7.89589e-05
7.40178e-05
7.66305e-05
7.59969e-05
7.54781e-05
8.13044e-05
7.47398e-05
6.82393e-05
8.04691e-05
8.47177e-05
7.49068e-05
8.31114e-05
8.14875e-05
7.68553e-05
6.83013e-05
7.64279e-05
7.67616e-05
6.64704e-05
8.25462e-05
6.84578e-05
7.80765e-05
8.24659e-05
6.46421e-05
7.74817e-05
7.6609e-05
6.69855e-05
7.7887e-05
6.94966e-05
7.5806e-05
8.32709e-05
8.00235e-05
6.48671e-05
7.90841e-05
6.85616e-05
7.91869e-05
8.16362e-05
8.24694e-05
8.22513e-05
6.88185e-05
7.96536e-05
6.61661e-05
7.57118e-05
6.4998e-05
8.24715e-05
8.11724e-05
8.24336e-05
8.17664e-05
7.2113e-05
8.23317e-05
7.753e-05
7.91057e-05
7.65727e-05
6.97384e-05
7.67911e-05
7.89526e-05
7.8629e-05
7.96265e-05
7.83571e-05
8.01345e-05
7.58872e-05
6.76944e-05
7.72289e-05
8.15807e-05
8.04167e-05
6.44255e-05
8.23419e-05
8.12546e-05
7.67251e-05
7.90097e-05
7.98629e-05
7.73761e-05
8.2029e-05
6.73189e-05
7.90405e-05
8.20852e-05
6.48957e-05
7.82322e-05
7.92716e-05
6.95887e-05
6.60889e-05
6.7076e-05
7.50333e-05
6.70412e-05
7.74488e-05
7.74943e-05
7.41229e-05
8.32997e-05
6.78703e-05
8.10535e-05
8.27964e-05
7.71416e-05
7.94951e-05
7.54186e-05
8.20538e-05
7.74184e-05
7.75948e-05
8.29662e-05
7.74859e-05
6.68409e-05
7.73115e-05
8.34375e-05
8.20858e-05
7.99423e-05
8.35683e-05
7.49306e-05
7.90258e-05
8.02878e-05
8.27973e-05
8.33666e-05
6.80603e-05
7.6755e-05
6.28321e-05
7.60236e-05
7.6056e-05
6.81313e-05
6.5878e-05
7.49124e-05
7.92189e-05
8.09597e-05
6.73009e-05
7.94882e-05
7.36574e-05
7.66475e-05
8.02242e-05
6.22455e-05
7.60434e-05
6.56508e-05
7.52441e-05
8.16129e-05
8.45847e-05
8.02448e-05
7.636e-05
6.5064e-05
7.97699e-05
7.72759e-05
8.11715e-05
6.63192e-05
6.76476e-05
7.65544e-05
6.75174e-05
6.87442e-05
7.8982e-05
6.6441e-05
7.45509e-05
6.78046e-05
7.97147e-05
6.7263e-05
8.30074e-05
8.13208e-05
8.17937e-05
8.1991e-05
7.15921e-05
8.21819e-05
8.26844e-05
7.85317e-05
8.08689e-05
7.81403e-05
8.15227e-05
8.38345e-05
7.41798e-05
8.19975e-05
8.34012e-05
7.68474e-05
7.12966e-05
8.32224e-05
7.76921e-05
6.32818e-05
6.53493e-05
7.77983e-05
8.23833e-05
8.27432e-05
7.53788e-05
8.33291e-05
8.40883e-05
8.09086e-05
7.84384e-05
7.60239e-05
7.80894e-05
6.91761e-05
7.62567e-05
7.91389e-05
8.31755e-05
7.13217e-05
7.10577e-05
6.98121e-05
7.36506e-05
7.64636e-05
6.33744e-05
7.98982e-05
7.34026e-05
7.88607e-05
7.59796e-05
8.04089e-05
7.67443e-05
6.79904e-05
7.90311e-05
8.18801e-05
6.98839e-05
8.03536e-05
8.4427e-05
7.80546e-05
7.60741e-05
6.93811e-05
7.05253e-05
7.70356e-05
7.79603e-05
6.83602e-05
6.76345e-05
7.80718e-05
7.28659e-05
7.97889e-05
7.20578e-05
7.6205e-05
8.20767e-05
7.71431e-05
6.64523e-05
7.29038e-05
7.78806e-05
8.23967e-05
6.66449e-05
6.29146e-05
8.16565e-05
6.63966e-05
7.88862e-05
8.34995e-05
6.66292e-05
7.7732e-05
8.28013e-05
7.74877e-05
6.65299e-05
8.24623e-05
7.71185e-05
6.72621e-05
8.20326e-05
7.87167e-05
7.53285e-05
8.18782e-05
6.39191e-05
7.2551e-05
7.65885e-05
7.49719e-05
7.24102e-05
7.81728e-05
8.27695e-05
8.25183e-05
8.07354e-05
8.29645e-05
8.14452e-05
7.91049e-05
7.2728e-05
8.00778e-05
8.27525e-05
8.5948e-05
7.09438e-05
7.80378e-05
7.80657e-05
8.53547e-05
6.84905e-05
6.43373e-05
8.28354e-05
7.06444e-05
8.34664e-05
7.50312e-05
6.71513e-05
7.6215e-05
8.18406e-05
7.68306e-05
7.95705e-05
6.60387e-05
8.06185e-05
7.75846e-05
6.52771e-05
8.26697e-05
8.09889e-05
6.70364e-05
6.87745e-05
6.91561e-05
7.60102e-05
7.78236e-05
7.77452e-05
7.67954e-05
7.76531e-05
8.11478e-05
7.79203e-05
7.72071e-05
6.89739e-05
8.28622e-05
6.6367e-05
7.75831e-05
7.62834e-05
7.53493e-05
8.45686e-05
7.74182e-05
7.08201e-05
6.53749e-05
6.85231e-05
7.6249e-05
8.22883e-05
6.88229e-05
8.29783e-05
7.6451e-05
8.10745e-05
6.75017e-05
7.52012e-05
8.08222e-05
8.32726e-05
8.17091e-05
8.05137e-05
7.84944e-05
7.67009e-05
8.36246e-05
8.3278e-05
8.24554e-05
7.18351e-05
8.11633e-05
6.79001e-05
8.27934e-05
8.18729e-05
7.63522e-05
6.88345e-05
7.5161e-05
6.35154e-05
8.17192e-05
7.7464e-05
8.36136e-05
7.72783e-05
7.4757e-05
6.79688e-05
8.24138e-05
6.59765e-05
6.2851e-05
7.01865e-05
7.11848e-05
6.83231e-05
7.72146e-05
6.68084e-05
7.9107e-05
7.88896e-05
6.25087e-05
8.31457e-05
6.78837e-05
7.22715e-05
7.53481e-05
7.36722e-05
8.01921e-05
8.22877e-05
8.3243e-05
8.27894e-05
7.43455e-05
7.70557e-05
7.46951e-05
7.53391e-05
6.41348e-05
5.49791e-05
8.25409e-05
7.66121e-05
8.01468e-05
8.17554e-05
6.71553e-05
8.22297e-05
8.36765e-05
8.06987e-05
8.09775e-05
8.08499e-05
7.89005e-05
8.26156e-05
8.32475e-05
7.77328e-05
8.19037e-05
8.12058e-05
6.92185e-05
8.19205e-05
7.46112e-05
8.16982e-05
7.4882e-05
7.69685e-05
7.23934e-05
8.39686e-05
7.56346e-05
7.78179e-05
7.69088e-05
6.85553e-05
8.26511e-05
7.78764e-05
7.39491e-05
6.72948e-05
8.0354e-05
6.4682e-05
8.127e-05
8.04936e-05
7.52491e-05
8.30075e-05
8.33615e-05
8.2914e-05
6.70452e-05
7.69106e-05
7.68896e-05
7.79151e-05
6.87921e-05
8.00793e-05
8.04612e-05
7.42688e-05
7.73272e-05
7.33156e-05
7.93283e-05
7.5183e-05
7.56205e-05
6.45291e-05
8.1024e-05
7.88539e-05
8.22867e-05
7.217e-05
7.7267e-05
7.86368e-05
7.65821e-05
7.32577e-05
7.7969e-05
8.10948e-05
7.6399e-05
6.45551e-05
6.48884e-05
7.58491e-05
6.4198e-05
6.83087e-05
7.90199e-05
7.88598e-05
8.10142e-05
6.43965e-05
7.61441e-05
8.25057e-05
6.80691e-05
6.51606e-05
7.779e-05
6.93752e-05
8.02779e-05
7.03793e-05
8.31695e-05
7.29579e-05
7.36213e-05
8.26331e-05
6.49713e-05
7.56741e-05
7.56995e-05
8.13513e-05
8.2398e-05
8.23973e-05
6.95224e-05
8.05951e-05
8.26306e-05
7.47559e-05
8.3025e-05
8.07402e-05
7.99912e-05
8.31727e-05
7.76266e-05
8.47548e-05
8.33032e-05
8.41388e-05
7.97513e-05
7.51663e-05
7.77238e-05
7.70688e-05
6.78451e-05
7.52672e-05
7.94518e-05
8.16004e-05
8.34361e-05
7.58556e-05
8.41875e-05
8.10098e-05
7.41593e-05
8.08776e-05
8.20588e-05
8.05651e-05
8.03522e-05
6.78839e-05
7.4391e-05
8.33322e-05
6.40809e-05
7.63659e-05
7.6393e-05
7.56261e-05
7.60141e-05
8.23835e-05
7.95012e-05
8.15183e-05
7.72187e-05
7.957e-05
7.74835e-05
8.18128e-05
7.81348e-05
7.53267e-05
6.80797e-05
8.19721e-05
6.8902e-05
7.51671e-05
7.61829e-05
7.49529e-05
7.76882e-05
8.37227e-05
6.80362e-05
8.3818e-05
6.84331e-05
7.81774e-05
7.56389e-05
7.65612e-05
7.67802e-05
8.266e-05
6.76779e-05
8.10805e-05
8.18441e-05
8.26676e-05
7.83447e-05
7.92928e-05
6.38677e-05
8.33854e-05
8.17893e-05
8.09013e-05
8.09016e-05
8.18525e-05
7.70514e-05
7.77196e-05
7.8225e-05
6.86423e-05
7.6387e-05
8.30009e-05
6.57866e-05
7.09273e-05
8.54001e-05
8.19453e-05
7.25995e-05
7.42584e-05
7.86822e-05
7.30093e-05
7.59052e-05
6.94598e-05
8.08175e-05
8.30564e-05
6.39133e-05
7.78195e-05
8.20753e-05
8.04594e-05
8.26415e-05
7.53392e-05
8.16044e-05
6.94175e-05
6.88482e-05
8.36814e-05
8.2107e-05
7.64504e-05
6.82522e-05
7.96884e-05
8.22603e-05
7.13342e-05
8.24446e-05
8.10567e-05
8.13943e-05
7.90614e-05
8.16454e-05
7.82408e-05
7.82809e-05
7.60041e-05
7.34006e-05
6.55662e-05
7.79227e-05
7.80894e-05
6.85554e-05
8.20723e-05
6.50523e-05
7.51844e-05
7.56127e-05
6.83338e-05
7.63601e-05
7.38041e-05
8.02933e-05
7.79051e-05
8.11429e-05
6.73952e-05
6.83563e-05
7.51769e-05
6.73837e-05
7.4726e-05
8.19525e-05
7.60195e-05
8.24614e-05
7.71393e-05
7.73617e-05
8.25332e-05
7.4848e-05
7.73851e-05
7.67541e-05
7.6618e-05
7.91151e-05
7.04123e-05
7.80684e-05
8.10499e-05
8.2482e-05
8.43291e-05
6.73094e-05
6.62955e-05
7.67159e-05
8.23728e-05
6.94072e-05
7.55888e-05
7.89455e-05
7.72954e-05
8.4825e-05
7.5655e-05
7.56431e-05
8.03624e-05
6.6945e-05
8.21756e-05
8.26469e-05
6.86148e-05
7.27546e-05
7.65846e-05
7.42721e-05
8.33143e-05
8.25963e-05
7.90137e-05
6.96487e-05
8.20204e-05
6.71203e-05
7.59805e-05
8.17823e-05
7.35839e-05
8.4295e-05
6.60378e-05
7.7102e-05
7.91378e-05
7.75058e-05
6.64469e-05
6.59252e-05
8.18101e-05
8.27856e-05
7.47602e-05
8.23889e-05
7.94441e-05
7.65132e-05
6.79664e-05
7.03437e-05
7.90218e-05
7.66744e-05
7.71747e-05
8.33843e-05
8.19746e-05
8.45591e-05
8.25205e-05
7.82416e-05
7.86455e-05
8.08178e-05
6.80879e-05
8.12373e-05
8.01369e-05
7.82687e-05
7.90645e-05
8.30958e-05
7.60222e-05
8.24435e-05
7.65658e-05
6.42288e-05
8.36208e-05
7.38122e-05
8.32355e-05
7.48729e-05
8.1486e-05
6.89362e-05
8.00764e-05
8.5251e-05
7.71197e-05
7.79596e-05
6.74043e-05
8.12456e-05
8.36608e-05
7.91576e-05
6.72158e-05
8.65294e-05
7.69754e-05
7.9274e-05
8.26294e-05
8.16546e-05
8.10539e-05
7.64589e-05
7.65892e-05
8.45027e-05
6.8676e-05
6.97711e-05
6.92465e-05
7.15385e-05
7.90752e-05
6.58214e-05
8.33481e-05
8.20337e-05
8.3587e-05
7.6001e-05
7.61681e-05
7.80157e-05
8.30762e-05
7.78652e-05
7.79945e-05
8.27686e-05
8.29478e-05
7.72511e-05
8.15116e-05
7.72295e-05
7.63014e-05
8.04195e-05
7.46444e-05
8.36792e-05
8.38649e-05
8.29569e-05
8.31284e-05
8.26373e-05
7.31882e-05
8.50057e-05
7.78298e-05
7.89581e-05
7.60092e-05
7.90449e-05
8.4253e-05
7.77137e-05
8.10945e-05
7.42259e-05
7.73005e-05
7.97917e-05
7.03709e-05
6.76851e-05
7.65899e-05
7.60972e-05
8.37584e-05
7.42313e-05
6.57107e-05
7.86499e-05
8.14434e-05
7.14194e-05
7.44211e-05
7.78574e-05
8.3436e-05
8.32488e-05
7.52788e-05
7.22908e-05
7.74387e-05
8.07219e-05
7.49709e-05
7.8723e-05
7.77992e-05
6.67361e-05
7.53066e-05
7.45223e-05
8.01137e-05
8.25383e-05
7.78616e-05
8.29527e-05
8.04108e-05
7.80472e-05
7.89833e-05
6.82406e-05
6.99926e-05
6.62546e-05
8.26447e-05
7.83315e-05
8.34422e-05
8.64967e-05
8.07117e-05
6.66825e-05
8.05914e-05
7.53591e-05
7.98997e-05
7.94873e-05
8.05687e-05
6.64415e-05
8.37689e-05
6.83735e-05
7.76013e-05
7.82774e-05
7.65654e-05
8.43484e-05
7.6855e-05
8.04626e-05
6.84337e-05
7.69756e-05
7.789e-05
8.12076e-05
7.26175e-05
7.0377e-05
8.01544e-05
8.20324e-05
7.90149e-05
7.97913e-05
8.35691e-05
6.77962e-05
7.64938e-05
7.55791e-05
7.17071e-05
8.1092e-05
8.34267e-05
8.35164e-05
8.21855e-05
8.36161e-05
6.95334e-05
6.86417e-05
6.87645e-05
8.45822e-05
6.74025e-05
8.02273e-05
7.82197e-05
6.87413e-05
7.48725e-05
8.16302e-05
8.22666e-05
7.26957e-05
7.46097e-05
7.57085e-05
7.80697e-05
8.32088e-05
7.87978e-05
6.85405e-05
7.76899e-05
8.38119e-05
8.27649e-05
8.38627e-05
8.28576e-05
8.61121e-05
8.32965e-05
8.10729e-05
6.99857e-05
6.74876e-05
7.81308e-05
7.24374e-05
8.32988e-05
6.80093e-05
7.89639e-05
7.59322e-05
8.25377e-05
6.96672e-05
7.98984e-05
8.16468e-05
7.92921e-05
7.51356e-05
6.83885e-05
8.1708e-05
7.44329e-05
8.37537e-05
7.75577e-05
8.63261e-05
8.34022e-05
7.82695e-05
6.70549e-05
6.8491e-05
7.65087e-05
7.84221e-05
7.42051e-05
8.4711e-05
6.91968e-05
8.25422e-05
8.02164e-05
7.5277e-05
7.99448e-05
8.21415e-05
8.26811e-05
8.29378e-05
8.41839e-05
7.89778e-05
7.90475e-05
6.66128e-05
7.36999e-05
8.2344e-05
6.95331e-05
7.92709e-05
7.62798e-05
6.88141e-05
7.72881e-05
7.98163e-05
7.66775e-05
8.05524e-05
8.18881e-05
6.89901e-05
7.65032e-05
7.81066e-05
6.76493e-05
7.39865e-05
7.58211e-05
7.51003e-05
8.01871e-05
6.94924e-05
6.90734e-05
7.68775e-05
7.46182e-05
8.23267e-05
8.40056e-05
8.20308e-05
7.57442e-05
7.58258e-05
7.79007e-05
7.45354e-05
8.32687e-05
6.89914e-05
7.73793e-05
7.5795e-05
8.31264e-05
8.05038e-05
7.66153e-05
7.75046e-05
8.21323e-05
6.9089e-05
7.81264e-05
8.31195e-05
7.52405e-05
5.99973e-05
7.65467e-05
6.7488e-05
7.87546e-05
6.56697e-05
8.42362e-05
8.34815e-05
8.28596e-05
7.91634e-05
7.00942e-05
6.69166e-05
8.16463e-05
8.39735e-05
8.31621e-05
7.77545e-05
7.78846e-05
8.06446e-05
8.41829e-05
8.23847e-05
6.67371e-05
7.70125e-05
7.82684e-05
7.99912e-05
7.54332e-05
8.08778e-05
6.56998e-05
8.31991e-05
8.1851e-05
7.84348e-05
7.84746e-05
7.99731e-05
7.76696e-05
8.32148e-05
8.00329e-05
6.9764e-05
7.71909e-05
8.04087e-05
7.64735e-05
7.82848e-05
7.94721e-05
6.62532e-05
6.95828e-05
8.21986e-05
8.37271e-05
8.17618e-05
8.30634e-05
8.09851e-05
8.14577e-05
7.8794e-05
7.8163e-05
7.97796e-05
8.2318e-05
7.46913e-05
7.6666e-05
7.4455e-05
7.7992e-05
8.22846e-05
6.53329e-05
7.81432e-05
6.58753e-05
8.18845e-05
6.61677e-05
6.78475e-05
7.67321e-05
6.38476e-05
7.68727e-05
7.94611e-05
8.18767e-05
8.17369e-05
7.29913e-05
7.38306e-05
8.48484e-05
7.20179e-05
6.92063e-05
7.63864e-05
7.28087e-05
8.26235e-05
7.97025e-05
7.8329e-05
6.9056e-05
8.18803e-05
8.38228e-05
8.26193e-05
6.79779e-05
7.0902e-05
7.71229e-05
8.27787e-05
8.43453e-05
6.8614e-05
6.71397e-05
8.09384e-05
7.79465e-05
8.37292e-05
7.69571e-05
6.51699e-05
7.97204e-05
8.19249e-05
6.78492e-05
6.55129e-05
8.24252e-05
7.01e-05
6.93788e-05
8.30429e-05
8.3518e-05
8.02397e-05
8.53975e-05
7.6404e-05
7.54478e-05
8.25098e-05
7.35378e-05
8.2154e-05
7.41068e-05
7.98189e-05
8.16979e-05
7.6064e-05
6.80331e-05
8.10437e-05
8.18059e-05
7.49505e-05
7.69314e-05
7.69692e-05
7.1448e-05
7.23404e-05
7.82335e-05
8.02748e-05
8.32914e-05
7.42892e-05
8.11237e-05
6.69015e-05
8.05794e-05
8.37893e-05
6.65663e-05
8.24249e-05
7.82743e-05
6.16996e-05
6.7639e-05
7.82791e-05
7.70709e-05
8.12261e-05
7.45945e-05
6.90327e-05
8.20521e-05
8.38782e-05
8.30501e-05
7.88919e-05
8.2665e-05
6.67687e-05
8.2698e-05
7.7511e-05
6.73033e-05
6.81993e-05
6.18313e-05
6.81836e-05
8.11473e-05
7.53367e-05
7.92348e-05
7.78984e-05
7.08917e-05
7.18693e-05
6.45335e-05
6.47499e-05
8.55888e-05
8.4299e-05
6.94316e-05
8.2808e-05
8.11468e-05
6.92302e-05
7.62989e-05
7.76299e-05
7.08231e-05
7.41011e-05
8.24572e-05
7.05343e-05
6.53496e-05
8.26562e-05
8.48264e-05
7.31866e-05
8.2588e-05
7.67903e-05
7.07614e-05
6.90953e-05
7.69607e-05
6.76243e-05
6.7619e-05
7.84285e-05
8.01065e-05
7.61645e-05
8.27248e-05
8.2357e-05
7.67635e-05
8.36665e-05
5.66824e-05
7.67391e-05
6.66852e-05
7.79137e-05
8.34476e-05
7.64837e-05
7.36681e-05
7.69622e-05
6.82603e-05
7.98157e-05
7.69131e-05
7.35415e-05
6.80414e-05
6.43189e-05
6.35922e-05
7.4399e-05
6.74076e-05
7.67007e-05
6.76916e-05
7.55984e-05
8.19693e-05
7.96015e-05
7.61341e-05
7.88177e-05
7.99215e-05
7.72615e-05
8.11122e-05
6.63771e-05
7.70243e-05
8.34154e-05
8.29517e-05
7.60335e-05
8.47843e-05
7.04477e-05
8.22087e-05
7.64285e-05
6.66004e-05
8.06016e-05
8.34625e-05
7.94702e-05
8.10479e-05
8.33568e-05
7.9239e-05
6.39703e-05
6.43709e-05
7.61044e-05
8.38005e-05
7.88791e-05
8.11801e-05
7.42474e-05
7.51576e-05
7.07715e-05
6.57909e-05
6.55883e-05
6.64189e-05
8.02812e-05
7.88198e-05
8.33853e-05
7.47186e-05
7.50969e-05
8.39203e-05
6.57737e-05
7.78517e-05
8.30934e-05
8.34483e-05
7.41693e-05
7.47184e-05
8.1604e-05
8.4354e-05
8.29917e-05
6.78833e-05
7.74289e-05
8.10197e-05
7.92859e-05
7.82025e-05
8.58656e-05
8.2097e-05
8.31539e-05
7.83238e-05
7.28254e-05
7.75516e-05
8.30881e-05
8.10066e-05
7.78074e-05
6.69212e-05
8.21885e-05
8.18274e-05
8.33929e-05
8.13031e-05
6.63251e-05
6.33359e-05
7.64224e-05
8.04077e-05
7.71114e-05
7.84992e-05
8.10102e-05
8.10181e-05
8.15924e-05
7.40993e-05
8.01085e-05
7.77069e-05
8.15823e-05
6.76793e-05
6.70848e-05
7.44548e-05
8.24198e-05
6.83832e-05
8.23231e-05
6.7809e-05
7.55769e-05
7.77761e-05
8.33951e-05
7.5547e-05
8.15966e-05
8.24149e-05
8.21101e-05
7.86171e-05
8.10315e-05
7.84475e-05
7.46503e-05
6.45066e-05
8.33042e-05
6.29836e-05
6.63434e-05
6.65857e-05
6.53203e-05
6.57765e-05
7.48418e-05
7.82387e-05
6.84726e-05
7.43003e-05
6.19511e-05
6.98291e-05
7.60219e-05
8.24152e-05
6.52839e-05
6.79514e-05
8.11636e-05
6.53185e-05
7.5484e-05
8.15825e-05
7.89457e-05
7.76173e-05
6.85494e-05
6.67602e-05
7.4413e-05
8.31503e-05
7.16921e-05
6.8425e-05
7.84347e-05
7.4509e-05
7.90171e-05
7.67447e-05
6.88613e-05
8.33999e-05
6.53162e-05
6.70855e-05
7.6423e-05
8.29283e-05
7.41953e-05
7.61715e-05
7.68284e-05
7.79452e-05
6.44e-05
6.98716e-05
7.57228e-05
8.3521e-05
8.00218e-05
6.65529e-05
6.38193e-05
7.67895e-05
8.32956e-05
7.66373e-05
7.70633e-05
7.4293e-05
7.4829e-05
7.69269e-05
6.72551e-05
8.2846e-05
7.33487e-05
6.74366e-05
6.35593e-05
8.13629e-05
7.71912e-05
8.36694e-05
7.82403e-05
8.16002e-05
6.67722e-05
7.64054e-05
6.44771e-05
6.33834e-05
8.20028e-05
6.91024e-05
7.59478e-05
7.77624e-05
8.0362e-05
6.80032e-05
8.3173e-05
8.15984e-05
8.32765e-05
7.92623e-05
6.00516e-05
7.80055e-05
6.4586e-05
8.40748e-05
6.84662e-05
8.34817e-05
6.29693e-05
7.90229e-05
8.12707e-05
7.45204e-05
7.54415e-05
6.31617e-05
7.28651e-05
7.73144e-05
8.21538e-05
7.96934e-05
8.24843e-05
8.36561e-05
6.64589e-05
8.31832e-05
7.16338e-05
7.8936e-05
7.88848e-05
8.1867e-05
8.13211e-05
7.75717e-05
8.37546e-05
7.53992e-05
7.23831e-05
7.25605e-05
7.87753e-05
8.36318e-05
7.15073e-05
7.07698e-05
8.24064e-05
8.01102e-05
7.7256e-05
8.58409e-05
7.9559e-05
7.88402e-05
8.1648e-05
8.17815e-05
8.34241e-05
7.62611e-05
7.45124e-05
8.2162e-05
8.11725e-05
6.91475e-05
7.6225e-05
7.27652e-05
8.37829e-05
7.85057e-05
8.15001e-05
6.81766e-05
6.85878e-05
7.78407e-05
8.12494e-05
8.24649e-05
8.35065e-05
8.27626e-05
7.80367e-05
7.93254e-05
6.86832e-05
7.76288e-05
7.81536e-05
8.21478e-05
8.35939e-05
8.31067e-05
7.61974e-05
8.30185e-05
6.96217e-05
8.25748e-05
7.27701e-05
7.63071e-05
7.47246e-05
7.78568e-05
7.48819e-05
8.14921e-05
6.76067e-05
8.22663e-05
8.27133e-05
7.63186e-05
6.82618e-05
8.48737e-05
7.97392e-05
8.25779e-05
7.73308e-05
7.81435e-05
8.06866e-05
6.67636e-05
8.30161e-05
7.64493e-05
7.85869e-05
7.18065e-05
7.20392e-05
7.18791e-05
6.681e-05
7.34671e-05
8.34961e-05
7.8057e-05
6.51964e-05
8.04254e-05
6.64647e-05
7.83757e-05
7.84935e-05
6.42708e-05
6.62036e-05
7.30603e-05
7.7684e-05
8.0853e-05
7.43142e-05
8.12484e-05
7.61066e-05
6.98873e-05
7.33626e-05
8.27688e-05
8.29407e-05
8.25883e-05
8.07671e-05
7.9283e-05
6.76824e-05
6.7179e-05
8.30924e-05
7.50811e-05
7.79305e-05
8.23823e-05
8.49556e-05
7.78522e-05
7.91411e-05
6.45312e-05
8.12145e-05
8.25987e-05
7.41323e-05
8.29531e-05
8.23498e-05
7.92873e-05
7.47574e-05
8.05327e-05
7.4714e-05
6.54389e-05
7.78533e-05
6.81856e-05
6.67914e-05
7.789e-05
7.77402e-05
8.21757e-05
8.24591e-05
7.85996e-05
8.21308e-05
6.37492e-05
7.43259e-05
8.43064e-05
8.41171e-05
6.6465e-05
7.76308e-05
6.94743e-05
7.46031e-05
8.25381e-05
7.48296e-05
7.92043e-05
8.41789e-05
7.93327e-05
6.47601e-05
8.22198e-05
6.65695e-05
8.19607e-05
8.03464e-05
7.91811e-05
8.2079e-05
7.87971e-05
8.22459e-05
6.77077e-05
8.30493e-05
8.29254e-05
6.9363e-05
7.96986e-05
7.69345e-05
7.6002e-05
8.17859e-05
7.68131e-05
8.12438e-05
8.35628e-05
8.29142e-05
7.784e-05
8.3257e-05
7.74527e-05
7.95433e-05
7.06028e-05
7.41059e-05
6.68631e-05
6.51158e-05
7.8249e-05
7.97421e-05
7.70992e-05
8.30428e-05
7.59514e-05
8.30228e-05
6.52634e-05
8.3733e-05
8.37464e-05
8.00358e-05
8.23465e-05
6.98297e-05
6.52257e-05
7.71375e-05
6.61235e-05
8.11185e-05
7.80185e-05
6.42629e-05
7.52493e-05
8.32393e-05
8.17711e-05
6.54459e-05
7.18675e-05
6.41794e-05
8.39854e-05
6.6839e-05
8.14818e-05
7.28469e-05
6.7659e-05
8.24514e-05
8.32753e-05
8.31013e-05
8.07739e-05
6.76779e-05
7.91544e-05
8.41788e-05
6.94637e-05
8.23161e-05
8.09553e-05
8.303e-05
6.55803e-05
8.05806e-05
7.48135e-05
8.01361e-05
7.50288e-05
7.61294e-05
7.42528e-05
7.48825e-05
7.55611e-05
7.52877e-05
8.06169e-05
7.67405e-05
8.33769e-05
7.0519e-05
7.66713e-05
7.85453e-05
8.12824e-05
8.35629e-05
6.67728e-05
8.07981e-05
6.78232e-05
7.55167e-05
8.3273e-05
8.37991e-05
7.69425e-05
7.80354e-05
8.11184e-05
7.42856e-05
7.65841e-05
7.64556e-05
6.73309e-05
6.65289e-05
7.90676e-05
8.22075e-05
7.73621e-05
7.47415e-05
8.23476e-05
6.80354e-05
7.90339e-05
6.78533e-05
7.91115e-05
8.32956e-05
7.77381e-05
6.60512e-05
8.21634e-05
6.71712e-05
7.96315e-05
8.23062e-05
6.56967e-05
8.37246e-05
6.97273e-05
7.40456e-05
7.59378e-05
6.58012e-05
7.23695e-05
7.46662e-05
6.32063e-05
8.26587e-05
8.45101e-05
6.3085e-05
7.33942e-05
8.0872e-05
7.97339e-05
7.88444e-05
8.43783e-05
8.25863e-05
7.64943e-05
7.22855e-05
6.61337e-05
6.38134e-05
6.78279e-05
8.3526e-05
8.16127e-05
7.93363e-05
7.94861e-05
6.67296e-05
6.74583e-05
7.62305e-05
8.25656e-05
6.35818e-05
7.90657e-05
7.71992e-05
7.62351e-05
8.03367e-05
7.43623e-05
8.18206e-05
7.17057e-05
7.66831e-05
8.49134e-05
6.15409e-05
7.7806e-05
8.28967e-05
8.2114e-05
7.93279e-05
8.16518e-05
7.91596e-05
6.6213e-05
8.43446e-05
8.51942e-05
7.68848e-05
7.83925e-05
7.43115e-05
7.71714e-05
8.04163e-05
8.07979e-05
7.82464e-05
7.70819e-05
7.55548e-05
6.57307e-05
7.52247e-05
8.36955e-05
8.11549e-05
8.42324e-05
7.8862e-05
7.73775e-05
8.40622e-05
6.83231e-05
8.18161e-05
6.70194e-05
8.38219e-05
8.00672e-05
7.42873e-05
8.46059e-05
7.38663e-05
7.61458e-05
8.41006e-05
7.49188e-05
8.43012e-05
8.22606e-05
8.11957e-05
6.74094e-05
7.78098e-05
7.67303e-05
7.19231e-05
8.17528e-05
7.53488e-05
7.61283e-05
8.44284e-05
6.73673e-05
8.25014e-05
7.79164e-05
8.28065e-05
7.52796e-05
7.86473e-05
6.77243e-05
7.00336e-05
8.5286e-05
6.75136e-05
7.76616e-05
8.19059e-05
6.76518e-05
7.63305e-05
8.22856e-05
7.3254e-05
6.89003e-05
7.21554e-05
7.51492e-05
7.43969e-05
8.257e-05
7.59529e-05
8.36589e-05
8.02674e-05
8.24732e-05
6.54112e-05
7.24387e-05
8.33588e-05
7.6805e-05
6.70736e-05
6.96639e-05
7.71566e-05
6.67056e-05
6.64878e-05
7.70778e-05
7.61106e-05
8.28689e-05
7.51919e-05
8.17949e-05
8.28739e-05
8.20837e-05
8.14166e-05
8.11364e-05
7.3738e-05
7.35084e-05
8.08242e-05
7.63685e-05
7.44973e-05
8.31602e-05
7.67561e-05
6.61249e-05
6.57293e-05
7.55101e-05
6.62534e-05
8.0211e-05
8.17312e-05
7.34981e-05
8.11145e-05
8.15087e-05
8.14901e-05
8.46347e-05
7.70344e-05
6.79028e-05
7.4504e-05
7.51527e-05
8.20925e-05
7.38165e-05
8.01263e-05
8.35889e-05
7.53845e-05
7.44345e-05
7.86248e-05
8.27347e-05
8.04685e-05
8.65601e-05
8.23811e-05
7.65268e-05
7.77591e-05
6.97231e-05
7.52934e-05
8.27563e-05
7.03355e-05
8.29391e-05
7.44317e-05
8.1525e-05
6.71118e-05
8.0816e-05
7.76654e-05
8.21943e-05
7.69354e-05
7.88614e-05
7.72862e-05
8.14518e-05
6.56093e-05
6.9611e-05
7.70997e-05
7.37972e-05
7.76218e-05
7.81303e-05
7.78202e-05
8.32975e-05
7.92844e-05
6.64138e-05
7.33126e-05
6.73404e-05
7.78899e-05
7.77959e-05
6.86745e-05
8.52077e-05
7.72721e-05
7.56948e-05
8.05885e-05
7.1782e-05
6.89772e-05
8.32335e-05
6.83371e-05
6.57177e-05
7.09185e-05
7.16384e-05
6.96645e-05
7.23233e-05
8.27085e-05
8.1617e-05
7.43202e-05
7.89971e-05
8.14196e-05
7.74472e-05
8.08751e-05
6.54726e-05
8.2459e-05
5.69696e-05
8.16991e-05
6.7453e-05
6.681e-05
8.22572e-05
6.58353e-05
7.58766e-05
7.93312e-05
8.20218e-05
7.42766e-05
7.8365e-05
7.37374e-05
7.66472e-05
7.44681e-05
7.93613e-05
7.76882e-05
8.12627e-05
7.70368e-05
6.79446e-05
8.06858e-05
7.58221e-05
7.60786e-05
7.24915e-05
6.96465e-05
7.20736e-05
6.5177e-05
6.60181e-05
7.74635e-05
7.58536e-05
6.97898e-05
7.44519e-05
8.26462e-05
8.25921e-05
8.26913e-05
5.70758e-05
6.63382e-05
8.32681e-05
6.73077e-05
8.16915e-05
6.58056e-05
8.22746e-05
8.21415e-05
8.26571e-05
6.77287e-05
7.61661e-05
8.36896e-05
8.34474e-05
7.89948e-05
8.33206e-05
7.69136e-05
7.87709e-05
7.64888e-05
6.67499e-05
7.90027e-05
7.3605e-05
7.79469e-05
7.77455e-05
7.19544e-05
7.58823e-05
8.23865e-05
7.27512e-05
7.19628e-05
6.73052e-05
8.01072e-05
8.03432e-05
6.45987e-05
7.74151e-05
7.70949e-05
7.9952e-05
6.8226e-05
7.8338e-05
7.61878e-05
8.35887e-05
6.45845e-05
7.67038e-05
7.67477e-05
6.4734e-05
8.16393e-05
6.81007e-05
6.96229e-05
7.92743e-05
8.29416e-05
6.43202e-05
8.18285e-05
7.93714e-05
7.46743e-05
6.53151e-05
8.31116e-05
8.27475e-05
6.44013e-05
7.72523e-05
6.38491e-05
6.84682e-05
8.27235e-05
7.50611e-05
7.93416e-05
8.27902e-05
8.28182e-05
7.49249e-05
7.36469e-05
7.6667e-05
7.62274e-05
7.78667e-05
7.37269e-05
8.14857e-05
6.67529e-05
7.46368e-05
7.65339e-05
7.56033e-05
8.00198e-05
7.58246e-05
7.94427e-05
8.0523e-05
7.70514e-05
8.31906e-05
7.96817e-05
7.53361e-05
7.30218e-05
8.02058e-05
7.491e-05
7.37701e-05
7.98078e-05
8.30623e-05
7.98193e-05
8.1876e-05
7.37879e-05
8.04756e-05
7.30377e-05
6.78726e-05
7.69513e-05
7.94818e-05
6.83243e-05
7.95564e-05
7.62727e-05
6.29283e-05
6.57961e-05
8.13988e-05
6.43577e-05
7.63404e-05
8.2016e-05
7.90051e-05
6.7905e-05
7.98245e-05
8.44761e-05
6.75719e-05
6.75824e-05
6.83002e-05
8.20797e-05
7.72232e-05
7.70777e-05
8.36467e-05
6.6284e-05
7.99355e-05
7.7094e-05
8.32345e-05
8.4246e-05
5.84945e-05
7.71839e-05
8.09691e-05
8.22817e-05
7.85387e-05
7.53265e-05
6.71416e-05
7.9679e-05
8.29764e-05
7.2452e-05
6.53638e-05
7.52435e-05
8.15675e-05
7.93119e-05
6.69899e-05
7.61681e-05
8.06467e-05
8.21094e-05
7.6141e-05
7.58239e-05
6.45176e-05
6.77485e-05
6.71972e-05
7.79676e-05
7.54691e-05
7.82376e-05
8.32335e-05
8.24724e-05
6.73431e-05
8.1595e-05
8.23034e-05
7.913e-05
7.4044e-05
8.16192e-05
7.54378e-05
6.83344e-05
7.36084e-05
7.84684e-05
7.74605e-05
7.16855e-05
7.91289e-05
7.57424e-05
8.17689e-05
6.88318e-05
6.6031e-05
7.54397e-05
8.32119e-05
8.16054e-05
7.48126e-05
7.57201e-05
8.21663e-05
8.25726e-05
7.454e-05
7.41221e-05
8.15461e-05
8.28878e-05
8.0158e-05
8.30529e-05
8.1298e-05
7.92109e-05
6.57982e-05
7.46857e-05
6.70698e-05
8.01371e-05
8.22477e-05
7.40546e-05
6.70509e-05
8.38887e-05
6.71662e-05
7.38972e-05
7.02508e-05
7.70541e-05
6.56909e-05
7.96532e-05
7.70374e-05
7.66489e-05
7.77256e-05
6.98502e-05
8.29668e-05
6.88413e-05
7.98837e-05
7.72119e-05
7.64535e-05
6.73375e-05
8.16818e-05
7.97214e-05
6.7511e-05
7.12942e-05
7.60073e-05
7.51891e-05
7.95806e-05
6.1911e-05
7.92497e-05
7.47876e-05
7.75912e-05
7.29087e-05
7.31033e-05
7.28791e-05
6.27715e-05
8.25693e-05
7.6239e-05
4.17177e-05
6.7378e-05
7.73079e-05
8.25086e-05
8.06909e-05
6.91923e-05
6.70608e-05
8.13409e-05
6.6674e-05
8.09265e-05
8.27054e-05
7.87143e-05
6.90176e-05
8.1632e-05
6.599e-05
6.52607e-05
6.4976e-05
8.00968e-05
7.64196e-05
7.46261e-05
8.30754e-05
7.96078e-05
7.84544e-05
6.95615e-05
6.2649e-05
8.34011e-05
7.74998e-05
8.41232e-05
8.14837e-05
6.78155e-05
7.65228e-05
7.77334e-05
7.38369e-05
7.70866e-05
7.33407e-05
7.5294e-05
8.69918e-05
7.8507e-05
7.42917e-05
6.72647e-05
7.92571e-05
7.65582e-05
8.04394e-05
7.48299e-05
6.64416e-05
6.85908e-05
7.88688e-05
7.98858e-05
7.34807e-05
8.13805e-05
7.26264e-05
7.94432e-05