/*--------------------------------*- C++ -*----------------------------------*\
| =========                 |                                                 |
| \\      /  F ield         | OpenFOAM: The Open Source CFD Toolbox           |
|  \\    /   O peration     | Version:  2212                                  |
|   \\  /    A nd           | Website:  www.openfoam.com                      |
|    \\/     M anipulation  |                                                 |
\*---------------------------------------------------------------------------*/
FoamFile
{
    version     2.0;
    format      ascii;
    arch        "LSB;label=32;scalar=64";
    class       volScalarField;
    location    "0.016";
    object      p;
}
// * * * * * * * * * * * * * * * * * * * * * * * * * * * * * * * * * * * * * //

dimensions      [0 2 -2 0 0 0 0];

internalField   nonuniform List<scalar> 
31639
(
0.0166707
0.0116455
0.0190802
0.00855852
0.0117366
0.0164222
0.0182912
0.0174635
0.012452
0.0106104
0.0182078
0.0118311
0.0122707
0.0159867
0.0139477
0.0194869
0.0225722
0.023101
0.00381727
0.0177339
0.0129185
0.00997736
0.0136185
0.00844267
0.0145986
0.0172912
0.0168239
0.052898
0.0175505
0.017512
0.00941842
0.024928
0.012448
0.0067969
0.0302939
0.0174614
0.0100625
0.0181254
0.0181422
0.0149003
0.0119465
0.0170095
0.0133372
0.0185297
0.0190544
0.00800397
0.0119229
0.00945448
0.0203338
0.00857875
0.00792574
0.00640433
0.0307162
0.0188691
0.0061981
0.0230839
0.0102025
0.0168787
0.0116726
0.0081346
0.00895649
0.017098
0.0141416
0.0173854
0.0305658
0.00502069
0.00309577
0.00971879
0.0120407
0.00755864
0.0108071
0.0227761
0.0104873
0.00447097
0.0309616
0.0246355
0.0107813
0.00997608
0.011571
0.0108926
0.0166004
0.0159141
0.01567
0.00878573
0.0155409
0.0144288
0.0134045
0.0094344
0.00299528
0.0124985
0.00713722
0.0226169
0.00839711
0.0111915
0.00535144
0.0167971
0.00911742
0.00644148
0.0121593
0.016107
0.0286227
0.0286402
0.0146088
0.0111305
0.00619712
0.00774487
0.0162874
0.00827024
0.0095128
0.0147872
0.0182432
0.0159768
0.0170248
0.0100372
0.00448351
0.017795
0.030341
0.0187954
0.0287542
0.00899687
0.0251523
0.00780759
0.00403647
0.00858801
0.0162735
0.0159281
0.0115439
0.00869658
0.0106175
0.0128357
0.0301156
0.00132188
0.0192767
0.0045526
0.00543513
0.00972131
0.0101707
0.0111478
0.0079982
0.00892789
0.00887243
0.0131133
0.0142789
0.0081957
0.0119657
0.0155674
0.029005
0.0101368
0.0150255
0.0309319
0.00912639
0.020768
0.00653857
0.0058658
0.00759865
0.00586486
0.0042847
0.0107486
0.0203618
0.00965526
0.00532146
0.0227638
0.0102108
0.0169649
0.0242519
0.0243216
0.0188734
0.0212269
0.0066786
0.00466078
0.0215295
0.0160503
0.0216298
0.0123937
0.015397
0.0104789
0.013952
0.0250455
0.00976858
0.0147072
0.0122616
0.0200844
0.0170901
0.017808
0.0178869
0.0173618
0.0209703
0.014708
0.01604
0.0197896
0.0201105
0.0106025
0.0204473
0.00629327
0.00709657
0.00741164
0.0071606
0.0113559
0.00732036
0.0180249
0.0151872
0.0229252
0.0200931
0.0212135
0.0103936
0.00874208
0.0036543
0.00618979
0.0255604
0.00704657
0.00697396
0.0149054
0.0287606
0.0154523
0.018553
0.015588
0.0156744
0.0155354
0.0217218
0.0117067
0.0121163
0.0148346
0.0157086
0.0217636
0.0189324
0.0108207
0.0195877
0.0191044
0.0135651
0.0248128
0.0065566
0.0179738
0.0227865
0.0197602
0.0203513
0.00350205
0.00325113
0.0207005
0.0170567
0.0061851
0.00883447
0.0186796
0.0216832
0.0203721
0.00903564
0.0233601
0.00692657
0.0242211
0.0197373
0.00357474
0.00103061
0.00801198
0.0202342
0.0232447
0.0112849
0.0120974
0.0168886
0.00525078
0.0166921
0.019289
0.00808374
0.00652379
0.0113229
0.0159866
0.0114879
0.0155039
0.00259411
0.0293251
0.0184084
0.01651
0.0374962
0.00766052
0.0168024
0.0207645
0.0100035
0.019646
0.00716669
0.0218125
0.00969697
0.00801665
0.0244141
0.0250924
0.0250045
0.033099
0.0179272
0.0179463
0.0218554
0.0208813
0.00400085
0.0200623
0.0223927
0.00181285
0.00650707
0.00654354
0.0189525
0.00562542
0.0226891
0.00306675
0.00896769
0.0103115
0.00957933
0.0217269
0.00692856
0.00628134
0.0139117
0.00558649
0.0159206
0.00373093
0.0134407
0.0218844
0.00928456
0.0365623
0.0293189
0.013013
0.0120047
0.0168631
0.00324122
0.0253302
0.0196276
0.0193138
0.0185959
0.00778972
0.0282819
0.00586312
0.015261
0.0207431
0.0186206
0.0208905
0.00673897
0.00781061
0.00808893
0.00854813
0.0220547
0.00639712
0.0228929
0.030444
0.0311387
0.00966814
0.0212692
0.0238483
0.00544105
0.00267415
0.0232363
0.00492151
0.00697485
0.0215781
0.00600124
0.0190482
0.0188442
0.0283396
0.010618
0.0217699
0.0106158
0.0201218
0.00620298
0.00818395
0.00693684
0.0139517
0.0141955
0.0207728
0.0228537
0.0140975
0.0364527
0.0040264
0.00976512
0.00886039
0.0047602
0.014094
0.0150987
0.0209271
0.0137076
0.0255897
0.0160739
0.00756066
0.00509311
0.00851477
0.0293663
0.0245337
0.0205693
0.0255867
0.0194461
0.00639371
0.0095207
0.00638906
0.00586984
0.00557268
0.00683774
0.0117948
0.00073504
0.0233863
0.00354193
0.0259615
0.00693988
0.0217337
0.00606771
0.0221804
0.0234658
0.01781
0.00858065
0.0343623
0.0230823
0.0181272
0.0174135
0.00587399
0.0204822
0.00322205
0.00907384
0.00917167
0.0094958
0.017911
0.00787469
0.00920756
0.0203083
0.0376597
0.0187193
0.0205322
0.0150602
0.016089
0.0144394
0.0119915
0.0115776
0.0283182
0.0137322
0.00126604
0.0204611
0.037209
0.0132793
0.0277586
0.0160512
0.0190619
0.00840368
0.00692746
0.0217565
0.00794387
0.0173674
0.0174035
0.0211671
0.005226
0.00643957
0.022613
0.00960281
0.00344822
0.00410784
0.0156893
0.00544903
0.0097467
0.0102593
0.0236623
0.023167
0.0250587
0.0236248
0.0206128
0.0100668
0.021097
0.00951549
0.0225158
0.0252517
0.00784652
0.0207084
0.0087288
0.0170262
0.0243234
0.0161563
0.00434947
0.0198882
0.0553273
0.00432619
0.0130487
0.00885573
0.0193154
0.00249268
0.0067712
0.00803031
0.00673468
0.0211037
0.00171317
0.0134809
0.0272906
0.0120549
0.0139913
0.00814412
0.029567
0.00526595
0.0110553
0.0283336
0.0364264
0.0132581
0.0189746
0.0154646
0.0103076
0.00802935
0.00619209
0.0248166
0.00291649
0.0164621
0.0158112
0.0149432
0.00450707
0.00683996
0.0238825
0.0269917
0.00355889
0.00397619
0.00444388
0.00261192
0.0318621
0.00920621
0.00382492
0.0254671
0.028296
0.0253042
0.00540927
0.0228081
0.0212271
0.0240898
0.00274586
0.0282999
0.02839
-0.00030751
0.0245702
0.0237376
0.0247055
0.0157725
0.0263791
0.00122988
0.00433964
0.0239043
0.00362719
0.00440276
0.0073995
0.0179539
0.0121216
0.0221465
0.00148605
0.00794287
0.0127112
0.0266498
0.00171001
0.0210743
0.00324733
0.0367958
0.0372546
0.00883587
0.0532063
0.00908192
0.00904638
0.0147146
0.015068
0.0104266
0.0143438
0.038288
0.0105464
0.0207384
0.000902216
0.00941434
0.0145765
0.00829789
0.0236537
0.00180179
0.00569709
0.0142754
0.00516675
0.0129794
0.0132394
0.0071262
0.0298429
0.00518098
0.003723
0.000674844
0.0166588
0.0271725
0.00412821
0.000883192
0.00500997
0.00559405
0.00433468
0.0253015
5.0476e-05
0.00177596
0.00122612
0.0227113
0.00286912
0.0238024
0.0243849
0.0253934
0.00754515
0.000194018
0.000490427
0.00385793
0.00113901
0.0156352
0.00136331
0.0156234
0.0247655
0.00213368
0.00910792
0.0122231
0.0296636
0.0274217
0.0215629
0.0103798
0.00498936
0.0285102
0.0245501
0.00232221
0.00252918
0.0106518
0.0179024
0.00742374
0.00166584
0.000197213
0.00125753
0.0237275
0.0198427
0.00915302
0.0543931
0.0195632
0.0151729
0.0105425
0.0163601
0.0210536
0.0209226
0.014622
0.00935447
0.0117828
0.0121888
0.0198945
0.00455233
0.0142689
0.00170802
0.0155762
0.0360991
0.0250662
0.0232395
0.0172302
0.0136755
0.0328987
0.0153692
0.0184092
0.00811288
0.0291769
0.0275214
0.00407843
0.0150977
0.0171259
0.000363206
0.0333884
0.00920858
0.00158376
0.00450603
0.00255408
0.0296621
0.0270795
0.0276411
0.00418648
0.000231897
0.0234544
0.0158233
0.024775
0.0255494
0.0255124
0.00165149
0.000214286
0.0243035
0.0210898
0.0217595
0.0256226
0.00145898
0.00920015
0.037446
0.00533961
0.00298918
0.0263027
0.0149135
0.00635394
0.0239741
0.0236165
0.0191863
0.0111748
0.00738159
0.0174721
0.0100442
0.000579852
0.000991849
0.00197989
0.00743358
0.00285371
0.0296987
0.0106514
0.000798471
0.000876694
0.0227608
0.00809277
0.00102726
0.0552028
0.00749462
0.00897855
0.0120022
0.0135743
0.0115441
0.0147231
0.0139552
0.00933379
0.0107152
0.0154803
0.00982381
0.00918225
0.0104482
0.0138099
0.0262057
0.0148935
0.0140882
0.0230304
0.0297443
0.0250979
0.00707909
0.0138497
0.00400173
0.0156565
0.0306835
0.0011724
0.00287324
0.00254645
0.00799775
0.00925117
0.0228496
0.0217985
0.00656736
0.00269777
0.017852
0.0295796
0.00080984
0.0243604
0.00965927
0.0223589
0.0206511
0.0216239
0.0279828
0.0260672
0.0335259
0.0237943
0.0199728
0.0249314
0.0224262
0.0231761
0.00837135
0.029171
0.00825066
0.00219569
0.00552022
0.0226297
0.000197027
0.0188226
0.00446949
0.0062349
0.0188311
0.0113533
0.0280659
0.0052907
0.0197441
0.00641346
0.0323729
0.00937466
0.0010091
0.00141048
0.0264731
0.0176918
0.00117529
0.00294835
0.00174612
0.00572264
0.00076206
0.000413589
0.0223368
0.0215665
0.000355059
0.0216571
0.0192143
0.0231549
0.0127348
0.0126455
0.0102033
0.0163436
0.0170509
0.00800444
0.00128228
0.0149642
0.0204641
0.0151423
0.0280583
0.0250393
0.0149804
0.0242349
0.00932582
0.0375431
0.00441033
0.0246075
0.0147101
0.000212398
0.0167423
0.00428384
0.00885908
0.00374441
0.0038064
0.0188861
0.0266097
0.00659818
0.0236362
0.0010643
0.00123143
0.00107133
0.0310276
0.0311461
0.0296446
0.0319062
0.0263534
0.0243483
0.00823214
0.00541482
0.00908886
0.00239119
0.0173947
0.0078045
0.0205403
0.0113432
0.00906919
0.00286576
-7.47914e-05
0.00665367
0.00355571
0.0276766
0.0120802
0.00655998
0.00627363
0.0116301
0.00120813
0.0194656
0.00635356
0.0243567
0.00469581
0.00320693
0.0160702
0.0160355
0.0247096
0.0294148
0.0258442
0.0197498
0.0111619
0.012092
0.0234331
0.000259492
0.00124751
0.0230451
0.0235255
-6.1317e-05
0.000607732
0.00339639
0.0232238
0.00624754
0.0141568
0.0299648
0.0291014
0.0149014
0.0348945
0.0112572
0.00978641
0.0100572
0.00655104
0.0040655
0.0244359
0.00415142
0.0149756
0.0181207
0.0276056
0.00874164
0.0100261
0.00958151
0.0222124
0.0224967
0.0225962
0.0319914
0.00300519
0.0259221
0.0255902
0.026122
0.0142193
0.00053949
0.030589
0.0315987
0.0291408
0.0172208
0.0181769
0.0198861
0.0185571
0.0220298
0.0169877
0.000673185
0.0232566
0.0108352
0.0075026
0.0236265
0.00178584
0.00107386
0.00413498
0.00384817
0.0283284
0.0114386
0.00422901
0.00589424
0.010284
0.0209804
0.0098727
0.00908368
0.0189856
0.0132803
0.000473441
0.0244023
0.01549
0.0255685
0.0129836
0.00269824
0.0199034
0.0197623
0.000989207
0.0114357
0.0106576
0.000849494
0.00101752
0.0241667
0.0277655
0.0112399
0.0144547
0.00169677
0.0257301
0.0320029
0.0268013
0.0185436
0.00867415
0.0249044
0.0189193
0.0100871
0.0139307
0.00779727
0.00786236
0.0126006
0.023789
0.00434278
0.0155445
0.00987411
0.00892412
0.000330994
0.0265233
0.0104888
0.0274174
0.00760417
0.0224655
0.0259775
0.0129207
0.0130198
0.0270876
0.021936
0.0246227
0.00958718
0.011113
0.0218005
0.0208392
0.0165168
0.0174585
0.0253883
0.0260067
0.0341148
0.0201339
0.0227085
0.00148985
0.00103406
0.0232537
0.0212407
0.0109163
0.0251723
0.00365199
0.0178308
0.0198192
0.0248157
0.00309332
0.0254778
0.02318
0.0275972
0.0262014
0.0274225
0.0130027
0.0235877
0.0105016
0.0180729
0.0176165
0.0167495
0.0284855
0.0264205
0.0255766
0.0216388
0.0117922
0.0153792
0.0169106
0.0259705
0.0166949
0.000129004
0.027077
0.0297562
0.0140929
0.0119723
0.00497904
0.00368649
0.00993543
0.0262594
0.00824802
0.00887691
0.0322605
0.0132381
0.004941
0.00683134
0.000625414
0.0126296
0.0143097
0.0130017
0.0241412
0.000932365
0.0279771
0.00245896
0.0272279
0.0263158
0.0320982
0.0124551
0.0127481
0.0109301
0.0204146
0.018129
0.0213057
0.0326748
0.0238354
0.0252666
0.0166815
0.0203253
0.0121035
0.0213021
0.0185526
0.00405688
0.00361073
0.0150311
0.00127284
0.0107065
0.0281563
0.0296543
0.00546999
0.0272975
0.0178402
0.0286809
0.0157159
0.0161972
0.00223188
0.00120288
0.0209076
0.0188704
0.00915706
0.0120496
0.0113429
0.0175197
0.0121575
0.0236761
0.0254247
0.0324712
0.025001
0.0270089
0.0164179
0.0115697
0.0135358
0.0011986
0.00230475
0.00447225
0.0119224
0.0107342
0.0188468
0.0110937
0.0198205
0.0224253
0.0248199
0.0115075
0.00723708
0.0333008
0.01751
0.0297093
0.0293329
0.0131472
0.0299977
0.00312966
0.0251284
0.00763352
0.0143907
0.00577084
0.0111532
0.0123795
0.0284534
0.0288674
0.000879755
0.0260342
0.0309593
0.0354823
0.0116123
0.0218801
0.0251274
0.0255464
0.0103182
0.0111227
0.023656
0.0357256
0.0235675
0.00437376
0.0208698
0.0349709
0.0202796
0.0201273
0.0194623
0.00965108
0.0293455
0.0253115
0.0295735
0.00263973
0.0210135
0.00179751
0.0175472
0.0248508
0.00532188
0.0249444
0.0076453
0.0237791
0.0323341
0.0140385
0.00071861
0.0157853
0.0170079
0.000991721
0.0105025
0.0107294
0.0167813
0.0122438
0.034051
0.0272651
0.0107587
0.0106318
0.0263978
0.0148821
0.025109
0.0330632
0.025619
0.000991954
0.000920665
0.0270723
0.0235093
0.0165486
0.0183254
0.0210531
0.017424
0.0181028
0.0294565
0.0259386
0.0311287
0.0233788
0.0204974
0.00297888
0.0300077
0.00396605
0.0113894
0.0280104
0.0299839
0.0242492
0.0127179
0.0113288
0.000628732
0.0262184
0.0163721
0.0277758
0.0153126
0.0293556
0.0311372
0.0196978
0.0210354
0.0126109
0.006172
0.0339587
0.0162666
0.0208834
0.0161781
0.0149868
0.0216277
0.0343693
0.0199134
0.0187887
0.0369698
0.00325948
0.0290407
0.0179704
0.0357481
0.0186328
0.0149913
0.0288849
0.0294967
0.00537046
0.0111365
0.0062239
0.00758162
0.0255163
0.0135808
0.0147672
0.000639668
0.0118454
0.0428616
0.0121285
0.0127144
0.0174751
0.0180285
0.0170861
0.0268986
0.0275363
0.0200172
0.0107163
0.0272793
0.015356
0.0282901
0.0253644
0.0255396
0.0281709
0.0287657
0.0264703
0.0101748
0.000888465
0.0301588
0.00920071
0.0318188
0.0354079
0.0331724
0.0121476
0.0303105
0.0203793
0.00327986
0.00269533
0.00445673
0.0271243
0.0281239
0.0279178
0.025907
0.0309059
0.0126286
0.0105592
0.0283578
0.0315212
0.0150642
0.027981
0.0300124
0.0199593
0.0116406
0.0341006
0.0304372
0.0262568
0.021332
0.0271938
0.0221983
0.0293281
0.00251395
0.022052
0.0262256
0.0300366
0.0215224
0.0284549
0.0143584
0.0359275
0.0225258
0.00307248
0.0272506
0.00657709
0.000244618
0.00621312
0.0214918
0.0182886
0.0212186
0.0271657
0.0295423
0.0113158
0.0234466
0.0134265
0.018297
0.0172538
0.0170478
0.0105074
0.0277773
0.0187326
0.019367
0.0275798
0.0194563
0.00971336
0.00934024
0.0194866
0.0204465
0.0186169
0.0259356
0.0264959
0.00155382
0.018354
0.0275894
0.0263825
0.0191082
0.0195167
0.016059
0.0199172
0.0347642
0.00172133
0.00960535
0.0289221
0.00451124
0.0128322
0.0138503
0.0132376
0.0322991
0.034182
0.00428864
0.0349517
0.0310874
0.0223349
0.0222732
0.0315965
0.0230636
0.0292594
0.0274333
0.0055824
0.0122872
0.0332499
0.000612941
0.000932617
0.0317494
0.0295998
0.00516602
0.0314033
0.0231084
0.0203413
0.013221
0.0298098
0.0291527
0.0106368
0.0275962
0.0256688
0.022615
0.0202086
0.00130244
0.00220595
0.00152247
0.0232351
0.0266498
0.0171567
0.0303663
0.0335701
0.0165992
0.01479
0.0104089
0.00623055
0.0367695
0.000207152
0.00425258
0.0133407
0.00164917
0.000406706
0.000748862
0.0142149
0.0104345
0.00134228
0.0458082
0.0288935
0.0219524
0.0338339
0.0189444
0.0362783
0.00595648
0.0117394
0.0122555
0.0349368
0.0349737
0.0189846
0.00996796
0.019956
0.0180143
0.0235087
0.0218128
0.0227457
0.0265462
0.00204984
0.028298
0.028614
0.0288305
0.0280766
0.0235696
0.0232466
0.0179251
0.0164755
0.030165
0.0262037
0.0085216
0.0066745
0.0177978
0.0254229
0.0339027
0.00833126
0.00956595
0.00998058
0.0253321
0.031958
0.0336488
0.0329963
0.00274143
0.00164137
0.0314299
0.0010312
0.0309014
0.032134
0.00656483
0.00907887
0.00407249
0.0300857
0.0114798
0.0264258
0.020782
0.0209373
0.0324496
0.0330644
0.0149449
0.0362987
0.035933
0.0245026
0.0225452
0.000186365
0.000912994
0.0250053
0.0226825
0.0274089
0.0355458
0.0539924
0.0362296
0.0285252
0.0362344
0.0287573
0.00363355
0.0265304
0.0305713
0.00417872
0.0286283
0.00705438
0.000839438
0.0281
0.0010603
0.0131808
0.0143048
0.0141473
0.0130344
0.000632264
0.00281776
0.00906946
0.034383
0.0320324
0.0232947
0.0138875
0.0175523
0.0111225
0.0139847
0.0103138
0.0134873
0.0132224
0.0119565
0.0246189
0.021081
0.0282715
0.0209675
0.0283033
0.0020399
0.027686
0.00148281
0.0365851
0.0286064
0.0187089
0.0235793
0.0114921
0.0150221
0.0052325
0.00391628
0.00922207
0.0062368
0.0169751
0.0277177
0.0130134
0.0217635
0.0198492
0.00791591
0.019567
0.0342777
0.00192994
0.00446743
0.00186952
0.0226478
0.0322376
0.0260943
0.00849105
0.00676693
0.0317124
0.00415413
0.0318838
0.0302419
0.0549972
0.031995
0.0316489
0.0361601
0.0338531
0.0325732
0.0253955
0.00659148
0.0262934
0.00626708
0.0269149
0.0279258
7.15814e-05
0.0340732
0.0159568
0.00320547
0.026789
0.0336672
0.0264027
0.0302736
0.0264059
0.0134073
0.0163708
0.0254006
0.0286737
0.0313391
0.0336215
0.00106134
0.00451047
0.0214779
0.0283974
0.0266361
0.0236357
0.0247891
0.00180753
0.0236563
0.0127734
0.013438
0.0130387
0.0113923
0.01513
0.018201
0.000784844
0.0289615
0.0301471
0.025569
0.0016876
0.0299909
0.0182826
0.0192422
0.0217632
0.0226722
0.0264567
0.0207235
0.0466127
0.00537281
0.0188622
0.0292718
0.0226255
0.0226566
0.00444273
0.0206791
0.03212
0.0362114
0.0264843
0.0121916
0.0312136
0.0112195
0.0208364
0.0332091
0.035088
0.0208687
0.0354215
0.0350595
0.0348904
0.0325106
0.0220466
0.0338452
0.0320163
0.0280056
0.0126311
0.0252818
0.00999328
0.00284816
0.0259493
0.0082283
0.0329441
0.0335674
0.0327152
0.0304696
0.0193579
0.0306483
0.0346181
0.0108948
0.00766371
0.0150652
0.0371183
0.0253297
0.0244035
0.00632275
0.00555361
0.0291895
0.00187012
0.0178245
0.0363848
0.0312445
0.0266931
0.0274907
0.0165508
0.0146302
0.00392134
0.0283202
0.000463927
0.0103814
0.0316425
0.00146183
0.00397354
0.00611234
0.00812846
0.00480207
0.0224651
0.0250634
0.0292895
0.0192649
0.0118713
0.0424058
0.011831
0.0136746
0.0145499
0.0304998
0.0275541
0.0345676
0.0311812
0.00989633
0.0174266
0.0169972
0.016954
0.0197776
0.0239422
0.0240424
0.0279359
0.0266415
0.0247841
0.0182757
0.0136089
0.0139074
0.00345791
0.0262622
0.0312384
0.0112169
0.00464893
0.0469426
0.0177545
0.0320418
0.0215749
0.0324599
0.038977
0.0251874
0.0113676
0.00969727
0.020854
0.0344961
0.0330877
0.0086114
0.0367154
0.000431266
-0.000150832
0.0316797
0.0352851
0.017719
0.0146619
0.0296412
0.00768832
0.0330879
0.0356144
0.0143871
0.0290863
0.030312
0.0450752
0.00819092
0.034153
0.0201009
0.0209112
0.0287083
0.034194
0.00397679
0.0268537
0.03666
0.0357343
0.038172
0.00824675
0.0299663
0.0291602
0.00423688
0.0236792
0.0341943
0.0244889
0.00354468
0.0106822
0.0226327
0.00742336
0.0247389
0.0106373
0.000940851
0.00120386
0.0151218
0.00434803
0.0325438
0.0190836
0.00843963
0.0146157
0.0337971
0.0338354
0.0299594
0.0313261
0.0332577
0.019253
0.00350635
0.00726785
0.0166604
0.0283676
0.0284618
0.029234
0.0295837
0.0203544
0.0198914
0.0179982
0.0246461
0.0219177
0.0220396
0.0237581
0.0359623
0.0259496
0.0284277
0.0242925
0.0269408
0.0266607
0.0135547
0.0261512
0.0205097
0.0126867
0.0184285
0.0415656
0.0207493
0.0462815
0.0273161
0.00802153
0.0124109
0.0240165
0.0392753
0.0221359
0.0208824
0.00943837
0.0274485
0.000978997
0.00243093
0.000505311
0.0341083
0.0338589
0.0343669
0.0177415
0.0371813
0.00666476
0.0352604
0.0357086
0.0343312
0.0036684
0.0392249
0.0346303
0.00272944
0.0367091
0.0209039
0.0218703
0.0206145
0.0285584
0.031046
0.0254818
0.0268356
0.0283161
0.0176213
0.0170356
0.00444632
0.035711
0.0281268
0.0321622
0.0245099
0.0312504
0.0349879
0.0130618
0.0336089
0.00350053
0.0251078
0.0119149
0.00141894
0.000272096
0.0151701
0.0314375
0.0119677
0.0286861
0.0291708
0.00987648
0.0306352
0.0115384
0.03679
0.0291778
0.0362733
0.0273446
0.0149367
0.028912
0.0302307
0.0335934
0.00780012
0.0297506
0.0296961
0.0311827
0.0335539
0.0239893
0.0316099
0.0255216
0.0035175
0.0302792
0.00777955
0.0227002
0.023925
0.0164609
0.0261924
0.0396163
0.0200738
0.0185855
0.0195214
0.013628
0.0254157
0.00953166
0.0169487
0.0311365
0.0148614
0.0293433
0.00887388
0.031436
0.0262303
0.00825044
0.0222433
0.0327444
0.00871627
0.0258219
0.0170094
0.00234491
0.00036676
0.00240825
0.0328919
0.0216084
0.0246376
0.0188165
0.018449
0.0329639
0.0357777
0.0345886
0.0263079
0.0340827
0.0278493
0.0361045
0.0189877
0.0367759
0.036524
0.0364858
0.0353296
0.0343952
0.00415869
0.0288582
0.0344424
0.0263634
0.0237845
0.0383292
0.0344893
0.0174061
0.0358214
0.00367224
0.0325734
0.0339983
0.0238473
0.0226999
0.0308229
0.0322026
0.0307101
0.00156402
0.0359123
0.0271091
0.0102674
0.00063247
0.0355203
0.0109901
0.00464419
0.00305458
0.000432694
0.0254627
0.00817488
0.0427989
0.0130276
0.0305697
0.0164366
0.0124651
0.0179079
0.0298613
0.0128393
0.0353659
0.0294698
0.0173888
0.0332027
0.029629
0.0255025
0.0397938
0.0268978
0.0341582
0.0220329
0.0368748
0.0218958
0.0217304
0.00462503
0.0275902
0.0262242
0.0277867
0.0319785
0.0234542
0.0369941
0.0276852
0.0269037
0.00381449
0.00836712
0.0371651
0.019629
0.00732941
0.0198105
0.0491058
0.0119478
0.038404
0.0089767
0.00172826
0.0147747
0.0153803
0.0136918
0.0254692
0.00795967
0.023711
0.0296124
0.0212444
0.00718004
0.0078197
0.0347499
0.00223471
0.0259347
0.0241236
0.0160814
0.0324552
0.0387132
0.0168937
0.0324023
0.030313
0.0268823
0.00055028
0.0261693
0.0292426
0.0345534
0.0353395
0.0399418
0.0370325
0.0046698
0.00310765
0.0374036
0.00455116
0.0335366
0.0359252
0.0333219
0.00727408
0.0410021
0.0158559
0.029788
0.0357528
0.0322417
0.0331977
0.0318959
0.0303653
0.0277994
0.0163847
0.0304863
0.0230519
0.00272404
0.01513
0.0333356
0.0303112
0.0393306
0.0415248
0.00219254
0.0217165
0.00357985
0.00679562
0.0349346
0.0067455
0.00576515
0.036692
0.00849477
0.0142973
0.0212244
0.0353133
0.00039902
0.0346345
0.0297951
0.0165492
0.0340698
0.0361848
0.0187834
0.0341173
0.0276656
0.0367186
0.0340283
0.0334843
0.0247192
0.0379513
0.0264698
0.00775335
0.0081862
0.0368532
0.0274786
0.0337045
0.04094
0.0303043
0.0323361
0.0403704
0.00813295
0.0367026
0.0358507
0.0368328
0.0202775
0.0530646
0.006263
0.0105014
0.0163992
0.0151172
0.0397882
0.0120649
0.0292292
0.0232013
0.0242355
0.0226555
0.00834114
0.0150274
0.00975684
0.0345784
0.00168111
0.0368095
0.037483
0.038051
0.0179982
0.0315257
0.0471738
0.029294
0.00267639
0.0336421
0.0114613
0.0142544
0.038763
0.0182185
0.0382883
0.0389126
0.0260341
0.00426528
0.0345088
0.0331719
0.0343884
0.0256617
0.0339757
0.0339509
0.032787
0.0289329
0.0297981
0.0306574
0.0308111
0.0253846
0.0236514
0.00236941
0.0353776
0.0214637
0.0229298
0.0250458
0.0128048
0.0107656
0.0426507
0.0331502
0.0303489
0.0386383
0.0399598
0.0150697
0.00622085
0.0104201
0.0418213
0.0216077
0.0110813
0.0357247
0.00942253
0.0311301
0.0179593
0.0079681
0.00760898
0.0292888
0.0170892
0.0320679
0.00134371
0.0282839
0.00303197
0.0305757
0.0175964
0.0256008
0.0262256
0.0249068
0.0321736
0.0311995
0.035128
0.0109432
0.0482318
0.0465086
0.0407727
0.0279952
0.0277541
0.0216834
0.0293438
0.0328158
0.0345008
0.0394244
0.000168082
0.0154044
0.0170207
0.0521291
0.0352829
0.0044041
0.0362861
0.00457322
0.0207852
0.0238175
0.014629
0.0106896
0.0409862
0.0330872
0.0113691
0.022402
0.0423034
0.0144877
0.00901127
0.000777685
0.0206979
0.00311093
0.0380914
0.00904803
0.0404044
0.0481377
0.0123386
0.0336645
0.00046683
0.000498042
0.0117823
0.0390338
0.0389832
0.0371577
0.032965
0.0025179
0.0254418
0.054518
0.0244403
0.0327859
0.0312706
0.0324879
0.0329606
0.0261226
0.0361505
0.0319467
0.0113107
0.00280885
0.00314674
0.00315975
0.0306655
0.0342845
0.019283
0.0342328
0.00817405
0.00846322
0.00961537
0.0295606
0.0399435
0.0394295
0.0414191
0.0233745
0.011746
0.0363058
0.0111139
0.0293541
0.0318532
0.0330326
0.0180603
0.036251
0.0164832
0.030037
0.0311981
0.0298516
0.0158419
0.0224239
0.0555248
0.0140247
0.00360739
0.0284784
0.0243764
0.0303442
0.0197225
0.0229647
0.0247112
0.0263672
0.021821
0.0317685
0.0461821
0.0237198
0.0357
0.0165176
0.0292417
0.0223433
0.0282237
0.0306303
0.0290047
0.0391198
0.00564045
0.0384142
0.0253978
0.00124108
0.0167298
0.0402613
0.0360109
0.0214238
0.00511288
0.0325637
0.0118595
0.0414801
0.011902
0.0336986
0.0318736
0.037597
0.0284597
0.0346368
0.0236656
0.00401
0.0310113
0.0036157
0.0377002
0.000394461
0.00127027
0.00799761
0.0029349
0.0258233
0.00138275
0.0418034
0.0420863
0.0353097
0.0363307
0.0396095
0.039644
0.0383279
0.0388694
0.0109297
0.0422552
0.0381759
0.00850617
0.0361601
0.0445294
0.0250311
0.000193442
0.0348132
0.037882
0.0325694
0.0303346
0.0342127
0.0407571
0.00393617
0.0358836
0.00178161
0.000995939
0.000171879
0.0312331
0.0221408
0.0096974
0.0182164
0.0355453
0.05233
0.0249185
0.032465
0.0333394
0.0405276
0.00326961
0.0550756
0.0373495
0.0109295
0.0265832
0.0129688
0.0278928
0.0343761
0.0132032
0.0368787
0.0287095
0.0156631
0.0245035
0.0150614
0.0302792
0.0244088
0.0388275
0.039873
0.0115022
0.0208041
0.0251389
0.0245752
0.0333063
0.0470388
0.0170781
0.0331925
0.0253489
0.016832
0.0215754
0.0423942
0.0238034
0.0219536
-8.40278e-05
0.0450013
0.0441644
0.00147379
0.0363247
0.002832
0.027361
0.0416473
0.00629169
0.0386226
0.0386293
0.0410404
0.0393949
0.0316441
0.0324966
0.0355061
0.00976216
0.034176
0.0119361
0.00322596
0.0182079
0.00496301
0.032409
0.0351834
0.0150935
0.0151067
0.0183954
0.0411778
0.00470921
0.0351321
0.0210327
0.0406417
0.0287786
0.0397705
0.0383018
0.0428539
0.0380741
0.00178122
0.0253336
0.0378915
0.0264345
0.0344475
0.0332334
0.00705596
0.0399176
0.0302955
0.0418879
0.00015145
0.0381216
0.0096795
0.0205965
0.00279672
0.0324463
0.031507
0.0492609
0.0300579
0.0101248
0.0372801
0.0355975
0.00113874
0.000778656
0.0486068
0.0332872
0.0116867
0.0539903
0.0133735
0.0210274
0.0363161
0.00050972
0.00423709
0.0549712
0.0106716
0.015924
0.0157561
0.0259155
0.0355203
0.020567
0.015011
0.0362918
0.040845
0.0378213
0.0352676
0.0207941
0.0355495
0.0249927
0.0153601
0.0313279
0.0308749
0.0250949
0.0283584
0.0206326
0.0193817
0.0358626
0.0368889
0.0373927
0.031154
0.0442342
0.0300569
0.0311986
0.029332
0.0307784
0.0372016
0.0267916
0.00604163
0.040507
0.0392472
0.0365546
0.00630094
0.0349008
0.0303396
0.0339962
0.0309267
0.0415997
0.0363414
0.00483859
0.0147866
0.0411239
0.0414925
0.0448116
0.00402984
0.0200827
0.0141113
0.0382826
0.03703
0.0397123
0.0444247
0.0448158
0.0385015
0.043983
0.0379489
0.0373726
0.024054
0.0396373
0.0335973
0.044004
0.0531219
0.0332787
0.0311107
0.0549566
0.0275034
0.0196715
0.0409939
0.0226117
0.043942
0.00129659
0.0341796
0.021162
0.0507252
0.0329308
0.0313461
0.0418797
0.0202013
0.00138936
0.0185963
0.0510732
0.000446144
-0.000111502
0.0336875
0.0132292
0.0142168
0.014015
0.0100897
0.00858683
0.00956592
0.00783279
0.0151113
0.0391084
0.043831
0.0045491
0.0394485
0.0349974
0.00359671
0.0330447
0.0404556
0.0409987
0.0231691
0.0284572
0.0218556
0.0400978
0.022687
0.0350276
0.0311389
0.0231379
0.0321619
0.0393387
0.0223201
0.0219297
0.0318916
0.0313339
0.0265347
0.0427965
0.00510165
0.0450376
0.02727
0.0234547
0.0257829
0.0405017
0.0177682
0.0137288
0.0406969
0.0360523
0.03702
0.0396018
0.050576
0.0458015
0.0409284
0.036912
0.0403338
0.0424899
0.0411141
0.025525
0.0431647
0.0413249
0.0120545
0.0369588
0.0274053
0.0431085
0.0357511
0.042445
0.0214023
0.0381789
0.0269754
0.0313857
0.0397151
0.0429758
0.0117379
0.0350693
0.0278701
0.0269937
0.0284678
0.044023
0.0359256
0.0379456
0.000816763
0.032228
0.000159235
0.0378259
0.00328427
0.0517848
0.0131319
0.0267951
0.0106
0.010239
0.00921323
0.0347483
0.0378297
0.0260374
0.0266587
0.0346957
0.0237163
0.0397525
0.0407779
0.0296221
0.0447613
0.0388175
0.0450358
0.0390108
0.0363939
0.0419628
0.0237156
0.0306631
0.0317299
0.0252259
0.00578313
0.042319
0.0416142
0.0492984
0.0129234
0.0388613
0.0345821
0.0137926
0.0314475
0.0384691
0.0335183
0.0438382
0.041627
0.0397312
0.0432902
0.0321824
0.0413764
0.0431262
0.0417406
0.0409656
0.0341754
0.0382616
0.0302483
0.0443792
0.0371026
0.0550605
0.0542637
0.0357454
0.0438405
0.0351685
0.0345388
0.033643
0.0287228
0.0406008
0.0359715
0.0388521
0.0406868
0.0444645
0.0390657
0.0332916
0.0371201
0.0371575
0.0433868
0.0358945
0.0383695
0.0408646
0.042419
0.00307956
0.0391195
0.00420075
0.00482826
0.00528739
0.00264455
0.0385687
0.00833795
0.000901065
0.02832
0.0382925
0.0522965
0.05321
0.0442377
0.0353363
0.0432967
0.023602
0.04873
0.0313308
0.034364
0.0374907
0.0405813
0.0265652
0.0400572
0.041742
0.0303067
0.0324677
0.0417788
0.0327839
0.0481943
0.0419801
0.0465898
0.0144425
0.00259807
0.0388023
0.0384272
0.0377691
0.046776
0.0396413
0.0476928
0.0397137
0.0427793
0.0251656
0.0445055
0.0321204
0.0429495
0.0340356
0.0434805
0.0446753
0.0271865
0.0394342
0.0293018
0.040934
0.0291356
0.0412943
0.035891
0.0345098
0.0413307
0.0398604
0.0359463
0.0397507
0.0273602
0.0477539
0.0372233
0.0395709
0.040849
0.0425502
0.0116719
0.0287808
0.0430756
0.0042697
0.00571752
0.0440206
0.0386072
0.000661405
0.0525065
0.0348868
0.0484259
0.0380207
0.0331315
0.033175
0.0457224
0.0382522
0.0327888
0.0345233
0.0372235
0.0382381
0.0378493
0.0492141
0.0420243
0.0422597
0.0284123
0.0285029
0.0445358
0.0359357
0.0421633
0.0421784
0.0476132
0.0522833
0.0501286
0.033393
0.0445165
0.035129
0.0413457
0.0403804
0.0346063
0.0158911
0.0438647
0.0528783
0.0429592
0.0329939
0.0380046
0.0330034
0.0544137
0.0304546
0.0390882
0.0331032
0.0346623
0.0414327
0.0438335
0.0349712
0.0419291
0.0411114
0.0372843
0.0426234
0.0413543
0.041333
0.0369865
0.0444734
0.0447525
0.0439579
0.0377149
0.0432992
0.043483
0.0430481
0.0137359
0.0440722
0.031278
0.0322991
0.0396962
0.0475305
0.0315972
0.0383929
0.0445539
0.0376561
0.0385502
0.0332679
0.0499681
0.0371193
0.043673
0.0316575
0.031717
0.0381779
0.044219
0.0314521
0.0375779
0.0371924
0.0435198
0.0442655
0.0375829
0.0379963
0.0474277
0.0473634
0.0389101
0.0467483
0.045866
0.0412032
0.0469374
0.0192578
0.0467612
0.0442006
0.0434276
0.0439145
0.0420354
0.0439164
0.0485565
0.0396012
0.0437488
0.034842
0.0399544
0.0359124
0.041252
0.0412755
0.050076
0.042075
0.0497223
0.0498823
0.0357495
0.040851
0.042802
0.0287447
0.0368646
0.0382815
0.0383158
0.0487007
0.0423844
0.0331391
0.0377665
0.030923
0.0451751
0.031423
0.0329365
0.0376706
0.0385193
0.0390619
0.0437256
0.0431349
0.0437688
0.0363582
0.0320652
0.0343139
0.0429291
0.0447374
0.0294451
0.0440263
0.0499442
0.0463999
0.0369609
0.0427296
0.0416869
0.0433907
0.0402857
0.0397523
0.0490287