/*--------------------------------*- C++ -*----------------------------------*\
| =========                 |                                                 |
| \\      /  F ield         | OpenFOAM: The Open Source CFD Toolbox           |
|  \\    /   O peration     | Version:  2212                                  |
|   \\  /    A nd           | Website:  www.openfoam.com                      |
|    \\/     M anipulation  |                                                 |
\*---------------------------------------------------------------------------*/
FoamFile
{
    version     2.0;
    format      ascii;
    arch        "LSB;label=32;scalar=64";
    class       surfaceScalarField;
    location    "0.016";
    object      phi;
}
// * * * * * * * * * * * * * * * * * * * * * * * * * * * * * * * * * * * * * //

dimensions      [0 3 -1 0 0 0 0];

oriented        oriented;

internalField   nonuniform List<scalar> 
68568
(
-1.41583e-07
1.4651e-07
-2.77624e-08
2.28353e-08
1.37026e-07
-6.9799e-08
-7.31149e-08
5.88805e-09
1.65043e-07
-1.26428e-07
-5.62842e-08
1.76692e-08
-4.34167e-09
2.20873e-09
-1.57521e-07
1.59654e-07
-1.33754e-09
1.32319e-07
1.00662e-09
-1.31988e-07
1.31144e-07
-4.60996e-10
-1.20075e-07
-1.06084e-08
7.82112e-08
-8.36402e-08
1.22318e-07
-1.16889e-07
-3.68893e-08
-2.51799e-08
1.4028e-07
1.22729e-07
-1.46522e-08
-1.03509e-07
-4.56751e-09
1.40897e-07
4.98457e-08
-5.37166e-08
9.42763e-08
1.28953e-07
-5.81867e-08
-6.0523e-08
-1.8866e-07
1.79384e-07
-1.32298e-07
6.4692e-08
-5.50897e-09
1.71111e-07
-1.76612e-07
1.31551e-08
-7.65402e-09
-6.66248e-08
-4.87359e-08
1.14226e-07
1.13465e-09
1.19885e-07
8.2963e-08
-1.23192e-07
-7.96565e-08
-4.78951e-08
-7.39678e-08
1.08097e-07
1.37661e-08
1.06778e-07
-1.11547e-07
-4.31254e-08
1.04837e-07
-4.37382e-09
-5.42416e-10
-9.99206e-08
8.08958e-08
-1.45466e-07
7.28793e-08
-8.30951e-09
1.07323e-07
-4.62767e-10
-1.06852e-07
-8.34117e-12
-1.6548e-08
8.53083e-09
1.31519e-07
-1.23502e-07
-4.32305e-08
1.78282e-07
-2.57191e-08
-1.09332e-07
-5.98304e-10
-2.99579e-10
-1.28499e-07
1.29397e-07
-7.13088e-08
-4.59439e-08
1.10739e-07
6.51388e-09
-9.21119e-08
-3.75254e-08
-1.19461e-08
-6.14907e-08
1.34188e-07
8.19855e-09
7.3298e-08
4.38896e-08
-2.79231e-08
-8.92644e-08
-6.41083e-08
-9.50954e-08
1.22314e-07
4.57649e-08
-1.13371e-07
3.49813e-09
1.44222e-07
-7.73189e-08
-1.35811e-07
6.89084e-08
-1.26921e-08
2.45024e-09
1.11739e-07
-1.01497e-07
1.4793e-07
-3.10199e-08
-1.05271e-08
-1.06383e-07
1.13842e-07
-8.76317e-08
-5.55961e-08
2.93859e-08
-1.96438e-10
1.04462e-07
-1.04275e-07
9.64199e-12
1.14861e-07
8.12381e-08
-8.14956e-08
6.70004e-10
-4.12439e-10
4.03979e-08
-1.50281e-07
8.76033e-08
2.22799e-08
-1.53774e-07
1.33747e-07
6.04247e-08
-7.08782e-08
-1.37378e-10
-2.93253e-10
-7.9691e-10
1.09037e-07
-9.17359e-10
1.0737e-07
-1.07154e-07
-3.7701e-10
1.61765e-10
-2.52953e-08
-1.50233e-07
1.13006e-07
1.82814e-07
-1.39489e-07
-1.56331e-07
-5.807e-08
-9.7859e-08
2.75814e-07
-1.37851e-07
1.55216e-07
-1.30463e-07
1.13098e-07
-1.18429e-07
6.3173e-08
-5.26655e-09
1.08731e-07
-1.06134e-07
-3.39164e-09
7.95353e-10
9.3198e-08
2.40088e-08
1.1072e-08
-1.28279e-07
2.02895e-09
-1.44943e-07
1.40368e-07
3.26018e-08
-2.80271e-08
-7.8385e-09
-8.95925e-08
9.70576e-08
3.73428e-10
-1.80088e-07
1.30413e-07
1.74001e-07
-1.22901e-07
-3.69588e-10
-3.07593e-10
1.78279e-09
-1.49682e-09
1.02927e-07
-1.03213e-07
3.75278e-08
-1.09364e-07
-2.13127e-09
8.79718e-08
-9.39922e-08
3.50582e-09
2.51461e-09
-8.12325e-08
1.35154e-07
-5.97517e-08
5.82992e-09
1.39792e-07
-7.24938e-08
-7.06292e-08
3.33133e-09
8.70316e-08
-8.71952e-08
-4.34639e-10
-1.0597e-07
-1.79921e-09
1.09978e-07
7.1658e-08
6.76747e-08
-7.29383e-09
-1.32039e-07
-5.58388e-09
1.29117e-07
-1.2422e-07
6.878e-10
8.45581e-08
-1.43053e-07
-2.99546e-09
1.02925e-07
-1.71752e-08
3.18809e-08
-1.17631e-07
1.41681e-07
-2.19789e-08
-1.60626e-07
4.09234e-08
3.88219e-08
7.74194e-08
-1.14044e-08
6.13191e-08
-1.21495e-07
6.67938e-08
-6.61779e-09
1.285e-07
-1.29741e-07
-9.67006e-11
-9.51294e-08
1.35606e-07
-3.0073e-08
-1.04037e-08
-1.94898e-07
-1.43676e-07
2.73979e-07
6.45957e-08
-1.09031e-07
2.66716e-09
1.11663e-07
-6.45795e-09
1.28979e-07
-1.36782e-07
-5.09552e-08
5.87577e-08
-1.19509e-07
6.17683e-08
6.36668e-08
-5.92647e-09
-7.76744e-08
-4.74487e-08
-4.62991e-08
-9.67475e-08
9.69756e-08
-2.04206e-10
-2.38301e-11
3.79073e-08
1.65306e-07
-6.34217e-08
1.00151e-07
-5.9712e-08
4.75328e-08
-6.97301e-08
-7.66795e-08
1.42484e-07
3.92568e-09
-5.16953e-10
-2.07826e-07
-5.33326e-10
2.08876e-07
7.09942e-08
-4.43157e-08
8.06911e-08
-7.1696e-11
6.22345e-08
-6.21607e-08
-2.06439e-12
-1.80478e-08
1.33138e-07
6.31993e-08
-1.7829e-07
1.61872e-07
-8.17353e-08
-8.50282e-08
4.89186e-09
1.14261e-07
3.58821e-08
-3.4384e-08
-1.1576e-07
1.54497e-07
-7.30003e-08
7.24418e-08
-1.53939e-07
3.33524e-08
1.24309e-08
1.08714e-07
-8.43959e-08
8.04604e-08
-1.53586e-07
1.19241e-07
7.05076e-10
-1.16066e-07
-3.88043e-09
-3.747e-08
-2.65594e-07
1.84634e-07
8.00708e-08
8.15226e-08
-6.37716e-09
-5.58023e-10
4.38086e-10
8.90411e-08
-8.89211e-08
-1.17948e-07
1.17955e-07
-3.06e-10
-5.72508e-08
1.14508e-07
5.916e-09
6.8578e-09
8.27921e-08
-4.60515e-09
-8.50448e-08
-1.21827e-07
5.38702e-08
8.50637e-08
-1.71072e-08
-4.19554e-08
-7.68493e-08
-9.69477e-09
-7.8629e-08
1.53419e-07
5.28074e-09
6.89746e-08
7.20054e-08
-1.36149e-07
-4.83095e-09
1.08992e-07
6.59144e-10
-1.09468e-07
-1.82214e-10
-5.78579e-09
-1.48191e-07
-1.29444e-08
1.55455e-07
-3.28981e-09
1.10949e-07
-1.1372e-07
5.49147e-08
-7.27812e-09
9.32945e-08
-4.67668e-10
-9.17513e-08
-1.0756e-09
1.1643e-07
-8.05089e-10
1.29116e-07
-4.36516e-08
7.64076e-08
4.43174e-11
-9.89947e-08
-3.33367e-09
1.06641e-07
-4.31278e-09
8.71056e-08
-4.78229e-08
-8.62207e-08
1.15791e-10
8.61395e-08
-3.45758e-11
-3.3398e-08
-1.29687e-07
1.3876e-07
2.43243e-08
-1.7399e-09
1.24379e-07
-1.22272e-07
-3.67207e-10
-8.3642e-08
-3.48638e-08
1.1918e-07
-6.73977e-10
-4.16507e-09
2.12486e-09
-1.0393e-07
-1.55861e-07
8.38259e-08
7.74808e-08
-5.44569e-09
1.85656e-10
-9.6595e-08
9.66143e-08
-2.04968e-10
1.3077e-07
-5.54075e-10
-5.90806e-11
-1.04986e-07
2.58373e-10
1.04787e-07
-8.33877e-08
1.95097e-08
7.38591e-08
1.25083e-07
-6.8556e-08
4.79223e-09
1.33353e-07
-1.32525e-07
-1.35209e-08
-1.18586e-07
1.33611e-07
1.81043e-08
-3.31289e-08
6.86162e-08
-7.00128e-08
1.43078e-07
3.83673e-09
1.06923e-07
1.43643e-07
-1.22556e-09
-1.44157e-07
6.47703e-08
-1.35393e-07
-4.04407e-09
7.46664e-08
1.36491e-07
-7.52965e-08
7.77969e-09
9.54995e-08
-9.3462e-08
-1.07293e-07
5.49365e-08
-2.91388e-08
-1.4297e-07
1.3646e-07
-1.81592e-08
2.4669e-08
1.55829e-07
4.30179e-08
-4.4138e-08
-1.54374e-07
-7.03967e-08
-2.84277e-08
7.67117e-08
2.21128e-08
-1.24252e-07
6.52518e-08
-5.15775e-08
1.10578e-07
-1.44009e-07
-3.11229e-09
1.49975e-07
-2.85317e-09
-1.02948e-07
1.94688e-08
-6.05299e-08
-1.55618e-07
-6.09651e-09
9.05227e-08
-1.39323e-09
-1.07374e-07
-4.3657e-10
-1.03394e-07
1.33347e-07
-7.03174e-08
5.83498e-09
1.48498e-07
-7.90455e-08
-7.58887e-08
6.43627e-09
-1.27241e-07
1.71176e-07
-4.40332e-08
9.79782e-11
7.8778e-08
-7.87872e-08
-1.27231e-07
9.06703e-08
7.14825e-09
-2.31905e-09
6.33038e-10
1.0007e-07
-9.96276e-08
-1.0756e-09
1.80021e-07
-4.56474e-08
-9.84917e-08
-1.03213e-07
1.12581e-07
1.09836e-07
-1.05109e-07
-2.6026e-09
-1.61055e-09
9.74961e-08
-9.6124e-08
2.38486e-10
-8.8869e-09
-1.28589e-07
1.25369e-07
1.21072e-08
-1.32749e-07
1.49145e-07
-9.63476e-09
-6.76196e-09
1.15701e-07
-2.16055e-08
-9.53006e-08
1.01828e-08
-7.38715e-09
-9.24339e-08
9.19826e-08
3.11101e-08
-6.132e-09
-1.27926e-07
-1.943e-08
1.05577e-07
-8.00142e-08
-6.13262e-09
1.51073e-07
-6.21825e-09
-1.28573e-08
-1.31997e-07
1.4817e-07
3.07471e-11
-2.26454e-09
-1.45936e-07
1.30041e-07
-1.46793e-09
-7.27119e-11
1.23699e-07
-1.23928e-07
1.87094e-10
4.17574e-11
-1.18789e-07
-7.82293e-08
1.20169e-07
2.00606e-08
-1.61548e-07
-1.06037e-07
1.05981e-07
-2.13923e-11
7.805e-11
-1.2786e-07
-6.77218e-09
1.88407e-09
-9.7557e-08
-9.85206e-11
9.76965e-08
-4.10653e-11
-1.16834e-07
-5.21698e-10
1.17421e-07
-6.49249e-11
-1.2159e-08
1.21605e-07
-9.97217e-08
-7.87473e-09
-9.80438e-08
9.78727e-08
1.1193e-10
2.77873e-08
2.70063e-08
7.70853e-08
-1.31417e-07
6.91317e-08
-6.92688e-08
1.36274e-07
-1.36137e-07
9.85624e-08
-7.77288e-08
-2.31567e-08
2.32317e-09
6.9873e-08
3.12469e-08
-1.02799e-07
3.98699e-09
5.41989e-09
-1.03217e-07
1.17236e-07
-1.94389e-08
-4.48015e-10
9.78458e-08
-9.70503e-08
-3.47438e-10
-1.3395e-07
-8.27367e-09
1.56024e-07
1.95108e-07
-8.34428e-08
1.76287e-07
1.46484e-07
-7.33379e-08
5.63239e-09
-4.06525e-08
2.42498e-08
-1.02224e-07
1.20523e-07
8.36741e-08
8.89097e-08
-7.27784e-09
8.86122e-08
6.92256e-08
-1.52368e-07
-5.46994e-09
7.80178e-08
7.55479e-08
-7.08208e-09
1.16085e-07
-7.14286e-08
7.90424e-08
7.05173e-08
-1.19443e-07
5.64675e-08
-7.54183e-09
4.60306e-10
-9.44555e-08
-1.10023e-09
9.50977e-11
-2.92355e-07
1.74027e-07
1.46694e-07
-1.056e-07
2.11467e-08
8.86896e-09
4.09444e-08
4.27733e-08
-9.25867e-08
-1.21639e-07
1.72742e-09
1.20996e-07
-1.08411e-09
-9.38209e-08
9.3457e-08
1.51172e-11
3.48786e-10
1.2091e-07
-1.56892e-07
1.85525e-07
-1.49543e-07
1.43673e-08
-1.44676e-09
1.19398e-07
-3.00462e-08
7.07779e-09
-6.95706e-08
9.2539e-08
-6.86729e-08
1.32562e-07
5.24277e-09
-1.3851e-07
7.15708e-08
7.22346e-08
-5.29502e-09
-1.04295e-07
-2.38324e-08
1.08697e-07
4.09303e-10
7.2429e-08
-8.43796e-11
-7.2754e-08
1.37986e-07
-6.34662e-08
7.34097e-08
1.18302e-09
-1.05165e-10
-3.66475e-11
-9.18896e-08
1.6754e-07
-4.4821e-08
-2.76114e-08
-9.51073e-08
1.59155e-08
2.81085e-08
-1.25884e-07
8.46672e-08
-3.25117e-08
2.13713e-08
1.51365e-07
4.77395e-08
1.57372e-07
-1.78182e-07
-5.99745e-08
-6.41116e-08
5.50004e-09
1.24519e-07
5.86512e-09
-6.80662e-08
-6.83382e-08
1.295e-07
6.90403e-09
-6.38918e-09
9.5739e-08
-1.29863e-07
-1.90813e-10
6.6552e-08
-6.7051e-09
-6.57344e-10
-1.2723e-07
4.5826e-11
1.27842e-07
-1.26365e-07
1.52501e-07
-3.69892e-08
1.04468e-08
-8.83322e-09
4.78262e-08
1.0465e-07
-1.21105e-07
7.04648e-08
-2.51671e-08
7.5807e-08
-1.32644e-07
8.94264e-08
-1.22383e-07
1.20828e-07
3.29517e-10
8.75411e-08
2.09484e-08
-1.56784e-07
-2.03861e-08
1.56221e-07
-1.72514e-07
9.46685e-08
-1.2998e-07
-1.56781e-09
1.55982e-07
2.32507e-08
6.34862e-08
-9.10901e-08
4.35329e-09
1.13108e-07
-8.09709e-08
-3.59748e-10
-9.49515e-08
1.2648e-10
-2.22529e-07
2.22585e-07
-5.88695e-10
-9.04711e-08
-9.4027e-08
-8.87367e-08
9.61673e-08
-1.05474e-07
8.00868e-08
-1.01511e-07
1.61019e-08
5.32186e-09
1.19004e-07
-8.59078e-08
-8.84678e-09
-1.46384e-07
-1.1123e-08
2.01074e-08
1.374e-07
-2.91864e-07
-3.96171e-10
-1.24931e-07
1.24315e-07
5.83391e-11
-8.87919e-08
-1.37368e-11
6.89075e-11
-1.33008e-08
-8.93006e-08
1.43183e-07
-4.05821e-08
1.01961e-07
4.9423e-09
4.12669e-08
-1.28411e-07
1.27439e-07
-3.40261e-09
-6.02114e-08
1.3976e-07
-9.29077e-08
2.5374e-10
-1.21534e-07
-3.59326e-10
8.76725e-08
-8.92988e-08
1.29444e-10
-6.31542e-08
-6.33148e-08
1.18775e-07
7.69363e-09
1.07361e-07
1.6884e-08
-9.22745e-08
-3.19707e-08
-4.58312e-09
1.4534e-07
-1.43642e-07
2.99034e-10
-1.05609e-07
-1.82585e-08
1.20975e-07
-3.83917e-11
-1.21036e-07
9.94731e-11
2.27725e-08
7.10123e-09
5.17252e-08
-8.1599e-08
-1.3536e-07
7.24083e-08
-5.11435e-09
-1.09071e-07
1.03777e-07
-7.1894e-09
-2.796e-10
1.16062e-07
3.02392e-10
-7.6735e-08
-6.88805e-08
1.38867e-07
6.74827e-09
1.2388e-07
-6.60232e-08
-6.38946e-08
6.03761e-09
1.23045e-07
-2.02459e-09
-4.53319e-11
-9.68031e-08
-8.65651e-08
9.45764e-08
-1.17437e-07
-4.41773e-08
-1.14827e-08
1.73253e-07
-1.00469e-07
2.77907e-08
-1.2222e-07
5.40833e-11
-9.98898e-08
4.81159e-10
-5.49956e-10
1.28222e-07
2.43023e-08
-2.60046e-08
-1.26519e-07
4.38512e-08
-1.22625e-07
-1.08701e-10
-8.59827e-11
3.65834e-08
-1.83629e-07
-7.46782e-08
1.25217e-07
8.50671e-08
1.94378e-08
-1.38461e-07
-1.72756e-08
1.36299e-07
-7.80679e-08
6.39693e-09
1.26557e-07
-1.26126e-07
8.77844e-08
3.95916e-08
-1.24945e-09
-4.27798e-10
1.40132e-10
-9.20913e-08
6.33356e-08
-4.64237e-09
-1.391e-09
-2.53443e-09
-2.36811e-09
9.02011e-08
-8.52986e-08
7.80296e-08
1.00478e-07
-9.83287e-08
-8.01789e-08
1.41015e-07
-1.57366e-07
1.0861e-10
3.64742e-10
1.4913e-07
-9.47882e-09
-1.3112e-07
-4.0215e-08
1.45152e-07
1.07644e-08
1.13032e-07
-1.06723e-07
-5.34303e-09
-9.66085e-10
-7.5574e-10
1.08405e-07
1.5693e-07
-5.45116e-08
-2.2675e-09
8.87103e-08
-7.87228e-08
-5.18713e-10
3.85251e-10
1.33487e-07
-1.42446e-07
3.24986e-09
1.29707e-07
8.162e-09
-1.16001e-08
1.13351e-07
-1.41978e-07
3.01513e-08
1.00582e-09
8.58082e-08
-8.33474e-10
-8.59805e-08
-1.1278e-07
1.12871e-07
-1.27686e-10
1.11037e-09
-3.26385e-10
-1.07285e-07
1.06544e-07
-1.45544e-11
-1.05515e-07
-2.20876e-10
1.27454e-10
6.82245e-08
-9.72991e-08
-7.30678e-08
1.02142e-07
5.30864e-11
-1.10927e-07
1.11044e-07
-1.70431e-10
-4.89815e-08
1.26505e-07
-4.92528e-08
-1.84097e-08
-1.34255e-07
7.02248e-08
-6.36675e-09
2.68094e-08
-1.52175e-08
1.0144e-07
-1.29939e-07
6.23206e-08
6.04377e-08
7.18114e-09
-1.50443e-07
-1.04824e-07
1.06353e-07
-1.20205e-07
-4.10335e-08
5.48861e-08
1.23903e-07
-1.2451e-07
2.61481e-10
3.46076e-10
-1.46783e-09
-1.74309e-07
5.96849e-11
1.75717e-07
-9.97697e-08
1.65184e-11
9.97148e-08
-1.21468e-07
1.18319e-10
3.13825e-10
6.90019e-08
-1.22311e-07
-6.66572e-09
9.53978e-11
-1.23811e-07
-2.11722e-10
7.31543e-08
7.27671e-08
-5.55337e-09
-7.04673e-08
-7.08846e-08
1.35058e-07
6.29406e-09
-1.11895e-07
1.01758e-09
1.10844e-07
3.30602e-11
1.18336e-07
2.92039e-08
1.05849e-07
-1.53653e-08
1.03326e-07
-5.30576e-09
-9.5068e-08
4.47649e-08
4.30925e-08
7.21063e-09
7.92691e-08
1.22071e-07
-8.82306e-08
-1.09642e-07
6.97042e-08
-6.77654e-08
-1.24815e-07
-1.00151e-07
1.09864e-07
1.15102e-07
1.04158e-07
-1.23662e-10
1.10213e-07
-1.11401e-07
1.31533e-09
-1.27832e-10
-1.2474e-07
-1.23158e-07
7.81545e-10
1.05126e-10
1.60211e-08
4.07026e-08
-1.56734e-07
1.45122e-08
-4.05475e-08
1.85858e-07
1.27278e-07
-7.11259e-08
-6.15609e-08
4.80613e-09
1.82283e-08
-1.99802e-08
1.25972e-07
-3.13994e-08
-7.45923e-08
1.01731e-07
-6.3109e-10
-1.00871e-07
-2.28749e-10
-3.87429e-08
-1.37508e-07
2.72657e-07
-9.64056e-08
9.99444e-08
-7.57344e-08
-9.59288e-10
1.32071e-10
9.79681e-08
-2.54397e-10
6.9513e-08
-6.98271e-08
1.14916e-07
-1.48661e-07
-1.23372e-07
7.50558e-08
1.19887e-07
-2.0602e-09
-2.90538e-08
-7.73013e-08
6.77869e-08
8.07208e-08
8.42244e-09
1.09738e-07
-1.20399e-07
1.61544e-09
1.41653e-07
-7.60208e-08
6.60245e-09
1.12055e-07
-1.46057e-07
1.29263e-07
-8.4415e-08
-3.03014e-08
-1.36158e-08
1.99012e-09
9.82226e-08
-1.091e-07
6.50879e-08
-1.23003e-07
-5.23896e-09
1.42844e-07
1.38615e-08
-4.11475e-08
1.20683e-07
-7.89126e-08
-2.483e-09
-2.46524e-08
1.33184e-07
-1.49064e-07
4.05328e-08
1.10485e-07
1.95742e-08
-5.26402e-08
-4.82453e-10
-1.20138e-07
1.1941e-07
-9.0191e-10
-2.8371e-08
2.16665e-08
-9.23061e-08
9.90107e-08
7.23468e-08
-1.35531e-07
-5.15392e-09
-1.29282e-07
1.2958e-07
-2.01942e-10
-7.33744e-08
1.50822e-07
-1.1619e-07
-6.93139e-08
-7.68035e-08
1.64307e-08
-9.63271e-08
-9.53526e-12
2.05669e-07
-1.35799e-08
-9.34727e-08
-1.01924e-07
-7.04385e-08
1.26672e-07
2.17746e-07
-1.97035e-10
-8.51302e-08
1.2539e-11
8.53147e-08
3.06781e-08
1.08382e-07
-8.18635e-10
1.42448e-07
5.76163e-09
9.19376e-08
5.44831e-08
2.72451e-09
7.02179e-08
-1.35311e-07
-5.3742e-09
-6.97339e-08
-7.88524e-08
1.39508e-07
9.07864e-09
-8.68748e-08
-4.15736e-09
-4.03578e-09
-1.25765e-08
-1.2234e-07
1.07644e-07
-6.93076e-11
-1.17162e-07
-3.10258e-09
1.14681e-07
-8.47923e-08
-1.2952e-07
9.1963e-08
1.22349e-07
-1.07109e-07
3.72172e-08
7.3042e-08
-3.1498e-09
6.71215e-08
6.70517e-08
-1.27229e-07
-6.9447e-09
-6.85914e-08
-6.58897e-08
1.28228e-07
6.25345e-09
4.94877e-08
4.59957e-08
-1.05376e-07
9.89276e-09
-6.40931e-08
1.06737e-07
-3.47388e-08
-7.90459e-09
1.01271e-07
-1.01674e-07
-2.54329e-10
-8.95838e-08
4.70317e-10
7.7995e-08
1.0049e-07
-2.68182e-08
-1.51667e-07
-2.96143e-08
8.43018e-08
3.66226e-08
-9.13101e-08
-9.40294e-08
3.61452e-11
9.55236e-08
-1.53032e-09
-7.02585e-08
-4.03725e-08
9.06508e-08
1.18552e-07
-3.32829e-09
6.70358e-08
-1.24775e-07
6.26674e-08
-4.92782e-09
-5.12479e-08
3.39711e-08
-1.10303e-07
1.11738e-08
1.28342e-07
-1.00361e-07
-3.91707e-08
1.18867e-07
7.6696e-08
-7.05477e-08
7.62273e-10
-1.17492e-07
-1.0468e-10
6.25608e-08
-4.93657e-08
9.85428e-08
-1.1288e-07
5.42042e-08
5.1423e-08
7.25265e-09
7.0361e-08
-4.6967e-09
3.73731e-08
6.0808e-08
7.39575e-09
8.80952e-09
1.2072e-07
-9.64263e-09
-5.39845e-09
-7.86459e-08
7.66883e-08
1.27929e-07
-7.11743e-08
-1.49168e-07
1.49713e-07
1.55861e-07
5.62122e-08
-5.3313e-08
-1.5876e-07
1.38844e-08
-1.23367e-07
1.32256e-07
-7.52119e-08
-6.91938e-08
1.3785e-07
6.55521e-09
-4.26667e-08
-1.02309e-07
1.6451e-09
6.52332e-08
-6.56394e-09
1.24489e-07
-4.53074e-10
-1.32777e-10
2.12069e-08
-8.18546e-08
8.74571e-08
1.52506e-10
1.83094e-10
-1.29618e-07
-1.30583e-09
8.7058e-08
-8.52221e-08
1.10829e-08
-8.02287e-08
1.37056e-07
-6.79098e-08
-2.64632e-08
-1.2854e-07
1.07605e-09
1.53928e-07
8.83777e-08
-1.70355e-07
6.68342e-08
1.51434e-08
-1.18001e-07
8.63781e-08
-9.33083e-08
9.64582e-08
-4.94492e-10
-9.55415e-08
-4.22195e-10
-4.38568e-08
-1.23701e-07
4.42784e-08
1.2328e-07
-7.00541e-08
-1.17067e-07
1.4306e-07
4.40604e-08
-2.85285e-09
-1.37194e-07
1.37657e-07
2.39032e-09
-1.20062e-07
1.20024e-07
-1.43018e-09
-1.37213e-07
1.21187e-07
-6.11154e-08
1.312e-07
6.81708e-08
-5.61058e-09
7.33323e-08
-1.31726e-07
-6.10494e-08
-1.21325e-07
8.34861e-08
-9.75209e-08
-1.31932e-08
1.35078e-07
-8.35674e-08
-3.36072e-08
1.15875e-07
-1.13872e-07
-3.18575e-09
1.18327e-09
-9.34422e-08
-2.31682e-09
3.86939e-09
2.33468e-10
-1.43748e-07
1.40662e-07
-8.71771e-08
-5.09699e-10
8.11912e-10
-8.85252e-08
7.44361e-08
1.45172e-08
-4.28048e-10
-5.30075e-08
-1.27179e-07
1.70993e-07
9.1932e-09
1.10826e-07
-5.58412e-10
5.45271e-08
4.59662e-08
-1.09533e-07
9.03943e-09
-1.0525e-07
-4.8516e-10
1.05531e-07
2.04171e-10
-1.02198e-07
1.44005e-08
-2.36037e-08
6.03171e-08
-1.16921e-07
4.9295e-08
7.30896e-09
-4.46819e-09
-9.03413e-08
4.33841e-09
1.38326e-09
-1.28078e-07
1.87982e-09
5.15826e-08
7.11773e-08
-1.35571e-07
2.06327e-08
1.03534e-07
1.95813e-08
1.22701e-07
-1.23228e-07
6.54682e-10
-1.27263e-10
-1.97043e-07
1.85911e-07
8.24104e-08
-7.12778e-08
5.41201e-08
-1.39923e-07
1.07347e-07
-2.15441e-08
7.14055e-08
-6.46776e-09
-6.55848e-10
1.1313e-10
5.56506e-08
-5.88733e-08
-1.11134e-07
1.57128e-07
-1.29636e-07
1.08633e-07
-1.45433e-08
5.82047e-10
-1.44038e-07
1.43588e-07
1.23766e-07
-1.50908e-07
-1.22879e-09
-8.34765e-08
-7.95849e-08
1.56709e-07
6.35273e-09
9.10457e-08
-1.52027e-11
-9.10179e-08
-1.26065e-11
-1.41427e-07
7.57173e-08
7.04064e-08
-4.69685e-09
-1.90833e-07
1.1808e-07
-1.32092e-07
2.04846e-07
-1.83743e-07
2.44778e-08
-4.38687e-08
-1.07839e-07
-1.56419e-07
9.55231e-08
3.62438e-08
-1.38506e-08
-1.22741e-07
1.33871e-07
2.72052e-09
-3.07854e-09
-1.06585e-07
-9.12594e-09
1.16757e-07
-1.01248e-07
1.06545e-07
-3.1204e-08
1.62159e-07
8.21361e-08
1.64704e-07
-1.22995e-07
-1.17009e-07
5.07903e-10
1.14716e-07
-1.15251e-07
2.7353e-11
9.86712e-08
-1.06941e-07
3.80153e-09
-7.68688e-08
-6.90445e-10
6.65681e-08
1.00576e-07
-4.26554e-08
6.18616e-08
-1.18411e-07
-4.56611e-09
-1.05814e-10
1.11522e-07
-1.1149e-07
7.40119e-11
-1.15542e-07
-1.73153e-10
1.16442e-07
-7.26108e-10
-1.17073e-07
4.26603e-08
-3.23103e-08
-1.14196e-08
9.55163e-08
7.71088e-08
-9.83182e-10
-1.71642e-07
2.59373e-09
-1.64971e-10
-1.67428e-08
7.94294e-08
-1.42325e-07
7.96386e-08
-1.22977e-07
1.24741e-07
6.43634e-08
-6.1546e-09
2.62617e-08
-1.27898e-07
-3.61094e-08
1.37746e-07
4.06312e-08
1.19601e-08
3.51055e-08
-8.76968e-08
6.79709e-08
7.37113e-08
-1.35512e-07
-6.17005e-09
-1.01902e-07
1.00189e-07
1.77851e-09
-6.56161e-11
-6.68111e-08
7.34747e-09
5.46723e-08
-5.26334e-08
1.22594e-07
-1.24633e-07
-1.02417e-07
2.15679e-07
-4.46743e-08
-6.85874e-08
8.40756e-08
-7.12942e-08
-7.33027e-08
6.05214e-08
6.68564e-08
-5.4933e-08
-1.34562e-07
5.21968e-08
8.99096e-09
5.69725e-08
7.84384e-08
7.40716e-08
7.55843e-08
-1.4333e-07
-6.3263e-09
1.32372e-07
7.89244e-09
-5.97074e-09
-1.34294e-07
1.01158e-07
8.57675e-10
-2.84444e-10
9.54447e-08
-9.70154e-08
2.18759e-09
-6.16889e-10
-6.48518e-08
-7.66667e-08
1.34325e-07
7.19386e-09
-1.19001e-07
1.51753e-09
4.09858e-10
-1.05549e-07
5.67812e-11
2.42198e-10
1.11062e-08
1.21025e-07
1.09989e-07
1.88865e-09
-1.05217e-09
4.93028e-11
-1.0155e-07
1.01016e-07
9.61518e-08
1.71161e-08
2.60682e-09
-1.12897e-08
3.55097e-08
-1.18335e-07
9.41152e-08
1.23738e-07
-1.2353e-07
-2.41947e-11
-1.83451e-10
-2.92238e-08
-1.16406e-07
1.70108e-07
-1.17795e-07
-1.9091e-08
1.41654e-07
-4.76816e-09
1.5191e-07
-1.29189e-07
-2.24182e-08
-1.99503e-08
1.26444e-07
1.24515e-07
-1.25233e-07
3.9172e-10
3.26305e-10
1.48631e-07
-4.56214e-08
-1.46221e-07
4.32117e-08
1.22392e-07
-1.2262e-07
1.45371e-07
-1.45143e-07
8.80105e-09
-1.21104e-08
-9.70941e-08
1.00403e-07
2.65735e-08
-1.01379e-07
-4.30451e-08
1.1785e-07
8.52893e-08
7.78612e-08
-1.56314e-07
-6.83661e-09
2.01178e-07
-2.12308e-07
-5.95455e-08
-1.56399e-07
1.01704e-07
-1.28637e-08
1.23175e-08
-1.8296e-07
1.58626e-07
-8.43807e-08
1.31365e-07
-2.23575e-07
1.7659e-07
7.93266e-08
-1.57497e-07
-6.2107e-09
2.0193e-08
8.8303e-08
-1.52497e-08
-9.32462e-08
-1.39216e-09
1.29557e-07
-1.40578e-08
-1.11671e-07
-5.82265e-08
1.51829e-07
-1.06062e-07
1.24597e-08
-2.7209e-08
7.88145e-08
-4.41459e-08
-7.45958e-09
3.32944e-10
-9.89498e-08
9.89817e-08
-3.64839e-10
2.62838e-09
1.23228e-07
-1.24725e-07
-1.13117e-09
-9.04173e-08
-1.24375e-07
1.37051e-07
8.30017e-08
-7.50581e-09
1.06935e-07
1.92452e-09
-4.71207e-08
-4.36769e-08
1.25078e-07
-2.30665e-07
4.20984e-08
-1.5065e-07
1.18979e-07
-7.07466e-08
1.21514e-07
-1.18458e-07
-4.27652e-10
-9.63026e-08
1.56765e-09
-2.32643e-09
9.70614e-08
6.09492e-08
-1.86897e-07
-1.44332e-07
-1.79375e-10
1.25221e-07
-1.24884e-07
-1.57549e-10
-1.08687e-07
-3.83313e-08
1.39385e-07
5.58062e-09
-8.99339e-09
1.09161e-07
-9.7717e-08
-1.10099e-08
1.42203e-07
-1.1596e-07
4.37978e-10
-2.03247e-11
6.31018e-08
-1.51174e-07
8.20087e-08
6.06362e-09
-1.47878e-09
-1.09831e-07
-1.53039e-09
1.26462e-07
5.87212e-09
-1.04157e-07
5.29649e-08
4.93262e-08
1.86561e-09
-1.04558e-07
2.88698e-08
1.42544e-07
2.48343e-10
1.34113e-07
-6.69045e-10
-1.33693e-07
6.53199e-09
1.18534e-07
-2.52893e-08
-9.97766e-08
1.41374e-07
-1.60787e-07
8.37618e-08
-6.43488e-08
4.54415e-08
1.14223e-07
-5.60024e-08
-6.63779e-09
8.21078e-08
8.58589e-08
-1.55438e-07
-1.42102e-08
-6.34542e-09
1.07348e-07
-1.2943e-07
1.14866e-07
2.45856e-10
-1.15286e-07
1.74326e-10
7.01976e-09
9.88912e-08
-3.9503e-09
7.75423e-08
-1.93095e-07
3.07599e-08
-1.30618e-07
2.48187e-09
-7.3841e-08
-6.32024e-08
1.30373e-07
6.6701e-09
-1.06379e-07
-4.92581e-08
3.33814e-08
1.22256e-07
-1.17708e-07
-6.2634e-10
-6.66174e-10
-6.87973e-08
1.45629e-07
-8.267e-08
5.83807e-09
7.43818e-08
-1.47152e-07
7.59357e-08
-3.16592e-09
-1.11574e-07
-2.74411e-10
1.01433e-07
-1.04041e-07
4.53635e-09
-1.92837e-09
1.49362e-07
-8.36858e-08
8.70602e-09
-1.13973e-07
1.91458e-08
-1.90455e-08
5.83095e-08
-9.6352e-08
-2.16695e-08
1.23697e-07
-1.22889e-07
-2.25426e-10
6.75862e-08
6.01358e-08
-6.03473e-08
-6.73747e-08
7.85561e-08
1.46194e-07
-1.57629e-07
7.80912e-08
6.69982e-08
-1.40194e-07
-4.89554e-09
-1.15375e-07
6.08662e-08
4.70256e-08
7.48333e-09
1.76418e-10
1.24195e-07
1.43275e-10
7.89255e-08
7.38251e-08
-1.47006e-07
-5.74416e-09
1.04138e-07
1.15607e-07
-9.46374e-09
-1.02553e-07
-3.59013e-09
9.44811e-08
4.92748e-11
1.45012e-07
-1.46759e-07
-7.98707e-08
8.16173e-08
4.93378e-08
5.88864e-08
7.38285e-09
-6.32111e-09
-1.84617e-07
1.83784e-08
1.05355e-07
-3.60989e-09
6.15777e-09
1.4986e-07
1.28728e-07
-2.18271e-07
-1.21204e-07
1.08923e-09
-1.45248e-09
1.21567e-07
5.91353e-10
9.86172e-08
-9.90939e-08
-1.14624e-10
-7.84446e-08
1.78265e-07
-1.75033e-07
5.16106e-08
1.21228e-07
-6.42948e-08
-1.08544e-07
4.55875e-08
5.82698e-08
-1.11202e-07
7.34425e-09
1.47052e-07
-1.09246e-08
2.05816e-08
-1.32376e-07
-5.69868e-09
3.91574e-08
-1.30422e-07
-1.89494e-08
-9.29744e-08
-1.10488e-07
1.04304e-07
1.99638e-08
-5.02637e-09
-1.99718e-08
9.58622e-08
2.84137e-08
7.91047e-08
-7.69831e-08
-2.52183e-09
1.23837e-07
3.20698e-09
1.18768e-10
4.48536e-10
-2.14168e-07
-1.53591e-08
-2.39271e-10
1.51891e-07
1.48197e-08
-1.59176e-07
-1.29402e-08
2.68328e-07
-1.18468e-07
-1.3692e-07
-1.64903e-07
1.33867e-07
1.1256e-07
-1.42433e-07
-6.69729e-08
7.284e-08
-7.46266e-08
6.87596e-08
1.16845e-07
-1.20603e-07
-3.69142e-09
7.44918e-09
-3.76388e-09
-6.2802e-08
7.77758e-08
-1.79877e-07
-7.86708e-08
6.38969e-08
1.9366e-08
-1.18465e-07
2.5527e-07
-4.08904e-08
-9.71897e-08
-1.3094e-08
-7.57849e-08
1.52299e-07
2.04171e-09
-3.25061e-08
-6.97841e-08
8.78759e-08
1.44143e-08
3.86965e-08
-1.74015e-07
7.90475e-08
5.62714e-08
-1.05629e-07
1.05431e-07
-4.53014e-11
2.43843e-10
9.11018e-08
-2.53056e-10
1.33819e-08
1.23158e-07
1.11435e-07
-7.11623e-09
-8.26523e-08
-1.52806e-07
1.82244e-08
7.85688e-10
1.34507e-07
-8.67715e-08
1.32001e-07
-4.19877e-08
-5.96583e-09
3.05062e-09
1.23776e-07
-2.98993e-09
1.02647e-07
3.84572e-08
-1.50725e-07
-2.91587e-08
-1.22361e-07
-1.06059e-07
-8.30581e-08
4.27328e-08
-1.10983e-08
1.07237e-07
-8.35428e-09
-9.23767e-08
-1.06114e-07
-3.16265e-09
9.30337e-08
-1.19351e-07
9.73642e-08
-6.18202e-10
-9.62013e-08
-5.4466e-10
-2.52426e-08
-1.45539e-07
-1.739e-07
1.7348e-07
1.12628e-07
-4.71964e-08
1.15551e-08
-7.69866e-08
1.11079e-07
-5.64893e-10
-1.10449e-07
-6.50524e-11
9.70604e-10
1.00892e-07
-1.02098e-07
2.35321e-10
2.83923e-08
1.1742e-07
-3.5823e-08
-7.69534e-08
-8.0721e-08
1.05228e-08
7.54882e-09
1.07272e-07
-1.10774e-07
-4.04656e-09
-1.21971e-07
1.31948e-07
-2.4288e-09
-1.31404e-07
-3.18205e-09
-1.44948e-07
1.46825e-07
-5.46359e-08
-8.2904e-08
1.4366e-07
-6.11991e-09
1.05222e-07
-1.48457e-08
6.281e-10
-1.22952e-10
4.52526e-08
1.15401e-08
-4.73018e-10
-4.5315e-10
7.38156e-08
8.06986e-08
-5.88321e-09
-3.27423e-08
9.74382e-08
7.6256e-08
-2.73203e-07
-1.02018e-07
2.41936e-07
1.3258e-07
1.25139e-07
-5.31836e-08
-7.95344e-08
6.50715e-09
-5.34727e-10
-1.22356e-07
-3.37062e-10
5.32392e-08
6.18869e-08
-1.14012e-07
-1.11355e-09
-1.1183e-07
1.1169e-07
1.17563e-10
2.26351e-11
1.02841e-07
3.12571e-08
-1.32698e-08
1.58781e-09
1.88674e-07
-4.35163e-09
-5.17673e-08
-7.95994e-08
-3.19546e-09
-9.47471e-08
-2.22515e-08
7.27148e-10
1.0386e-07
-1.0373e-07
7.59314e-08
-1.8518e-07
1.04427e-07
-1.01656e-09
-5.69905e-10
6.85909e-08
6.32912e-08
-1.28129e-07
-3.75265e-09
-1.57445e-07
7.88488e-08
-2.20671e-08
-2.56898e-08
-3.50547e-08
1.22248e-07
-6.15029e-08
-2.83469e-08
6.92401e-08
2.95132e-08
-1.35375e-07
-8.6926e-08
9.11818e-08
1.31119e-07
7.4526e-08
-5.91892e-09
6.3325e-08
1.25195e-07
-5.18882e-08
-1.36631e-07
-3.5873e-09
1.12095e-07
1.44386e-08
-1.22946e-07
1.06829e-07
-9.09929e-08
-1.97494e-08
3.91297e-09
1.37152e-07
-1.83634e-07
1.6971e-07
1.37638e-07
-6.69311e-08
-6.4109e-08
-6.59796e-09
4.0606e-08
-1.63396e-07
-1.15849e-07
-1.17427e-07
-6.62047e-11
-1.80949e-07
1.5269e-07
-1.57753e-07
1.86011e-07
8.2187e-08
-1.44527e-07
-2.59175e-08
1.1599e-07
-1.15027e-07
-4.7366e-10
-4.88868e-10
5.82737e-08
-1.15609e-07
-5.46701e-09
-6.11153e-09
8.33977e-08
-1.73169e-07
7.34055e-08
-1.30956e-07
-6.5952e-11
3.14911e-10
1.30707e-07
-1.63539e-07
1.31574e-07
-9.62733e-08
-8.18351e-08
-2.89093e-08
-7.0455e-09
5.76916e-08
6.74752e-08
-6.18756e-09
-5.12642e-08
-5.8479e-08
-5.6319e-09
-3.56801e-09
-9.9117e-08
-9.75109e-08
-9.84616e-10
-5.66119e-09
6.74873e-08
-6.70492e-08
5.88872e-10
-1.02701e-09
1.03644e-07
-1.01708e-07
-1.28233e-09
-6.54031e-10
-1.132e-09
1.23136e-07
-1.21824e-07
-1.7943e-10
-1.27918e-07
1.34907e-08
1.08644e-07
5.78354e-09
1.22603e-07
-1.16519e-07
-4.20482e-09
-1.87937e-09
-1.03828e-07
-1.06541e-09
1.0553e-07
-6.37027e-10
-1.00279e-07
-6.11266e-08
9.28692e-08
3.26754e-08
-9.16012e-09
-1.16384e-07
7.33437e-08
-7.77248e-08
3.56974e-09
8.11394e-10
4.33481e-08
3.59929e-08
-1.23198e-07
1.05536e-07
-1.02768e-07
-7.05338e-09
4.2855e-09
-4.8929e-08
4.95861e-08
1.46915e-07
4.93283e-09
1.23124e-07
-9.21835e-08
1.17198e-08
-2.66974e-08
-1.11278e-08
-9.75497e-08
-3.20064e-08
1.88066e-07
5.94337e-09
-1.62695e-07
1.25161e-07
-3.21732e-08
-1.86306e-08
2.0504e-08
-7.6818e-08
5.56054e-09
-1.2028e-07
1.20159e-07
5.64535e-08
-6.77939e-08
-2.90321e-08
7.49439e-08
2.28762e-09
6.25107e-08
5.54597e-08
-7.73392e-08
-7.98276e-08
1.10166e-07
-1.22344e-08
-6.78119e-08
5.67474e-09
9.02465e-08
1.09706e-08
2.15121e-08
2.34383e-08
-1.02258e-08
4.95949e-08
5.77184e-08
6.90946e-09
-4.70809e-08
1.54267e-07
-1.60194e-07
-1.67191e-07
8.33202e-08
2.11713e-07
-1.42647e-07
1.02114e-07
-3.06974e-08
5.87107e-08
-1.30127e-07
-1.1942e-07
-4.12076e-08
-1.39073e-07
-5.50943e-09
-9.75187e-08
7.74004e-08
-8.50667e-08
1.05185e-07
7.97123e-09
-1.14462e-07
-1.3558e-07
-7.15345e-09
-4.02611e-09
-1.22671e-07
1.1093e-07
1.18571e-07
1.87449e-08
9.92857e-08
2.039e-09
-1.27789e-07
1.18139e-07
-8.1806e-08
9.14561e-08
-9.847e-08
1.26435e-08
-1.97221e-08
-3.35091e-08
-3.39022e-08
1.25771e-07
-4.81811e-08
-1.08315e-07
-4.12959e-08
1.21026e-08
-6.84358e-08
-8.20431e-08
7.50905e-09
-6.69602e-08
7.69685e-08
7.7057e-08
2.24197e-08
4.09244e-08
-1.40401e-07
8.24944e-08
-4.45489e-09
-6.61579e-08
-4.84979e-09
-7.74417e-08
-8.6079e-08
6.07559e-09
6.04471e-08
-6.97593e-08
-4.65316e-08
5.58438e-08
-4.79611e-08
-8.51288e-09
1.4051e-07
-1.77414e-07
3.73551e-08
-4.50777e-10
-7.73234e-09
2.59374e-08
7.59434e-08
-9.41485e-08
4.7044e-10
-9.00113e-08
-6.90986e-10
9.02319e-08
-9.71297e-08
9.68677e-08
1.32708e-10
1.29326e-10
1.25e-07
-6.90709e-08
-1.26813e-07
-5.91083e-08
-3.67492e-08
9.74894e-08
-1.63182e-09
1.47751e-07
1.11714e-08
-1.11061e-07
5.47707e-09
-1.33598e-07
1.63745e-08
-4.86785e-10
-1.7209e-07
-1.10536e-07
1.10798e-07
-3.28249e-10
5.99111e-08
9.28727e-08
-1.38052e-07
-1.23542e-08
-1.4903e-08
2.21952e-07
-6.04774e-10
-1.17883e-07
-2.74721e-09
9.42092e-08
-9.3192e-08
-1.13488e-11
-5.52577e-09
1.4731e-08
2.52902e-08
1.17075e-07
-1.99964e-08
1.11667e-07
-9.02695e-09
-3.18313e-09
1.22625e-07
-1.17991e-07
-1.45151e-09
-1.01969e-07
1.11808e-07
-5.97919e-09
1.16574e-07
5.1801e-09
-3.03839e-08
-9.13707e-08
1.13504e-07
1.54638e-09
-1.12994e-07
-2.05607e-09
-6.81771e-08
-5.14895e-08
6.78993e-08
8.60798e-08
1.60054e-09
1.50902e-07
1.8648e-08
-3.44919e-08
-1.39853e-08
3.66446e-09
-7.48093e-08
1.17799e-07
-1.65708e-07
-2.30107e-07