/*--------------------------------*- C++ -*----------------------------------*\
| =========                 |                                                 |
| \\      /  F ield         | OpenFOAM: The Open Source CFD Toolbox           |
|  \\    /   O peration     | Version:  2212                                  |
|   \\  /    A nd           | Website:  www.openfoam.com                      |
|    \\/     M anipulation  |                                                 |
\*---------------------------------------------------------------------------*/
FoamFile
{
    version     2.0;
    format      ascii;
    arch        "LSB;label=32;scalar=64";
    class       volVectorField;
    location    "0.016";
    object      U;
}
// * * * * * * * * * * * * * * * * * * * * * * * * * * * * * * * * * * * * * //

dimensions      [0 1 -1 0 0 0 0];

internalField   nonuniform List<vector> 
31639
(
(0.115569 0.000707578 -0.000529829)
(0.113999 -0.000263373 0.00011606)
(0.115059 -0.000194718 0.000559181)
(0.116951 0.000124773 9.69733e-06)
(0.114254 -0.000569347 -0.00017857)
(0.114361 0.000140371 -0.000129097)
(0.112616 5.74686e-05 -0.000347943)
(0.114903 -0.00010545 -0.00012447)
(0.114932 0.000148899 -0.000164368)
(0.116141 -0.000215373 -0.000372109)
(0.116369 0.000416227 -0.00020795)
(0.115919 -0.000409149 -0.000569285)
(0.114466 -0.000202758 1.96034e-05)
(0.115798 7.37115e-05 3.23491e-05)
(0.113407 -0.000370168 2.02039e-05)
(0.112786 -0.00023149 0.000553427)
(0.114465 0.000201213 -4.68783e-06)
(0.112596 1.78546e-05 0.00024074)
(0.113064 0.000173378 -0.000372173)
(0.114677 -4.85056e-05 -0.000106402)
(0.109429 -0.000225243 -0.000252545)
(0.11597 -8.54251e-05 -0.000304749)
(0.116011 0.000526192 -5.77574e-05)
(0.113365 0.000183507 -0.000151435)
(0.112244 -9.01503e-05 -0.000135016)
(0.114911 7.31071e-05 -2.87756e-05)
(0.114723 1.37022e-05 3.32665e-06)
(0.117785 0.000238464 -8.86542e-05)
(0.112839 0.000350157 0.000607132)
(0.115679 0.000133464 0.000419122)
(0.116315 -8.57654e-05 -9.09944e-05)
(0.112453 -0.000108807 -0.000137034)
(0.116259 0.000291702 -0.000453986)
(0.113194 -3.51452e-05 -0.000153421)
(0.110569 -0.000102426 2.1207e-05)
(0.116192 0.000467663 -8.97141e-05)
(0.108461 -0.000178406 -7.35153e-06)
(0.116742 -0.000298697 0.000278004)
(0.116212 -0.000151014 0.000175482)
(0.108519 7.54189e-05 -8.87956e-05)
(0.111278 -6.3525e-05 -0.000238276)
(0.11006 -0.000223729 0.000152366)
(0.115849 0.000162837 -4.19186e-05)
(0.116454 -0.000632347 -0.000647018)
(0.115381 -0.000395854 0.00055676)
(0.116843 -0.000579462 -0.000321578)
(0.112756 0.000286602 -0.000151027)
(0.113819 0.000439251 -0.00035315)
(0.114279 2.25839e-05 0.000193888)
(0.116574 -0.000327034 -0.000176455)
(0.116634 -1.55339e-05 -0.000262007)
(0.10941 0.000249271 -0.000115254)
(0.116331 0.00033978 9.56898e-05)
(0.108762 -9.33585e-05 0.000167341)
(0.114207 -0.000159786 -0.00018701)
(0.114027 8.22036e-05 5.93226e-05)
(0.110081 5.03981e-05 -0.000473122)
(0.114629 0.000137255 0.000346546)
(0.114446 -1.8407e-05 0.000342991)
(0.110499 0.000134123 -0.000151111)
(0.114941 -9.85079e-06 -0.000242322)
(0.115411 0.00033543 -0.000216889)
(0.112262 -0.000136564 -0.00029994)
(0.114477 6.74414e-05 -0.000107734)
(0.114854 0.000239541 2.56623e-05)
(0.116792 -5.77722e-05 -0.000476324)
(0.114495 0.000140465 -0.000803852)
(0.114488 -0.000161324 4.38188e-05)
(0.111274 -2.32955e-05 -0.000183638)
(0.116668 0.000347839 -0.000190105)
(0.115962 -2.38184e-05 -0.000114818)
(0.112521 -4.18883e-05 -0.000835337)
(0.116087 -0.000323159 -0.000575885)
(0.114803 -4.53926e-05 -0.00018554)
(0.115343 0.000186688 -6.96925e-05)
(0.109298 8.92431e-05 -0.000544269)
(0.116597 -0.000608988 0.000222353)
(0.113638 0.000280221 -0.00041538)
(0.114146 -0.000131429 0.000320798)
(0.115454 0.000197962 -4.56126e-05)
(0.112381 0.000120023 0.000123817)
(0.107475 4.68853e-05 8.11131e-05)
(0.116389 -8.64269e-05 -1.65376e-05)
(0.115234 -0.000193689 -0.000169004)
(0.114986 -3.60389e-05 -0.000113457)
(0.116434 -0.000300308 -0.000247403)
(0.116785 6.55502e-06 9.38833e-05)
(0.116711 -5.46382e-05 -0.000224185)
(0.110017 0.000836166 -0.00115985)
(0.116139 -0.000104299 -0.000354857)
(0.115111 -0.000101444 0.000177681)
(0.113578 -0.000312008 -0.000143911)
(0.110706 -0.000333704 -0.000268347)
(0.113722 0.000365079 -0.000516471)
(0.112275 -0.000619693 -0.000292742)
(0.113555 0.000836111 0.000171562)
(0.114423 0.000275287 -0.0003223)
(0.114753 -8.10902e-05 0.000269683)
(0.114551 0.000108595 5.9723e-05)
(0.110228 -0.000600781 -0.000134808)
(0.115185 3.81958e-05 -6.7075e-05)
(0.115257 0.000271682 0.000468357)
(0.113548 -0.000167875 -0.00015811)
(0.109259 3.77075e-05 -0.000150404)
(0.110387 6.73544e-05 -0.000330277)
(0.116955 -0.000405022 -0.000250522)
(0.109053 0.000395457 -0.000346356)
(0.109731 -0.000457156 -0.000638278)
(0.111709 0.000416977 6.93778e-05)
(0.108796 2.4729e-06 0.000341664)
(0.115733 -0.000645977 0.000122958)
(0.110706 -8.28333e-07 -0.000215977)
(0.114255 -0.000143759 -0.000296164)
(0.113128 -0.000424983 -0.000473319)
(0.114908 0.000125318 -0.00049181)
(0.109527 -0.000315079 0.000189622)
(0.113375 0.000324722 -0.000120422)
(0.112928 -0.000441602 -2.32888e-05)
(0.115116 -5.42997e-05 -2.56974e-05)
(0.114246 -0.000149583 0.00013286)
(0.114653 -0.000442954 -2.61604e-05)
(0.116065 -0.00042232 0.000343156)
(0.11642 0.000135999 -0.000455352)
(0.114936 0.000325747 -0.000607088)
(0.114788 6.93569e-06 -0.000655898)
(0.115793 -0.000186118 2.78494e-05)
(0.114303 4.67785e-05 0.000269498)
(0.112264 0.00024991 -0.000143058)
(0.112166 -0.000485285 -0.000171658)
(0.116069 -0.000195352 8.98225e-05)
(0.115843 -4.61683e-05 -0.000188716)
(0.116187 0.000203249 -0.000306747)
(0.115841 -0.000229571 5.55731e-05)
(0.114116 -2.21438e-05 5.0929e-05)
(0.115794 -1.80973e-05 -0.000161268)
(0.114883 -1.31291e-05 2.60615e-07)
(0.110412 -7.66112e-05 -0.000267141)
(0.109859 -0.000665151 -0.000317016)
(0.116448 0.000446004 0.000448431)
(0.114663 -0.000267972 -0.000237459)
(0.114501 -2.11159e-05 -0.000160011)
(0.116666 0.000127439 0.000816753)
(0.116227 0.000395927 0.000119789)
(0.109288 -0.000175365 -0.000310495)
(0.109683 -0.000163701 -0.000572335)
(0.115682 -0.000151542 2.16341e-07)
(0.115693 -0.000260144 -0.000253799)
(0.110112 -9.34632e-05 -0.00030879)
(0.110694 -4.19872e-05 6.62131e-05)
(0.115835 -0.000194354 -0.000160847)
(0.112279 -1.91918e-05 -0.000784528)
(0.113973 0.000137505 6.81695e-05)
(0.113628 -0.000110406 -0.000612953)
(0.115541 -0.000100829 -8.93206e-05)
(0.110735 0.000606635 -0.000803558)
(0.116855 -3.93617e-06 0.000103237)
(0.11494 -0.000115027 -0.000199898)
(0.111522 -0.000958286 2.0809e-05)
(0.110578 -0.000629972 0.000753906)
(0.113059 -0.000286824 -0.000239413)
(0.116687 -5.781e-05 -0.000371228)
(0.109513 0.000233021 0.000146074)
(0.110942 1.61932e-05 -0.000815185)
(0.10995 -0.000240382 0.000107545)
(0.109807 -0.000887513 0.000210732)
(0.113332 4.1309e-05 4.18307e-05)
(0.109955 0.000453685 0.000127448)
(0.116195 -0.000547476 0.00013712)
(0.116511 -0.000361772 0.000136049)
(0.109809 0.000141277 -0.000511011)
(0.11171 -0.000352872 0.000268401)
(0.114026 0.000397519 -0.000557931)
(0.110476 -8.56125e-05 -8.59727e-05)
(0.114883 -0.000115844 0.000353704)
(0.116749 -0.000189529 -0.000297336)
(0.115464 -0.000495682 -0.000258844)
(0.114779 0.000512144 6.71692e-05)
(0.115953 0.000188375 0.000281444)
(0.115118 -0.000339463 -4.42953e-05)
(0.114144 -0.000175718 -0.000282547)
(0.114516 7.47188e-05 -0.000129308)
(0.113578 -0.000478234 0.000608805)
(0.113721 0.000225701 0.000148599)
(0.108695 0.000943547 -0.000292809)
(0.114491 2.83501e-05 0.000347158)
(0.116183 0.000529319 -0.000379957)
(0.113469 -0.000125332 0.000320255)
(0.115824 0.000210833 -3.02336e-05)
(0.110598 -0.00023166 4.36417e-05)
(0.109181 -0.000125165 0.000285085)
(0.11645 -6.16697e-05 -0.000243346)
(0.115725 -0.000175158 -2.15212e-05)
(0.114288 -0.000285872 0.000533194)
(0.114416 -3.34854e-05 0.000192653)
(0.114838 6.82778e-06 -0.000121645)
(0.113863 1.15167e-05 -0.000324386)
(0.113598 0.00052417 0.000381673)
(0.116057 0.000225862 -0.000199444)
(0.110266 1.85559e-05 -0.000177233)
(0.113328 0.000290156 -0.000197852)
(0.116474 0.000109321 1.2978e-07)
(0.116082 -0.000207263 -0.000152398)
(0.115398 -0.000403755 -1.86771e-05)
(0.114991 -0.0009853 -0.000156783)
(0.114163 -0.000400034 -0.00024279)
(0.114144 -7.97279e-05 -0.000260394)
(0.114597 -0.000116738 -0.000227968)
(0.114035 0.000303061 -0.000273429)
(0.115702 -2.94616e-05 -0.000291444)
(0.109345 -0.000114271 -9.98552e-05)
(0.114608 1.66889e-05 -0.000139554)
(0.113531 0.000446378 -0.000111466)
(0.114697 -2.58047e-05 -0.000345303)
(0.115658 1.41876e-05 -0.000396752)
(0.115123 -0.000322397 -0.000357803)
(0.116163 -9.33012e-05 -0.000203234)
(0.110745 -0.000896566 -0.000275067)
(0.112322 -0.000273853 0.000247865)
(0.115714 -0.000257081 -0.000270969)
(0.116534 -0.000184566 0.000199893)
(0.115925 2.37988e-05 0.000151775)
(0.113846 -0.000263781 -0.000455791)
(0.108298 -4.01552e-05 0.000654823)
(0.114463 -0.00059535 0.000377213)
(0.109751 -0.000236068 -0.000238165)
(0.112663 0.000231365 -4.02789e-05)
(0.115764 -0.000335373 0.00037273)
(0.112415 0.000374082 0.000416558)
(0.109667 0.000308125 -0.00018396)
(0.114458 9.08937e-05 0.00014817)
(0.115224 0.00019817 -0.000179114)
(0.116407 -0.000130546 -6.71534e-05)
(0.110071 -6.62861e-05 -9.80894e-05)
(0.109106 -0.000361005 0.000116738)
(0.114798 -0.000278739 0.00018176)
(0.115762 9.47369e-05 -0.000484139)
(0.110207 7.31388e-05 0.000383543)
(0.116125 -0.000722328 0.000195844)
(0.111889 7.3374e-05 -0.000353231)
(0.110471 -0.000213171 0.000117795)
(0.114406 0.000165221 -0.000149215)
(0.115127 -0.000162028 -3.6565e-05)
(0.113602 -0.000658213 7.04285e-05)
(0.111979 0.000278607 0.000726332)
(0.112462 0.000123878 0.000189478)
(0.114169 -0.000102585 -8.6342e-05)
(0.114158 0.000443735 -0.000193626)
(0.112951 0.000120293 -0.00057737)
(0.109845 -0.00039659 0.00038677)
(0.114361 0.000232507 -0.000282269)
(0.114416 2.42822e-05 -0.000298792)
(0.111248 -0.000191133 -7.10265e-05)
(0.112434 -0.000751135 3.99413e-05)
(0.116024 -2.44077e-05 -7.03952e-05)
(0.116394 0.000478244 3.80174e-05)
(0.113995 0.000545427 -0.000135247)
(0.110537 2.38781e-05 -2.38675e-05)
(0.116235 0.000233488 -0.000220821)
(0.115502 0.000293146 -0.00048685)
(0.113578 -0.00026583 -0.000407625)
(0.116882 0.000245588 0.000642504)
(0.1167 0.000144411 -0.000275649)
(0.115211 0.000143088 -0.000423157)
(0.116385 0.000109803 8.67913e-05)
(0.113808 0.000309727 5.42199e-05)
(0.11372 -0.000233659 -0.00056511)
(0.109244 0.000312757 -0.00127698)
(0.112517 -0.000177247 -0.000193853)
(0.116134 -0.000538313 9.2911e-05)
(0.11345 9.69904e-06 0.000331048)
(0.11537 0.000247253 4.86057e-05)
(0.113586 0.000421345 -0.000480212)
(0.114268 -0.000194915 7.40702e-05)
(0.11492 0.000312123 0.000240446)
(0.116687 0.000178765 -0.000424577)
(0.114855 0.000477584 0.000185123)
(0.109891 9.48008e-05 1.11409e-05)
(0.113385 4.12574e-05 2.38078e-05)
(0.11138 0.00114793 -0.000271767)
(0.116627 -4.42188e-05 -0.000628219)
(0.113467 -0.000491218 -0.000218734)
(0.11559 -4.93482e-05 -0.000417615)
(0.114756 -1.62548e-06 -0.00033282)
(0.11237 -4.5013e-05 -0.000436405)
(0.109812 3.67032e-05 -2.89232e-05)
(0.110797 0.000178302 -0.000476942)
(0.110616 0.000162113 7.34953e-05)
(0.109376 -0.000196678 8.26915e-05)
(0.116811 -0.000336926 -0.000193929)
(0.110324 -0.000318386 -0.000475034)
(0.115055 -0.000220851 0.000245667)
(0.115044 0.000418042 -0.00011655)
(0.113179 -4.92218e-05 -0.000153369)
(0.111022 -4.76348e-05 -6.01453e-05)
(0.116136 -0.000631763 0.000136019)
(0.113467 9.10641e-05 -0.000624958)
(0.11179 0.000122261 0.000449194)
(0.115908 0.000266152 -0.000302723)
(0.114481 -0.000173207 -0.000110816)
(0.110717 0.000309556 0.000261723)
(0.113786 3.31865e-05 -0.000142756)
(0.110539 0.000190045 4.04355e-06)
(0.1148 0.000338671 -0.000155642)
(0.114221 0.000152693 -0.000115187)
(0.110819 0.000263598 0.000605557)
(0.11376 1.12787e-05 -0.000245145)
(0.113669 0.000667685 0.000234544)
(0.108253 0.000108943 -0.000926145)
(0.108578 0.000337768 0.000310539)
(0.115671 -0.000474002 0.000196727)
(0.116421 0.000156369 -2.10987e-05)
(0.116693 7.93684e-05 -9.03385e-05)
(0.109665 0.000124767 5.12142e-05)
(0.110759 5.39135e-05 0.000275032)
(0.116143 0.000217505 0.000229997)
(0.111907 -0.000200198 -0.000179304)
(0.111462 0.000561836 -0.000617904)
(0.115824 0.000182143 0.000435482)
(0.116082 -0.000277098 -0.000138078)
(0.113433 -0.000601975 -1.44831e-05)
(0.115905 -0.000763029 -0.000296805)
(0.116763 -2.81656e-05 -0.000226018)
(0.110204 -0.000111637 -0.000163919)
(0.116802 -0.000609602 -0.000390163)
(0.108597 0.000360922 -0.000105975)
(0.109386 -2.42146e-05 -7.84632e-05)
(0.116335 -0.000388615 -0.000187171)
(0.115789 -0.000465271 -0.000104081)
(0.116787 0.000129835 -0.000394396)
(0.116612 0.000539068 -0.000643724)
(0.115334 2.49141e-06 -0.000412302)
(0.111372 0.000908566 -0.000399624)
(0.113124 -0.000685394 0.000494719)
(0.114311 -8.81752e-05 5.35237e-05)
(0.11551 -0.0007239 0.000182017)
(0.116313 0.000712249 0.000380843)
(0.116236 -0.000487393 0.000177984)
(0.114446 0.000167759 -0.000121762)
(0.112999 -0.000616582 0.00045663)
(0.114087 -0.000177985 2.59929e-06)
(0.116285 0.000112885 -0.00020787)
(0.115244 -9.0309e-05 -0.000758832)
(0.113266 9.19228e-05 -0.000315195)
(0.114493 -0.000259872 -9.65336e-06)
(0.114296 0.0005076 -0.00033304)
(0.113475 -0.000272423 -0.000222408)
(0.115378 -0.000126371 -0.000105932)
(0.113417 -0.000555875 0.000548307)
(0.110426 -9.06895e-05 8.14959e-05)
(0.114188 0.000370565 -0.000460735)
(0.115953 -0.000129116 -0.000167958)
(0.112976 9.05465e-05 -0.000162454)
(0.11519 0.000211733 0.000103449)
(0.116151 -0.000518167 0.000107427)
(0.114913 2.06641e-05 -6.33735e-05)
(0.111021 0.000452406 -0.000208089)
(0.114382 0.000200648 -0.000346648)
(0.113784 0.000222136 6.9299e-05)
(0.109505 0.000244422 -0.000373018)
(0.115567 -0.000660666 8.84784e-05)
(0.109729 0.000354957 0.000306918)
(0.114738 -8.94594e-05 -0.000349934)
(0.1163 -0.000577061 -6.25799e-05)
(0.110052 -0.000203327 6.87334e-05)
(0.114626 0.000244569 2.4021e-05)
(0.114091 0.000230346 0.000445099)
(0.109924 -0.000178056 0.00017531)
(0.114693 -0.000103318 -7.02148e-05)
(0.110983 5.56254e-07 -0.00025603)
(0.113674 -5.1256e-05 0.000464763)
(0.115955 0.000457532 9.6082e-05)
(0.114714 -2.40028e-05 0.000197219)
(0.109265 0.000288284 -0.000149482)
(0.115239 0.00012183 -9.94505e-06)
(0.110713 0.000195679 -0.000386558)
(0.115231 -0.000148404 -3.97513e-05)
(0.115386 0.000208411 6.00075e-05)
(0.115576 -0.000385806 -0.000270632)
(0.116128 -0.000225856 -0.000422619)
(0.110157 -2.64324e-05 -0.000304241)
(0.115747 -0.000741205 0.000199473)
(0.109817 -2.98429e-05 -0.000452916)
(0.11409 0.000107298 -0.000219762)
(0.110102 0.000177168 -7.62912e-05)
(0.116791 -5.72552e-05 -8.84821e-05)
(0.11656 4.27319e-05 -0.000134183)
(0.116869 -0.00014915 4.59677e-05)
(0.11646 -0.000410914 -0.000431695)
(0.114008 -0.000153438 -0.000133992)
(0.115472 5.34575e-06 0.00010442)
(0.114541 0.000168444 1.029e-05)
(0.114491 2.86956e-05 -0.000148266)
(0.114543 0.000155851 -0.000316646)
(0.110729 9.00558e-05 8.07857e-06)
(0.115135 -0.000204081 -0.000224803)
(0.114328 -0.000263981 -0.000126306)
(0.114793 -0.000260274 -0.000237795)
(0.115919 0.000116268 -8.12011e-06)
(0.11528 -4.04423e-05 -0.000431632)
(0.115344 3.03221e-05 9.09084e-05)
(0.113576 -0.000413563 7.89344e-05)
(0.109509 -5.31386e-06 0.00050525)
(0.113512 9.84588e-05 0.000354352)
(0.115512 4.82224e-05 7.7398e-06)
(0.115325 -0.000179604 0.000185276)
(0.109964 -0.000379764 -0.000323362)
(0.116544 4.15309e-05 -0.000311646)
(0.116326 3.0142e-05 -0.00049586)
(0.113729 5.65761e-05 -0.000553876)
(0.115874 -0.000228603 -0.00044585)
(0.116215 -8.53091e-05 -0.000712755)
(0.114888 -7.78717e-05 -0.000354357)
(0.115557 -0.000151853 -4.68044e-05)
(0.109688 -0.000189594 -0.000102985)
(0.114931 -0.000131888 7.82387e-05)
(0.115624 -0.00026959 0.000212682)
(0.108542 0.000121846 -0.000125427)
(0.11425 -0.000397305 9.32213e-05)
(0.115214 -0.000323618 -0.000236607)
(0.11173 0.000156267 8.2934e-05)
(0.109553 -0.000206254 -0.000117228)
(0.10972 -0.000139776 0.000480648)
(0.113027 -0.000689997 6.62012e-05)
(0.109428 4.78728e-05 -3.7782e-05)
(0.114048 -1.044e-05 0.000159055)
(0.114684 -0.000174146 8.12103e-05)
(0.11208 0.000428813 0.000278393)
(0.115258 0.000462144 -0.000236755)
(0.110461 -0.000118223 1.94142e-05)
(0.115539 0.000337972 0.000252363)
(0.116925 7.83219e-05 1.11447e-05)
(0.114411 -0.000105209 -2.77331e-05)
(0.115153 -1.37231e-05 0.000355113)
(0.113457 -3.3675e-05 -1.10806e-05)
(0.116386 0.000535667 -0.000305596)
(0.114868 0.000434822 -0.000119828)
(0.114003 1.2096e-05 -0.000472022)
(0.116933 -2.27107e-05 -0.000317211)
(0.114746 -0.000159372 -0.000274454)
(0.110089 -0.000114319 0.000155532)
(0.114536 -5.19561e-05 -7.80913e-05)
(0.116915 7.91108e-05 -0.000629298)
(0.116473 0.000230549 -0.000344392)
(0.115421 -7.18299e-05 0.000317799)
(0.116176 0.000257769 -0.000152314)
(0.114467 -0.000482353 0.000150555)
(0.115141 -0.000178556 8.79237e-05)
(0.114943 0.000161241 0.000235455)
(0.115819 0.000149708 -0.000261653)
(0.115959 -0.000570694 -3.901e-05)
(0.109375 -0.000227879 -0.000137562)
(0.113821 -0.000347745 0.000135697)
(0.108257 -0.00017196 9.57513e-05)
(0.112964 0.000374341 0.000477859)
(0.113729 0.000133063 -0.000365891)
(0.109955 -0.00044925 0.000455897)
(0.109299 -0.000269828 -0.000415253)
(0.113665 0.000215389 -0.000223154)
(0.115011 -0.000320907 -1.20683e-05)
(0.115902 0.000100632 -0.000326858)
(0.110177 2.43951e-05 0.000262906)
(0.114869 -0.000204623 0.000213532)
(0.113475 -0.000132734 5.55156e-05)
(0.114523 -8.91619e-05 -0.000484365)
(0.11485 0.00010048 -0.000338828)
(0.112773 0.00170226 0.00196929)
(0.114568 7.60008e-05 -0.000472328)
(0.10995 7.26806e-06 0.000289657)
(0.113662 -0.000203619 -0.000131548)
(0.115773 -7.92427e-05 -1.56063e-05)
(0.116877 0.000856424 0.000420449)
(0.116232 0.000134014 -0.000572636)
(0.114133 0.000663761 -0.000374765)
(0.109535 0.0002225 0.000485577)
(0.115051 -0.000233088 2.31779e-05)
(0.115095 -2.63204e-05 -0.000214618)
(0.115963 -0.000284497 -0.000295688)
(0.109283 4.66009e-05 3.20665e-05)
(0.11095 -5.31856e-05 0.000147736)
(0.113908 0.000255126 0.000239186)
(0.110884 0.0003162 -0.000274084)
(0.109354 -0.000340945 -0.000109256)
(0.115367 0.000132266 -0.000350726)
(0.110515 8.36366e-06 -0.000110296)
(0.11291 0.00061392 0.000106195)
(0.11005 -0.000422493 -0.00059393)
(0.115138 0.000101481 -3.78207e-05)
(0.110666 0.00015017 -0.000142462)
(0.116464 -7.73934e-05 0.000218544)
(0.115895 9.69168e-05 -0.000177996)
(0.116711 -0.000173784 0.000449332)
(0.116605 -8.02401e-05 -7.68514e-05)
(0.110276 -5.07174e-05 0.000137668)
(0.116321 0.000135584 0.00021297)
(0.116735 -5.70254e-05 -0.000233087)
(0.114273 -0.000302965 0.000155934)
(0.115302 0.000308202 -0.00017773)
(0.115225 -0.000242057 -0.00017123)
(0.11662 0.000221331 5.29715e-05)
(0.115721 0.000307715 0.00049662)
(0.112111 8.88684e-06 -0.000346945)
(0.117129 -9.59058e-06 -4.15431e-05)
(0.116707 -0.000142753 0.000239857)
(0.114833 -6.06703e-05 0.000125369)
(0.113028 -0.000377428 -0.000585486)
(0.11607 -0.000409278 -0.000153178)
(0.114799 0.00029102 -0.000198801)
(0.108624 0.000477016 -0.000262684)
(0.108668 0.000320753 -0.000101586)
(0.114217 3.07589e-05 0.000103825)
(0.115961 3.08692e-05 7.98516e-05)
(0.116741 -8.53396e-05 -0.000142)
(0.112831 -0.000198095 -9.39329e-05)
(0.115718 0.000324933 0.000190528)
(0.114984 -0.000121644 0.00031893)
(0.116742 0.000891722 0.000814534)
(0.114383 -1.74955e-05 -1.90344e-05)
(0.113239 0.00039638 -0.000258017)
(0.114148 -0.00143621 0.000913136)
(0.109926 -0.000102754 -0.000141645)
(0.113887 1.93635e-05 0.000131557)
(0.114437 4.27536e-06 -0.000101391)
(0.116155 6.01572e-05 -0.000116207)
(0.111078 -0.00019743 7.41001e-05)
(0.111127 0.000190457 -0.000345588)
(0.111916 -1.55521e-06 -0.000328567)
(0.112769 -0.000420471 -9.99136e-05)
(0.114622 -6.298e-05 -0.000322273)
(0.109422 -7.39346e-05 -0.000465055)
(0.115647 0.000411251 -0.000499634)
(0.113235 0.000134953 -4.78822e-05)
(0.115039 -2.67026e-05 0.000558738)
(0.113464 -0.000122898 -0.000143756)
(0.116899 -0.000289249 -0.00018768)
(0.114029 1.96933e-05 -0.000479399)
(0.109591 6.4172e-05 0.000384844)
(0.114818 0.000644726 0.000156577)
(0.116781 -0.000136955 -0.000715004)
(0.110271 0.00021748 0.000767369)
(0.115706 -6.74403e-05 -0.000466732)
(0.116611 -0.000807671 -0.000226213)
(0.114629 -0.000348252 0.000140296)
(0.114047 0.000214335 0.000167257)
(0.118182 -6.96854e-05 -0.000158754)
(0.112011 2.92398e-05 -0.000116349)
(0.114613 -0.000320565 -0.000159579)
(0.11444 0.000185649 -6.66567e-05)
(0.110501 -2.68155e-05 -1.04491e-05)
(0.110606 -7.69246e-05 -0.000983954)
(0.113859 0.000236846 0.000155918)
(0.112162 0.000501197 0.000175909)
(0.1154 -4.67617e-05 -0.000190457)
(0.111681 -0.000239067 0.000272785)
(0.113442 0.000298955 0.00032241)
(0.116648 4.39919e-05 0.000253442)
(0.114155 3.14087e-05 -0.000115782)
(0.10951 0.00026086 9.91164e-05)
(0.112018 0.000213642 -4.15615e-05)
(0.114991 0.000246286 -8.19501e-05)
(0.116608 -0.000114297 4.07461e-05)
(0.109405 0.000491655 0.000403241)
(0.109256 1.58747e-05 0.000185833)
(0.11681 0.000101676 0.000627821)
(0.109667 0.000140376 7.28963e-05)
(0.115279 -0.000154448 -0.000105575)
(0.115419 0.000185611 -0.000151135)
(0.110506 -8.75792e-05 -0.000668808)
(0.114908 0.000262516 -5.26255e-06)
(0.116159 6.80547e-05 -7.00537e-05)
(0.113956 4.091e-05 0.000607782)
(0.108442 -1.20795e-05 0.00020627)
(0.116612 0.000163165 -2.84719e-06)
(0.113994 -7.40165e-05 -0.000250088)
(0.109478 0.000483504 -6.24664e-05)
(0.116675 -2.16107e-05 -0.000104415)
(0.114106 -6.48366e-05 -8.77346e-05)
(0.113581 0.000324883 -0.000271122)
(0.115337 -0.000538597 9.78455e-05)
(0.109427 0.000689728 -0.000340626)
(0.112941 -1.44516e-05 -0.000730387)
(0.113257 -0.000355436 2.3627e-05)
(0.113662 0.000178477 -0.000256874)
(0.110452 -5.27914e-05 0.000382238)
(0.112103 2.3048e-05 8.15141e-05)
(0.115479 0.000588955 0.000136851)
(0.117136 -0.000454143 -0.00077826)
(0.117087 -0.000452939 0.000389267)
(0.116154 -7.98415e-05 1.49574e-05)
(0.116507 -0.000426121 -0.000123398)
(0.115334 -6.83115e-06 -0.000843472)
(0.111707 -0.000174079 0.000255288)
(0.11704 3.24349e-05 -0.000663235)
(0.115413 -4.66699e-05 -0.000128499)
(0.115959 0.000552312 0.000407649)
(0.110695 0.000501351 -0.000162773)
(0.114865 -0.000204119 -0.000230621)
(0.114686 0.00016437 0.000293343)
(0.117009 0.000738925 0.000116678)
(0.1099 -9.15606e-05 0.000183776)
(0.108953 -0.000497673 0.000186204)
(0.116345 3.88663e-05 -0.00025472)
(0.112091 -0.000220178 -0.000236352)
(0.115983 0.0001592 -3.73875e-05)
(0.113298 -0.000113277 -0.00023095)
(0.110662 -3.85836e-05 -0.000482091)
(0.114577 6.98963e-05 -0.000567811)
(0.116506 0.000414221 -0.000130542)
(0.113895 0.000256819 1.93148e-05)
(0.115675 0.000695487 -0.000133755)
(0.110108 5.9964e-05 -0.00118882)
(0.115785 0.000902313 0.000580539)
(0.115274 -7.17214e-05 -0.000335832)
(0.108963 0.000281239 -3.4793e-05)
(0.115733 -3.57955e-05 -0.000221218)
(0.116114 -0.000324853 8.43046e-05)
(0.117406 0.000581488 0.0010252)
(0.11037 -0.000550595 -0.000749275)
(0.109884 0.000209904 -0.000552597)
(0.113127 0.000330998 -0.000317884)
(0.114306 7.92315e-06 0.000569545)
(0.114443 -0.000150417 0.000109926)
(0.11409 0.000273843 0.000104852)
(0.113995 0.000247334 0.000264832)
(0.116292 0.000103591 -3.12161e-05)
(0.114704 -0.000259905 3.66252e-05)
(0.114982 0.00013616 4.60119e-05)
(0.110654 -0.000145166 0.000468272)
(0.116631 -0.000114135 -0.000764796)
(0.109807 -0.000127428 -0.000148098)
(0.11487 0.000631249 2.81671e-06)
(0.113601 0.000299703 -0.000174622)
(0.112994 -0.000572231 -0.000308955)
(0.11569 0.000227047 -0.000120662)
(0.113349 -0.000441646 -0.000371831)
(0.110876 -0.000542005 -0.000427903)
(0.109342 -1.2131e-05 -0.000346258)
(0.110151 -0.000173307 -0.000122413)
(0.113177 -0.000378021 -0.000267873)
(0.115694 0.000534264 0.000399786)
(0.110305 0.000347144 0.000947525)
(0.115654 -0.000243366 -4.75029e-05)
(0.1132 9.1227e-05 -0.000533612)
(0.116682 -0.000226156 -0.000312257)
(0.109695 -4.83777e-05 -0.000558983)
(0.113314 0.000262071 0.000398576)
(0.116114 -0.000243127 -0.000295151)
(0.116094 -0.000458684 1.63534e-07)
(0.115821 0.000115012 -0.000206371)
(0.116551 -0.000165489 -4.30396e-05)
(0.11503 5.74486e-05 0.000240662)
(0.114112 0.000469987 0.000134122)
(0.116224 -7.91517e-05 0.00031504)
(0.11602 0.000217663 -3.67199e-06)
(0.116604 0.000161798 0.000130075)
(0.111335 0.000624931 -0.000129408)
(0.116451 -0.000427253 -0.000310446)
(0.10952 -0.00020791 0.000330008)
(0.116731 0.000519329 -0.000118094)
(0.114549 0.0002268 -9.43337e-05)
(0.113867 -3.27962e-05 -0.000265183)
(0.110206 0.000558123 3.29872e-05)
(0.114119 0.00090645 -0.000567987)
(0.108262 -0.000927491 -0.00016837)
(0.115599 -6.82692e-05 -0.000148151)
(0.113858 0.000123652 -0.000206173)
(0.116288 -4.36721e-05 -0.000184167)
(0.113633 0.000406659 -0.000206424)
(0.114023 0.000801424 -0.000193724)
(0.11007 -0.000239546 0.0003679)
(0.116509 0.000130606 9.06507e-05)
(0.110508 -0.000478843 0.000123679)
(0.108557 -0.000214415 -0.00023965)
(0.11041 -0.000196192 7.15352e-05)
(0.110997 0.000123404 0.000135693)
(0.110682 0.000616628 3.35983e-05)
(0.11427 -0.000271174 4.12921e-05)
(0.109535 0.00014766 -6.75719e-05)
(0.115522 -0.000742108 6.0676e-05)
(0.115175 5.78326e-05 -0.000402985)
(0.108393 -9.20427e-05 6.34157e-05)
(0.115418 0.000254036 3.28135e-05)
(0.110259 0.000306274 -0.000524854)
(0.113088 0.000665326 0.000116035)
(0.114456 0.000147664 0.000133944)
(0.113499 -0.000157518 -0.000746083)
(0.115369 -1.65383e-05 -0.000122732)
(0.117034 0.000111319 -0.000572446)
(0.115707 9.82159e-05 0.000464159)
(0.114983 2.75405e-05 -0.000223278)
(0.114674 -0.000279222 -0.000656885)
(0.115641 0.000411146 0.000183766)
(0.112858 0.000129173 7.29729e-05)
(0.113418 0.000161634 8.66436e-05)
(0.109219 0.000555021 -0.00052487)
(0.110354 0.00221663 0.00291293)
(0.116387 4.16428e-05 4.72071e-05)
(0.114541 -7.16759e-05 -0.000128635)
(0.115228 -0.000214088 -9.07233e-05)
(0.115841 2.76894e-05 8.48895e-07)
(0.109449 -0.000376613 -0.000124763)
(0.116152 -4.49825e-05 -0.000350078)
(0.116356 0.000450762 -0.000149703)
(0.116387 9.6995e-06 0.000199211)
(0.1163 2.16737e-05 0.000119904)
(0.115474 0.000250007 0.000199541)
(0.114987 -0.000352218 -0.00026943)
(0.116453 -0.000116286 6.34624e-06)
(0.116633 -0.000127229 0.000344495)
(0.115194 0.000199059 0.000276048)
(0.11628 3.57556e-05 -0.000129058)
(0.115456 -0.000315984 -0.000349998)
(0.111178 -0.000240481 -0.000327439)
(0.116104 -7.01859e-05 0.00017744)
(0.111856 6.8711e-05 0.000456951)
(0.114415 -8.76698e-05 -2.23818e-05)
(0.114693 -0.000470282 -0.000196778)
(0.114335 -0.000515815 7.46218e-05)
(0.11284 0.000522548 -3.06855e-05)
(0.115535 0.000249895 -0.00017393)
(0.113441 0.000395554 0.000361921)
(0.115124 6.48952e-05 -0.000196435)
(0.1133 0.000731545 -0.000296948)
(0.10961 0.000575464 -0.000429975)
(0.117064 0.000285253 -0.000190642)
(0.114985 0.000378131 -0.000133125)
(0.112588 -4.81325e-05 0.000502757)
(0.10962 -0.000488616 -3.30626e-05)
(0.11616 -0.00047384 -9.12666e-05)
(0.109214 -0.000581705 -0.000445433)
(0.116603 -0.000167794 -4.63609e-05)
(0.114988 -4.03074e-05 0.000339657)
(0.113689 0.000738978 -0.000270228)
(0.115396 -0.000255319 0.000343511)
(0.11658 -4.69278e-05 -0.000421838)
(0.114987 -0.00030116 5.31113e-05)
(0.109638 -0.000103337 8.93047e-05)
(0.113849 -0.000243159 -0.000244185)
(0.111625 0.000226736 -0.000371996)
(0.114278 2.36794e-05 -6.99983e-05)
(0.109463 -0.000516011 -0.000726834)
(0.115129 -0.000140463 -0.000330661)
(0.11556 -0.00036019 0.000373152)
(0.112571 0.000237113 -0.000380357)
(0.114227 3.00591e-05 1.15222e-05)
(0.112572 1.47615e-05 0.000113232)
(0.115455 -5.21572e-05 -0.000237342)
(0.112646 -0.000545101 0.000223528)
(0.11409 0.000307155 0.00010395)
(0.10972 -0.000212507 0.000134537)
(0.116455 -8.29241e-05 5.78496e-05)
(0.114526 -0.000412803 -0.000224321)
(0.116325 0.000325899 0.000289553)
(0.111844 0.000398292 -0.000238586)
(0.11482 -6.36031e-05 -0.000142967)
(0.115145 0.000114425 -0.000179195)
(0.113657 0.000109684 0.00049768)
(0.113877 -2.77225e-05 3.98511e-05)
(0.114069 0.000130535 0.000330058)
(0.116335 -0.000326233 6.6939e-05)
(0.114282 -0.000167481 -0.000124326)
(0.110021 -7.62117e-06 -0.000142523)
(0.108922 -0.000245595 -0.000437146)
(0.1155 -0.000308752 -0.000104731)
(0.109377 0.000367359 -0.000526455)
(0.111989 -0.000534512 -0.00081658)
(0.114299 0.000264343 -0.000176163)
(0.114501 0.000218796 -9.00849e-05)
(0.116584 0.000458634 -0.000177216)
(0.10923 -0.000200975 -6.45498e-05)
(0.114597 -8.24536e-05 -0.000498143)
(0.116785 -9.76719e-06 -0.000232206)
(0.11046 0.000696455 -0.00177674)
(0.110493 0.00113805 0.000255674)
(0.11412 -0.000155071 -0.000507173)
(0.110718 -8.62308e-05 1.62103e-05)
(0.11466 2.21257e-06 -0.000286265)
(0.110406 -0.000245024 6.99677e-05)
(0.116161 -0.00063101 -0.000288081)
(0.1117 0.000113378 0.000431121)
(0.11256 0.000200392 0.000299063)
(0.116932 0.000197343 0.00049566)
(0.108943 -0.000142403 0.000237192)
(0.113375 9.4835e-05 0.000257551)
(0.113233 -6.03321e-05 0.000409877)
(0.116524 -7.99454e-05 -0.000526423)
(0.11653 3.69116e-05 0.000169883)
(0.11597 5.04441e-05 -0.00019242)
(0.110364 0.000599439 0.000416501)
(0.115369 -0.000150923 -0.000431262)
(0.115928 0.000148682 0.000556736)
(0.112179 -0.000363182 -9.3588e-05)
(0.116323 0.000133794 -0.000198044)
(0.115748 9.96049e-05 7.64466e-05)
(0.115331 0.000267346 1.38949e-05)
(0.115825 -9.8992e-05 -0.000365298)
(0.114838 5.68113e-05 -0.000215711)
(0.116882 0.000185375 0.000202067)
(0.116348 0.000551312 0.000644738)
(0.116569 -0.000213842 5.07618e-05)
(0.115137 0.000326827 0.000221428)
(0.113535 -0.000108374 -0.000410108)
(0.115023 0.000142766 7.99566e-05)
(0.114673 0.000159336 -0.000229719)
(0.109755 -0.000683019 -0.000124051)
(0.114043 -0.000507903 0.000113382)
(0.115022 -1.86689e-05 0.000355039)
(0.116288 -0.000191477 -0.000157526)
(0.116181 -0.000282545 -0.000457045)
(0.114304 -0.000306084 0.000115551)
(0.11723 0.00068331 6.06552e-05)
(0.116116 8.40085e-05 -8.57765e-05)
(0.113185 -0.00055116 0.000631236)
(0.114878 9.84372e-05 -0.000377581)