/*--------------------------------*- C++ -*----------------------------------*\
| =========                 |                                                 |
| \\      /  F ield         | OpenFOAM: The Open Source CFD Toolbox           |
|  \\    /   O peration     | Version:  2212                                  |
|   \\  /    A nd           | Website:  www.openfoam.com                      |
|    \\/     M anipulation  |                                                 |
\*---------------------------------------------------------------------------*/
FoamFile
{
    version     2.0;
    format      ascii;
    arch        "LSB;label=32;scalar=64";
    class       surfaceVectorField;
    location    "0.016";
    object      Uf;
}
// * * * * * * * * * * * * * * * * * * * * * * * * * * * * * * * * * * * * * //

dimensions      [0 1 -1 0 0 0 0];

internalField   nonuniform List<vector> 
68568
(
(0.115016 0.000417284 -0.000194366)
(0.114469 0.000645312 -0.000198525)
(0.114213 0.000435645 -9.72371e-05)
(0.116184 0.000821745 -0.000300139)
(0.114991 -0.000235134 -0.000115686)
(0.11493 -0.000325139 -0.000276846)
(0.114225 -0.000239966 4.26119e-05)
(0.110692 -8.37533e-05 -6.17745e-05)
(0.115599 0.000208249 0.000105406)
(0.115359 -0.000363687 0.00051964)
(0.114628 -0.000183396 7.61712e-05)
(0.112599 -0.00047257 0.000519685)
(0.116752 -0.000130253 -0.000111179)
(0.115768 8.82269e-05 -0.000186507)
(0.11686 1.35218e-05 -9.00604e-05)
(0.116962 -1.64585e-05 -0.000109067)
(0.112767 -0.000170951 -0.000104)
(0.114965 -0.00037379 -0.000100929)
(0.112299 -0.000145914 -0.000219769)
(0.114607 -0.0003958 -0.000241141)
(0.115257 5.82628e-05 -9.26481e-05)
(0.114407 0.000133289 3.1971e-05)
(0.115289 0.000125697 3.13462e-05)
(0.111495 0.000112303 -0.000306864)
(0.113693 -1.65698e-05 -0.000260084)
(0.110208 -4.13429e-05 -2.96527e-05)
(0.111591 0.000165305 -0.000435547)
(0.113713 2.75958e-05 -0.000319489)
(0.113813 0.000194378 0.000356001)
(0.11554 0.000148006 -0.000106059)
(0.114461 -7.0139e-05 -5.68848e-05)
(0.114911 -0.000126142 -0.000262585)
(0.114008 6.71468e-05 -0.000221962)
(0.114034 0.000170823 -0.000488111)
(0.115683 -0.00023262 -6.71834e-05)
(0.115342 -0.000247454 -0.000263369)
(0.116196 2.00782e-05 -0.000462625)
(0.116426 -0.000271408 -0.000261893)
(0.116261 0.000458449 -0.000130061)
(0.115575 0.000330683 -0.000190556)
(0.116073 0.000270078 -0.000183624)
(0.114145 -1.38391e-05 -0.000333364)
(0.116583 -0.000311522 -0.000535843)
(0.116298 -0.000352707 -0.000441633)
(0.115029 -6.94722e-05 2.96835e-05)
(0.114375 -0.000230874 3.35588e-05)
(0.111055 6.70492e-05 -0.000215841)
(0.116126 -7.99425e-05 -0.000217358)
(0.11612 -6.07703e-05 0.000129955)
(0.115691 -1.65567e-05 2.80077e-05)
(0.113866 -3.6474e-05 5.72186e-05)
(0.11347 -0.000275682 -7.88811e-05)
(0.114531 -0.000298064 -0.000179359)
(0.114154 -0.000244103 -4.9981e-05)
(0.110534 -0.000307923 -0.000101044)
(0.113706 -0.000255483 0.000575746)
(0.110265 -0.00016712 0.00029515)
(0.111611 -0.00020597 0.000516714)
(0.113796 -0.000160544 0.000225575)
(0.113586 9.63018e-05 9.75216e-05)
(0.114201 0.00018533 0.000128801)
(0.113939 9.89553e-05 1.19115e-05)
(0.115022 -4.66314e-05 -1.497e-05)
(0.110937 0.000313376 0.000287677)
(0.110987 -0.000299743 0.000525353)
(0.113767 -7.10443e-05 0.000162558)
(0.113549 0.000124149 -0.000511359)
(0.111811 -0.00020062 -6.53584e-05)
(0.110686 0.000156764 -0.000574128)
(0.113911 -4.46486e-05 -0.000330589)
(0.114708 -4.87957e-06 -4.4943e-05)
(0.115512 -0.000253389 -3.00997e-05)
(0.115277 -0.000353303 4.6021e-05)
(0.112057 -0.000129899 4.2272e-05)
(0.110379 -0.000163014 -0.000245779)
(0.111708 2.26133e-05 -0.000142895)
(0.110609 0.000227211 -0.000186036)
(0.103469 -0.000100505 -0.000295363)
(0.115086 -0.000238141 -0.00030094)
(0.116321 3.8415e-05 -0.000359526)
(0.115373 -6.17972e-05 -0.000344831)
(0.115747 -9.27327e-05 -0.00044303)
(0.11591 0.000329342 -0.000140046)
(0.115719 0.000321442 3.74619e-05)
(0.113892 0.000398063 7.45508e-05)
(0.116333 0.000473578 -0.000102584)
(0.11168 0.000206764 -0.000184432)
(0.111992 -4.44102e-05 -0.000142208)
(0.113975 0.000237461 -0.000246312)
(0.114291 9.34291e-05 4.38801e-07)
(0.110122 9.81336e-06 4.96451e-05)
(0.113182 -6.53107e-05 -0.000100662)
(0.111508 0.000253701 -0.000373973)
(0.113324 -9.33502e-07 0.000134858)
(0.113967 0.00018967 -0.000100703)
(0.113963 -9.92701e-05 6.7583e-05)
(0.115621 2.52272e-05 0.000521999)
(0.114625 3.0383e-06 -0.000105616)
(0.11541 -0.000140606 -1.29432e-05)
(0.11191 -6.96837e-05 0.000290729)
(0.117753 0.000175588 0.000234659)
(0.116058 0.000217286 4.89002e-05)
(0.118048 5.9233e-05 -0.000114032)
(0.11702 -0.000158318 -0.000550824)
(0.114517 0.000280626 0.0003614)
(0.110095 0.000424628 -4.49066e-05)
(0.11143 0.000309928 0.000165986)
(0.115838 0.000235929 0.000172272)
(0.11512 8.81662e-05 0.00034634)
(0.115825 0.000254812 0.00016095)
(0.116444 -0.000208624 -0.000142805)
(0.115549 1.37407e-05 -1.86766e-05)
(0.116532 -0.000160931 -0.000116035)
(0.115189 -8.54931e-05 -9.85638e-05)
(0.113477 -0.000257945 -0.00010147)
(0.113476 -0.000106134 -0.000175337)
(0.11092 0.000188773 3.03325e-05)
(0.110579 -0.000285536 0.000267362)
(0.116037 0.000145343 -0.000300005)
(0.115618 4.4366e-05 -0.00025453)
(0.11582 1.08327e-05 -0.000376487)
(0.116241 -1.36761e-05 -0.000341198)
(0.111738 9.6416e-06 -0.000249707)
(0.110887 -0.000153726 2.28941e-06)
(0.114234 -7.3385e-05 -2.09583e-05)
(0.114312 6.83963e-05 1.72321e-05)
(0.111844 9.75706e-05 2.56594e-05)
(0.110108 7.17463e-06 3.44722e-05)
(0.11009 -0.000140047 -0.000180514)
(0.10412 -0.000110987 2.15218e-05)
(0.116109 0.000411777 -0.000258574)
(0.109956 8.88123e-05 1.69504e-05)
(0.110041 -0.000323149 -0.000102735)
(0.108357 -0.000157033 4.66663e-05)
(0.103483 -0.000187281 -8.9399e-07)
(0.116501 -0.000215205 0.000244885)
(0.116345 -0.000429361 0.000216587)
(0.116529 -9.49235e-05 0.000388021)
(0.115895 -0.00029262 0.000263314)
(0.115336 -0.000171932 0.000233556)
(0.115307 -0.000104194 0.000359972)
(0.116308 -0.000102486 0.000442321)
(0.109068 0.000430017 -0.000322213)
(0.110085 -0.000223113 2.21143e-06)
(0.104189 8.52581e-05 -0.000109793)
(0.11262 -6.34602e-05 -0.000115594)
(0.110746 -5.53563e-05 -0.000285537)
(0.104429 9.29439e-05 -0.000316022)
(0.111246 -4.33061e-05 0.000152401)
(0.111234 -0.000270328 -2.88491e-05)
(0.112002 -0.000248867 -1.74421e-05)
(0.103676 -0.000157373 0.000148062)
(0.116126 -8.36255e-05 8.46228e-05)
(0.115001 -7.3758e-05 1.20602e-06)
(0.115161 -0.000170947 -0.00024645)
(0.116053 -0.00066422 -0.000345368)
(0.11502 -0.000626249 -0.000580706)
(0.116152 -0.000433945 -0.000728336)
(0.115622 -0.000386956 0.000462465)
(0.115795 -0.000523433 0.00014859)
(0.115248 -0.000129117 0.000180657)
(0.116611 -0.000438951 -0.000136521)
(0.115891 -0.000440931 -3.40817e-05)
(0.115507 -0.000275456 -0.000282204)
(0.116573 -9.15203e-05 -0.000395751)
(0.114222 6.21999e-05 -0.000211916)
(0.113268 0.000356105 -0.000322246)
(0.109978 4.91762e-05 -0.000164219)
(0.114197 0.000330772 -0.000424556)
(0.114469 7.82884e-05 -0.000320188)
(0.11258 0.000215711 -0.000643875)
(0.11149 0.000171203 -0.000251495)
(0.113596 -9.11387e-05 0.000183217)
(0.113303 3.6527e-05 6.55572e-05)
(0.115051 7.80489e-05 -0.000217229)
(0.114214 -9.04846e-05 0.000128966)
(0.115657 -6.7097e-05 -0.000298252)
(0.115614 -0.000105357 -0.000279308)
(0.115751 0.000172736 -0.000222751)
(0.116617 0.000284326 -0.000493732)
(0.116925 3.59625e-05 -0.000191815)
(0.111615 1.65948e-06 -0.000380694)
(0.109896 0.000166646 -0.000139027)
(0.110407 7.82689e-05 -5.59505e-05)
(0.102932 0.000156575 -0.000165718)
(0.115583 0.000418637 4.95992e-05)
(0.114802 0.000316929 1.47874e-05)
(0.116294 0.000296353 3.84882e-05)
(0.115852 0.000137931 9.58163e-05)
(0.109224 -0.000148361 3.5938e-06)
(0.103662 -2.55525e-05 0.000147566)
(0.112431 -2.54891e-06 -0.000251939)
(0.112242 -0.000193915 -4.25543e-05)
(0.114694 -3.45429e-05 -0.000235564)
(0.114706 -0.000147091 -9.05874e-05)
(0.112789 0.000119385 0.00019409)
(0.113211 6.90888e-05 0.000158002)
(0.114763 -0.000206533 2.39951e-05)
(0.111562 6.25659e-05 -0.000497706)
(0.110532 3.72477e-05 -0.000231459)
(0.111725 0.000146691 -5.72215e-05)
(0.10393 0.000370006 -0.000186723)
(0.115524 0.000167378 0.000441061)
(0.115334 -6.25482e-05 0.00014711)
(0.11459 0.000104548 0.000341849)
(0.111976 0.000110811 0.000373564)
(0.115522 -0.000323362 0.000160889)
(0.114675 -5.47019e-05 0.000353649)
(0.115453 -0.000162632 3.3153e-05)
(0.111511 -1.44803e-05 0.000228095)
(0.109946 3.98406e-06 -0.000136114)
(0.110066 0.00034062 -9.48017e-05)
(0.10453 7.87748e-05 -0.000110343)
(0.113783 -0.000250662 -0.000341274)
(0.113532 7.22695e-05 -0.000192297)
(0.11376 4.8505e-05 -5.01249e-05)
(0.115179 0.000349183 1.41199e-05)
(0.114253 0.000352375 9.65056e-05)
(0.115902 0.000148282 -0.000157773)
(0.114714 0.000279038 -0.000237035)
(0.113574 -0.000102301 -0.000316032)
(0.111525 -0.000138978 -0.000419387)
(0.111592 -0.000129957 -0.000241918)
(0.104408 -0.000230958 -0.000220444)
(0.115417 5.35844e-06 -5.64398e-05)
(0.115487 0.000157561 8.92576e-05)
(0.111153 0.000119621 -0.000128106)
(0.113634 -2.21787e-05 -0.000106261)
(0.113849 0.000215448 -1.66229e-05)
(0.115246 0.000236295 3.11085e-05)
(0.114013 0.000204653 0.000167519)
(0.116639 3.81216e-05 -0.000488865)
(0.116738 -7.14055e-05 -0.000420044)
(0.116652 -0.000146378 -0.000340261)
(0.116037 -4.09887e-05 -0.000330834)
(0.113031 0.000288163 -0.000807061)
(0.114844 0.000146626 -0.000696402)
(0.115339 -0.000186486 -0.000568773)
(0.114399 -0.000218037 6.25351e-05)
(0.115232 -0.000199869 -5.09013e-07)
(0.114403 -8.02476e-05 0.000126442)
(0.111601 -6.64983e-06 -0.000168564)
(0.1118 -0.000701593 -0.000213045)
(0.112145 0.000192046 -0.000166342)
(0.103883 -3.00202e-05 -0.000266856)
(0.116482 0.000341414 9.81143e-06)
(0.11669 0.00025223 -0.000238313)
(0.116131 0.000126229 -0.000104872)
(0.116653 0.000177753 -0.000371925)
(0.116035 0.000256982 -4.94182e-05)
(0.114922 0.000129333 -5.37691e-05)
(0.115678 -8.7411e-05 -0.000186155)
(0.11532 0.000161888 -0.000286488)
(0.112781 -0.000262423 -0.000651782)
(0.112573 9.66566e-05 -0.000189992)
(0.11367 -0.000147265 -0.000578691)
(0.107883 -0.000592845 -0.000515403)
(0.115132 -0.00018287 -0.000408141)
(0.115156 -0.000298844 -0.000613819)
(0.116218 -0.000229235 -0.00031746)
(0.116155 -0.000166545 -0.000359609)
(0.11567 -8.68923e-05 -0.000207381)
(0.114732 -0.000143163 -0.000220881)
(0.114632 6.11711e-05 -0.000111443)
(0.111839 0.000121996 -0.000425715)
(0.115695 0.000216268 0.00017114)
(0.115385 0.000225371 -6.10241e-05)
(0.113966 3.07986e-05 -0.000178097)
(0.110261 -8.9194e-05 -0.000563291)
(0.109892 -4.95861e-05 -0.000373201)
(0.111095 9.29749e-05 -0.000577639)
(0.103449 0.00023661 -0.000288123)
(0.116006 -0.000445001 -4.53833e-05)
(0.115964 -0.000502822 0.000124551)
(0.116711 -0.000481661 8.00963e-05)
(0.112248 0.00082104 -0.00048253)
(0.114688 8.50026e-05 -0.000282234)
(0.114394 0.000245956 -0.000253871)
(0.114558 -0.000202637 0.000370482)
(0.114911 3.89702e-06 0.000171103)
(0.115265 9.77246e-05 0.000297523)
(0.111213 -8.68549e-05 0.000289987)
(0.111817 -0.000232257 -8.86274e-05)
(0.115877 -2.27083e-05 3.69206e-05)
(0.114118 0.000179851 -3.02662e-05)
(0.115946 0.000319513 1.39094e-05)
(0.110314 0.000390732 -0.00024797)
(0.113178 -3.39486e-05 -4.97835e-05)
(0.113361 4.27484e-05 6.69129e-05)
(0.108215 0.000103039 -0.000209693)
(0.109123 0.000231566 0.000229002)
(0.108745 -2.69682e-05 0.000116195)
(0.103792 6.12728e-05 0.00010724)
(0.116467 9.29973e-05 7.13274e-05)
(0.115375 6.02747e-05 -0.000184099)
(0.116487 -4.65666e-05 8.736e-06)
(0.116035 -0.000283253 9.98069e-05)
(0.11623 -0.000324566 -0.000233212)
(0.115902 1.25499e-05 -7.88593e-05)
(0.115909 -9.18295e-05 -0.000234291)
(0.111597 -0.000125823 4.39399e-05)
(0.11417 -0.000166878 -0.000110199)
(0.115333 -0.000209181 -0.0001079)
(0.115569 -6.70807e-05 -0.000149347)
(0.114169 1.20786e-06 0.00011434)
(0.116457 -9.60484e-05 -0.000135031)
(0.115305 -1.26035e-05 -0.000303122)
(0.1155 6.26469e-05 5.39017e-05)
(0.116465 -8.55661e-05 -0.000100169)
(0.116588 -4.08398e-05 0.000136064)
(0.115964 -0.000121294 -1.31128e-05)
(0.116618 -7.99292e-05 -0.000191184)
(0.115699 -4.54372e-05 -0.000168165)
(0.115586 -0.000141683 -0.00022972)
(0.116462 2.62009e-05 -0.000438786)
(0.110249 0.00109027 -0.00073569)
(0.112512 0.000248886 -0.00100771)
(0.111651 0.000568614 -0.000735128)
(0.102249 0.000219041 -0.000430939)
(0.115702 -7.39717e-05 -0.000154175)
(0.115874 -0.000205145 -0.000126916)
(0.116582 -6.22151e-05 -0.000361262)
(0.114921 -0.00010795 0.000207893)
(0.115927 -2.69632e-05 5.98706e-05)
(0.111424 6.12716e-05 -3.74765e-05)
(0.112133 -6.50748e-05 -3.15175e-05)
(0.111861 -1.77401e-05 -2.2632e-05)
(0.11433 -0.000167039 0.000125211)
(0.11408 -0.000219654 -6.14617e-05)
(0.111117 -0.000255528 -0.000720691)
(0.111558 -0.000340281 -5.38039e-05)
(0.103336 -0.000269191 -8.87147e-05)
(0.113583 0.000370766 -0.000507298)
(0.11472 0.000180115 -0.000626634)
(0.110781 -0.000171914 -0.000303831)
(0.110894 -0.000385228 -6.99615e-05)
(0.1133 -0.000478848 -0.000134026)
(0.110516 -0.000324171 -0.000274019)
(0.113138 -0.000357595 -0.000143895)
(0.114644 0.000572535 -4.21589e-05)
(0.114569 0.000688923 -9.941e-05)
(0.113626 0.000753927 0.000216391)
(0.11146 0.000612 0.000178908)
(0.113086 0.000325107 -0.000124174)
(0.113706 2.1182e-05 -0.000241681)
(0.115389 0.000311782 -1.23632e-05)
(0.115975 -0.000148216 6.67809e-05)
(0.115742 -0.000104431 0.00014114)
(0.111224 -5.25321e-05 0.000175884)
(0.114412 0.000104463 0.000143887)
(0.11421 0.000240946 6.62573e-05)
(0.115115 7.13089e-05 2.3005e-05)
(0.111128 2.08789e-05 -0.000218998)
(0.111074 -0.000471692 3.20582e-05)
(0.111573 -0.000108828 -6.83005e-05)
(0.110631 -0.000609288 -0.000270239)
(0.103748 -0.000381522 5.31091e-05)
(0.115216 0.000179779 0.000109441)
(0.115299 -6.90529e-05 9.45163e-05)
(0.113495 -2.20445e-07 -0.000279438)
(0.115381 -0.000151021 -0.000163146)
(0.115173 8.21362e-05 0.000178248)
(0.114212 -2.8903e-05 0.0002226)
(0.114216 0.000342459 7.11255e-05)
(0.113427 -0.000249718 -0.000291724)
(0.11066 -4.62666e-06 -0.000158938)
(0.109847 -1.99745e-05 -0.000207941)
(0.111219 -0.000308242 -0.000244514)
(0.110498 5.13206e-05 -0.000307965)
(0.103621 -7.26955e-05 2.10509e-05)
(0.111791 4.90417e-05 -0.000279631)
(0.103449 6.19436e-05 -0.000309667)
(0.11577 -0.000248797 -3.42277e-05)
(0.116878 -2.0942e-05 0.000222163)
(0.116955 -0.000150571 -7.0985e-05)
(0.104534 0.000122471 0.000196907)
(0.110511 -0.000300775 -0.000517882)
(0.111366 -0.000184744 -0.000183596)
(0.110997 -0.000428797 -0.00044771)
(0.102964 -0.000144937 -0.00070415)
(0.110526 0.000528388 -6.6372e-05)
(0.113241 0.000435163 2.48282e-06)
(0.1101 -6.35178e-05 0.000380084)
(0.109303 0.000167829 0.000130883)
(0.110592 0.000415866 0.000349526)
(0.103686 -2.24639e-05 0.000145584)
(0.115976 -0.000578866 0.000113159)
(0.114613 -0.000582412 0.000307226)
(0.114862 -0.00042058 0.000211864)
(0.116016 -0.000528391 8.31338e-05)
(0.112632 -0.000136735 -0.000509124)
(0.111807 -0.000196878 -0.000233566)
(0.111299 -0.000104677 -0.000200146)
(0.103413 0.000128283 -0.00021818)
(0.115213 0.00011083 -0.000272714)
(0.114536 0.000143293 -0.000255492)
(0.114879 -0.000408765 -0.000213096)
(0.111987 -1.38914e-05 -0.000386991)
(0.111686 -0.000298447 -0.000365415)
(0.111651 -0.000265509 -0.000440772)
(0.113742 -0.000315339 -0.00044024)
(0.115683 5.58756e-05 -0.000293888)
(0.115607 0.000134185 -0.000338563)
(0.114915 0.000187273 -0.00026011)
(0.111227 0.000318477 -0.000431422)
(0.111505 8.16136e-05 2.13e-05)
(0.11006 -0.000247448 0.000118591)
(0.110849 -0.000303568 0.000357977)
(0.103694 -0.000240581 -2.53594e-05)
(0.114817 0.000263657 1.74682e-05)
(0.111638 0.000242727 -0.000387554)
(0.111416 -2.20283e-05 2.73148e-05)
(0.114364 -0.000524293 3.86596e-05)
(0.111649 -0.000333384 0.000113215)
(0.114166 -0.000361338 0.000280243)
(0.115598 -7.52555e-05 -0.00010862)
(0.11394 -0.000135178 -0.000214373)
(0.115481 -0.000111998 -0.000181152)
(0.115227 0.000194778 0.000183805)
(0.11526 -0.000100357 5.19549e-05)
(0.111498 -0.000141109 0.000113798)
(0.113919 -0.000370692 -0.000120189)
(0.114257 -0.000162311 -0.000286847)
(0.115243 -5.78752e-05 -0.000170363)
(0.115031 -0.000266213 -3.29721e-05)
(0.115256 -0.000273664 0.000218302)
(0.116237 -0.000146227 0.000149323)
(0.116597 -0.000275752 0.000198471)
(0.115455 5.30964e-05 -0.00036114)
(0.115414 2.41221e-05 -0.000458415)
(0.116673 9.08611e-05 -0.000449412)
(0.113526 0.000290321 -0.000345475)
(0.114855 0.000208233 -0.000265107)
(0.115127 -5.98161e-06 -0.000534859)
(0.112637 -0.000550147 -0.000172607)
(0.115835 0.000313203 -0.000529712)
(0.114377 -0.000184404 0.000113335)
(0.115727 0.000206603 0.000277328)
(0.115702 9.17409e-05 7.6806e-05)
(0.115861 -0.000126531 0.000110971)
(0.11493 0.000115717 6.70011e-05)
(0.115459 -3.4838e-05 0.000174182)
(0.110943 2.95011e-06 4.85041e-05)
(0.110333 2.69501e-05 -0.00039064)
(0.11038 -0.000132949 -0.000218476)
(0.110991 -0.000592864 -0.000220982)
(0.113529 -0.000477423 -0.000180078)
(0.113673 -0.000449001 -0.000248553)
(0.115123 -0.000375691 8.20374e-05)
(0.114929 -0.00023403 -6.55683e-05)
(0.116267 -0.000203834 -0.00028259)
(0.116313 -0.000181741 -5.26315e-06)
(0.115841 -0.000185058 -0.000217786)
(0.114738 -0.000335086 -0.00029307)
(0.11463 2.65915e-05 -0.000197271)
(0.115743 8.84833e-05 -5.45656e-05)
(0.115714 0.000276178 -0.000249804)
(0.116457 5.59835e-05 -0.000479307)
(0.115921 0.00015837 -0.000126663)
(0.11645 -8.85143e-05 -0.000381952)
(0.115693 -0.000195339 7.8909e-06)
(0.115254 1.0026e-05 4.83441e-05)
(0.114528 -0.000475482 0.00015409)
(0.116089 -0.000323357 5.77034e-05)
(0.114915 -1.77658e-05 3.76938e-05)
(0.112264 -5.52875e-05 -0.000341291)
(0.115609 -1.08817e-05 1.33088e-05)
(0.112063 0.000140553 -0.000569213)
(0.115607 -2.62617e-07 -0.000116778)
(0.116357 -4.46532e-05 -0.000362343)
(0.115413 5.53729e-05 -0.000291835)
(0.115728 3.20159e-05 0.000247962)
(0.111194 2.69353e-05 -7.27699e-05)
(0.109957 -0.000111709 -0.000358574)
(0.104296 -4.58765e-05 -0.00026198)
(0.110484 -0.000577788 -0.000641118)
(0.103371 -0.00039317 -0.000152057)
(0.116621 0.000279466 0.000564183)
(0.115466 0.000284164 0.000150207)
(0.114721 -0.000245179 -0.000250541)
(0.111207 -0.000183735 -0.000164062)
(0.115606 5.39642e-05 -0.000483579)
(0.115435 -6.42611e-06 -0.000291987)
(0.114641 -0.000101898 -0.000182901)
(0.110971 -7.91239e-05 -0.000161551)
(0.116422 0.000226985 0.000475072)
(0.116489 3.57986e-05 0.000508659)
(0.116512 6.00181e-05 0.00046894)
(0.115636 0.000153133 0.000494617)
(0.115456 0.00049486 0.000125429)
(0.115425 0.000352838 7.49816e-05)
(0.116181 0.000430342 1.2114e-05)
(0.109726 -4.67212e-05 -0.000244299)
(0.111089 6.17042e-05 -9.35622e-05)
(0.102968 -0.000160187 -0.000306866)
(0.111867 0.000246359 -0.000329719)
(0.111078 -0.000134644 -0.00028935)
(0.110416 0.000115892 -0.000389802)
(0.103654 -0.000117872 -0.000609308)
(0.116009 -6.56594e-05 7.40002e-06)
(0.114636 -0.000192345 -0.0003324)
(0.116105 -0.000292102 -0.000113669)
(0.113721 -0.000196435 -0.00022921)
(0.115307 -0.000268666 -0.000298865)
(0.110744 -0.000116931 -0.000373476)
(0.111232 -6.7628e-05 -0.000469628)
(0.1036 -0.000194996 -0.000274013)
(0.111939 -0.000215775 -0.00015375)
(0.110324 9.93671e-06 -3.82442e-05)
(0.110051 -7.42133e-06 0.000134987)
(0.104534 -8.38556e-05 5.25199e-05)
(0.116063 -0.000360147 2.21901e-05)
(0.11518 -0.000222344 0.000154273)
(0.115057 -0.000172652 -0.000139432)
(0.116083 -0.000110546 -0.000172279)
(0.111731 -4.5768e-05 -0.000842142)
(0.111549 0.000180313 -0.000506521)
(0.113651 -5.48719e-05 -0.000529255)
(0.104069 -0.00012405 -0.00075178)
(0.114307 0.000226757 0.000113426)
(0.114656 -0.000259485 8.32282e-05)
(0.114455 -5.90498e-05 0.000136043)
(0.111089 -2.46391e-05 0.000213404)
(0.111882 -0.000292026 -0.000256633)
(0.114221 -5.25013e-05 -0.000440685)
(0.114059 8.41226e-05 -0.000564097)
(0.114655 -4.22229e-05 -0.000163063)
(0.11607 -0.000105686 -5.38485e-05)
(0.115261 9.17879e-05 0.000186452)
(0.112299 0.000284998 -0.00070044)
(0.11054 0.000428697 -0.000450316)
(0.1119 0.000801201 -0.000518636)
(0.102789 -0.000137759 -0.000535607)
(0.116897 -5.14326e-05 6.87617e-05)
(0.116854 -0.000133306 9.94525e-05)
(0.115365 6.46454e-06 2.24106e-05)
(0.116854 4.48932e-05 5.69919e-05)
(0.115359 2.62013e-06 -0.000339483)
(0.113298 -3.36311e-05 -0.000274875)
(0.112929 8.46884e-05 -0.000506224)
(0.115166 -8.23877e-05 -0.000152978)
(0.112636 -0.000774653 -0.000161349)
(0.112913 -0.000646271 8.6979e-05)
(0.103964 -0.000215527 -0.000251529)
(0.112014 -0.000553202 0.000746351)
(0.111047 -0.000225655 0.000678651)
(0.112395 -0.000496059 0.0004521)
(0.103138 5.24715e-06 0.000139104)
(0.11397 -0.000239738 -9.58502e-05)
(0.110387 -0.000228439 -4.87129e-05)
(0.112052 -0.000234161 -0.000650852)
(0.116862 -9.22536e-05 -0.000165403)
(0.115997 -6.99331e-05 -0.00025439)
(0.110811 0.000286521 0.000263605)
(0.110154 0.000133555 0.000191056)
(0.111519 -8.67067e-05 -7.64157e-05)
(0.103156 -3.2474e-05 0.000201014)
(0.112505 -0.000145001 -0.000585663)
(0.112436 0.000314474 -0.000296232)
(0.104001 -0.000317655 -0.000646606)
(0.110149 -9.58149e-05 0.000241821)
(0.11206 6.86158e-05 0.000203667)
(0.110418 -0.000254527 7.03989e-05)
(0.104072 -0.000128482 6.4619e-05)
(0.110352 -0.000652068 -9.0047e-05)
(0.112208 -0.000555321 0.000430949)
(0.111308 -0.000806735 -7.69092e-05)
(0.102889 -0.000362268 -0.000162523)
(0.113143 0.000146058 -0.000215656)
(0.114049 0.00011725 0.000120293)
(0.114305 -0.000132562 5.04684e-06)
(0.110296 -1.5896e-05 3.48311e-05)
(0.11092 0.000475563 0.000156234)
(0.110317 0.000265567 0.000260514)
(0.103996 0.000198891 0.000210954)
(0.11602 -0.000474943 -1.55717e-05)
(0.11562 -0.000355108 7.21488e-05)
(0.116138 -0.000382747 -6.77953e-05)
(0.115858 -0.000431353 6.14328e-05)
(0.115478 -0.000205367 0.000160172)
(0.115542 -0.000134993 -3.2042e-05)
(0.116595 -0.000234931 0.000113593)
(0.116823 -0.000209217 0.000206595)
(0.109085 0.000128483 -0.000767948)
(0.109199 8.15591e-05 -0.000260659)
(0.110765 0.000121512 -0.000361874)
(0.104347 -0.000251288 -0.000335645)
(0.11239 -0.000272088 0.000284189)
(0.113112 -0.000765591 4.85491e-05)
(0.113027 -0.000307327 9.47187e-05)
(0.107313 -0.000264058 0.000141005)
(0.113841 0.000572596 -0.000253905)
(0.11497 0.000351599 -0.000426025)
(0.115042 0.000299994 -0.000524718)
(0.111699 0.000121547 -0.000661145)
(0.111881 -2.92475e-05 -6.11641e-06)
(0.109922 -5.97852e-05 -8.5685e-05)
(0.109516 -0.000200382 -0.000183233)
(0.104155 9.13531e-05 -7.71037e-05)
(0.115573 -0.000114731 0.000345924)
(0.111797 -1.31475e-05 2.18654e-05)
(0.115111 -0.000341933 -0.000350839)
(0.116383 -5.75068e-05 -0.000347222)
(0.115844 -0.000124658 -9.1132e-05)
(0.115583 -2.16778e-05 -0.000142145)
(0.114877 0.000308742 -2.80106e-05)
(0.113978 0.000288593 -1.36096e-05)
(0.11159 0.000404318 0.000198851)
(0.115826 7.96357e-05 -7.07278e-06)
(0.115161 0.000144011 0.000231363)
(0.115824 7.75445e-05 0.000325351)
(0.115813 0.000139973 0.000198239)
(0.115869 -6.48082e-05 -2.87576e-05)
(0.115763 -0.000237395 -5.40263e-05)
(0.111436 -0.000194428 -9.23555e-05)
(0.114886 -6.97086e-05 -0.000261724)
(0.114094 -0.00015591 -7.05538e-05)
(0.114877 -0.000152537 -2.95516e-05)
(0.110383 1.31026e-05 -0.00033084)
(0.115044 -5.49212e-05 -0.000102304)
(0.115278 0.000208927 2.56929e-06)
(0.111375 0.000111345 4.74823e-05)
(0.111675 -0.000410021 0.00049571)
(0.114349 -0.000402486 0.000397033)
(0.114478 -0.000583935 0.000440807)
(0.113533 6.96417e-05 0.000162188)
(0.114699 -0.000164613 -0.000113505)
(0.114772 -5.61904e-05 1.02853e-05)
(0.111119 0.000123086 0.000196438)
(0.111402 0.000426612 0.000102224)
(0.109279 0.000380377 -0.000295279)
(0.103238 0.000795232 -0.000262845)
(0.115029 1.4302e-05 0.000114006)
(0.116066 0.000163302 -0.000210471)
(0.116411 0.00061338 -0.00022462)
(0.114445 -0.000259689 0.000121587)
(0.114534 -0.000231083 0.000303946)
(0.109908 -0.000457171 0.000394401)
(0.115182 0.00028521 0.000107136)
(0.11595 -2.3384e-06 9.28609e-05)
(0.115857 0.000211563 -8.04449e-05)
(0.115949 0.00028107 -3.70648e-05)
(0.11134 -5.1553e-05 -9.73038e-05)
(0.112041 -0.000169834 7.25075e-05)
(0.11156 -0.000321006 -3.79978e-05)
(0.103135 9.15348e-05 3.32927e-05)
(0.110163 7.56974e-05 0.000285634)
(0.109998 -0.000129979 0.000262871)
(0.111189 -6.25716e-05 0.000462595)
(0.103587 -0.000200985 0.000268504)
(0.114647 -0.000132914 -0.00037413)
(0.115443 -2.68964e-05 6.71053e-05)
(0.116213 -0.000177403 -0.000111718)
(0.115917 0.00010722 3.01194e-05)
(0.11496 -0.000255046 -0.000111125)
(0.11603 -1.80278e-06 -0.000148508)
(0.114674 0.000135426 -0.000103753)
(0.113129 -0.000137153 0.000612164)
(0.114863 -0.000153471 0.000158927)
(0.114561 -0.000143883 0.000352471)
(0.113588 -0.000183991 0.000592715)
(0.114404 -8.97347e-05 8.55226e-05)
(0.115428 -0.000237444 5.26331e-06)
(0.111438 -3.04826e-05 0.000196023)
(0.115718 -7.71435e-05 -0.000375486)
(0.115816 7.64215e-05 -0.000255874)
(0.114572 -4.30331e-05 -5.21751e-05)
(0.11135 0.000191041 -0.000226657)
(0.11438 3.65043e-05 -0.000398623)
(0.111824 -1.83319e-05 -0.000399653)
(0.114322 0.000165422 -0.000257851)
(0.11171 0.000289865 0.0002144)
(0.114273 0.000408388 0.000342324)
(0.112332 0.000178622 0.000524875)
(0.114537 0.000300485 0.000295778)
(0.116265 0.000100965 -0.000223498)
(0.114688 0.000292231 -0.000316022)
(0.115057 -0.000153967 -0.000504013)
(0.111659 8.22619e-05 2.6363e-05)
(0.103683 -6.59065e-06 -0.000184153)
(0.11177 0.00014023 -8.41129e-05)
(0.114068 1.85311e-05 -7.86836e-05)
(0.116425 0.000262818 -5.10644e-05)
(0.116289 4.5218e-05 -4.25951e-05)
(0.115727 0.000102018 6.19716e-05)
(0.116373 8.28826e-05 0.00013294)
(0.115811 -0.000355853 6.46544e-07)
(0.115728 -0.0004365 -0.000177724)
(0.115751 -0.000409033 -0.000146948)
(0.115827 -0.000403655 -0.000298791)
(0.115821 -0.000461659 3.25312e-05)
(0.115708 -0.000469801 3.93661e-06)
(0.114449 -0.000410524 0.000125068)
(0.113976 -0.000784267 0.00022584)
(0.115368 -0.000753936 -5.23807e-05)
(0.115009 -0.000761819 -0.000224618)
(0.114016 -0.000127083 -0.000235152)
(0.113972 4.08762e-05 -0.000443205)
(0.111448 -1.84153e-05 0.000137416)
(0.115758 0.000164026 -0.000223769)
(0.111812 -7.53384e-05 -0.000180658)
(0.114111 0.000387965 -0.000204541)
(0.114179 0.00041119 -0.000336229)
(0.114951 -4.80138e-05 -0.000226184)
(0.111119 -0.000127989 -0.000187973)
(0.115892 7.79798e-05 -0.000200359)
(0.114782 0.000174204 -0.000243563)
(0.115311 -2.71654e-05 -0.000325386)
(0.103858 3.26849e-05 -0.000204527)
(0.114668 0.000112894 -0.000176444)
(0.111597 -1.65177e-05 -0.000107648)
(0.112133 0.000146134 -0.000199719)
(0.114323 0.000211172 6.47615e-05)
(0.111937 0.00022816 -0.00019941)
(0.11454 0.000448056 -0.000126543)
(0.114895 -4.53149e-05 -0.000198982)
(0.114514 -1.62158e-05 -0.000257474)
(0.114357 8.79497e-05 -2.1066e-05)
(0.111806 0.000127113 -0.000283387)
(0.115927 -2.00825e-05 -0.000299242)
(0.114605 -0.000100177 -0.000469745)
(0.115479 -0.000200491 -0.000431096)
(0.114312 -0.000277592 -0.000425532)
(0.114157 -0.000391927 -0.000338979)
(0.115702 -0.00025985 -0.000218541)
(0.114991 -0.000310334 -8.79637e-05)
(0.115762 0.000149403 -0.000346223)
(0.115967 -6.82331e-05 -0.000267494)
(0.110967 -0.00057121 -0.000292191)
(0.111718 -0.000730713 -0.000362647)
(0.103349 -9.64327e-05 -0.000295845)
(0.113547 -0.00040532 0.000103502)
(0.115003 -0.000357851 -2.36135e-05)
(0.116016 -0.000238839 -0.000201029)
(0.114706 -7.71358e-05 -0.000215686)
(0.116161 -0.000303497 -0.000155474)
(0.116203 -6.8565e-05 8.43393e-05)
(0.115899 1.99646e-05 -0.000119567)
(0.115274 0.000131557 0.00016998)
(0.112272 -0.000159903 -0.000398853)
(0.115296 -0.000200551 -0.000445155)
(0.108488 0.000285806 0.000206568)
(0.110032 -0.000110533 0.000637408)
(0.109828 -0.000208516 0.00037789)
(0.102157 -0.00025483 0.000440277)
(0.115262 -0.000395401 -1.5338e-05)
(0.114768 -0.00047751 0.000139679)
(0.111981 -0.000418974 0.000561748)
(0.109739 -0.000647241 -0.000294846)
(0.104039 -0.00026456 -0.000174381)
(0.11388 0.000200689 -0.00021392)
(0.114012 0.00028941 4.07265e-05)
(0.101645 1.7096e-05 -0.000232712)
(0.114855 -0.000178614 0.000238581)
(0.116128 -0.000278613 0.000244415)
(0.110455 -6.60367e-05 0.000230167)
(0.112515 0.000374323 0.000294646)
(0.113027 -4.60755e-05 6.97412e-05)
(0.111203 0.00032862 -0.000163278)
(0.111283 0.000153373 -0.000228126)
(0.111598 0.000278304 -0.000445127)
(0.103179 3.68945e-05 -7.9407e-05)
(0.114529 -0.000123108 6.50946e-05)
(0.114128 -7.62766e-05 8.57189e-05)
(0.11361 -5.52239e-05 0.000145185)
(0.115178 0.000469589 -0.000180024)
(0.115918 0.000424384 -0.000206647)
(0.113666 -3.28975e-05 -0.000155622)
(0.114395 -0.000111215 -0.000266568)
(0.115889 -0.000429672 -0.000197708)
(0.115488 0.000139839 0.00023637)
(0.111957 -0.000264796 -7.79827e-05)
(0.111811 -9.40482e-05 -0.000146752)
(0.102817 -8.7369e-05 7.50257e-06)
(0.110535 -0.000539169 5.21057e-05)
(0.1095 -0.000308986 0.000343101)
(0.103789 -0.000281054 8.59164e-05)
(0.115491 -0.000549484 0.000207784)
(0.114124 -0.000126416 0.000356624)
(0.11498 -0.00035701 0.000401145)
(0.113995 -0.000257972 1.88355e-05)
(0.115564 0.00017411 -0.000435039)
(0.116325 6.52426e-05 -0.000430776)
(0.114508 0.000210607 -0.000361586)
(0.111138 0.000439893 0.00010804)
(0.111794 0.000184058 4.17871e-05)
(0.10245 0.000294083 -0.000384872)
(0.115971 -0.000597933 7.12976e-05)
(0.116003 -0.000612068 0.000207887)
(0.115805 -0.00052268 0.000199413)
(0.113008 -5.74317e-05 -0.000144413)
(0.111277 0.000145293 -0.000378808)
(0.103968 1.48416e-05 -0.000300222)
(0.109904 -7.93847e-05 0.000157002)
(0.109901 -0.0002903 8.24735e-05)
(0.104335 -0.000126463 -4.50387e-05)
(0.114457 0.000176366 -0.000198508)
(0.11427 0.000160415 -0.000150616)
(0.115243 0.000257906 4.83545e-05)
(0.111478 -0.000133613 -0.000155319)
(0.114091 -0.000178531 -0.000271646)
(0.115618 -0.00027805 2.10538e-05)
(0.113969 -0.000180259 0.000325296)
(0.115126 -0.000131144 -6.3802e-06)
(0.11333 -0.000727214 0.000281811)
(0.114474 -0.000541307 9.12789e-05)
(0.114544 -0.000568178 2.37296e-05)
(0.109913 -0.000483103 -7.32142e-07)
(0.110348 -0.000159741 0.000443566)
(0.113218 0.00014388 0.000369998)
(0.111874 -4.12438e-05 5.54854e-05)