/*--------------------------------*- C++ -*----------------------------------*\
| =========                 |                                                 |
| \\      /  F ield         | OpenFOAM: The Open Source CFD Toolbox           |
|  \\    /   O peration     | Version:  2212                                  |
|   \\  /    A nd           | Website:  www.openfoam.com                      |
|    \\/     M anipulation  |                                                 |
\*---------------------------------------------------------------------------*/
FoamFile
{
    version     2.0;
    format      ascii;
    arch        "LSB;label=32;scalar=64";
    class       volScalarField;
    location    "0.068";
    object      epsilon;
}
// * * * * * * * * * * * * * * * * * * * * * * * * * * * * * * * * * * * * * //

dimensions      [0 2 -3 0 0 0 0];

internalField   nonuniform List<scalar> 
31639
(
0.149116
0.151278
0.151703
0.144947
0.153338
0.155342
0.158471
0.150414
0.150903
0.146999
0.148759
0.147263
0.149769
0.145861
0.151839
0.160461
0.149998
0.156607
0.157267
0.153247
0.172334
0.147732
0.146704
0.156762
0.161712
0.15185
0.152861
0.12388
0.157308
0.146965
0.146172
0.15853
0.145158
0.160595
0.167778
0.146973
0.174416
0.146182
0.147155
0.182865
0.166603
0.171179
0.146693
0.148867
0.14965
0.146649
0.152831
0.153854
0.14861
0.145337
0.146924
0.177279
0.146066
0.176588
0.154576
0.151846
0.173637
0.151916
0.150989
0.170831
0.150409
0.150108
0.162868
0.153575
0.148749
0.145035
0.150266
0.150569
0.166495
0.145192
0.147094
0.153835
0.146944
0.151102
0.146442
0.169206
0.146382
0.155679
0.15119
0.148659
0.161509
0.183204
0.146688
0.14951
0.148107
0.147274
0.145691
0.146042
0.164781
0.145514
0.150325
0.152298
0.16973
0.151926
0.160285
0.152962
0.152376
0.151171
0.150368
0.171695
0.145999
0.146646
0.151152
0.171938
0.170244
0.146105
0.173703
0.177933
0.160643
0.176098
0.147329
0.171963
0.153258
0.156138
0.150255
0.176125
0.154481
0.155974
0.149521
0.1515
0.148893
0.14721
0.147048
0.149985
0.152587
0.147202
0.151737
0.160557
0.161765
0.146734
0.144829
0.146439
0.147005
0.156619
0.147966
0.150411
0.170004
0.174279
0.146816
0.150981
0.151327
0.146616
0.146983
0.173601
0.179246
0.146673
0.147784
0.169408
0.169435
0.146477
0.165602
0.153142
0.157293
0.148796
0.16902
0.145408
0.15187
0.168771
0.168964
0.158554
0.146508
0.169951
0.164721
0.174467
0.173841
0.150805
0.170506
0.146415
0.147125
0.170722
0.152394
0.154389
0.169821
0.14974
0.145549
0.14803
0.15012
0.146798
0.149886
0.149916
0.152188
0.155426
0.152707
0.17962
0.152551
0.145888
0.150668
0.146208
0.172999
0.173095
0.148372
0.148553
0.149396
0.151741
0.151075
0.156048
0.156694
0.146686
0.171107
0.155135
0.14767
0.14655
0.147106
0.147398
0.154998
0.151503
0.152717
0.151381
0.147744
0.180244
0.151832
0.15572
0.150071
0.148018
0.151816
0.145967
0.169563
0.159193
0.149538
0.147603
0.147235
0.154264
0.171227
0.156205
0.171808
0.156576
0.148797
0.161785
0.16978
0.149987
0.148783
0.146307
0.167344
0.175113
0.150195
0.148362
0.171792
0.146011
0.16444
0.173045
0.151871
0.149824
0.152194
0.162031
0.16282
0.150959
0.151351
0.152035
0.170028
0.151337
0.152347
0.171017
0.161866
0.146864
0.148277
0.157276
0.168576
0.147626
0.148289
0.157035
0.144729
0.146232
0.152559
0.14681
0.152235
0.156416
0.171612
0.158149
0.145611
0.152608
0.140038
0.158656
0.153262
0.15053
0.145406
0.154196
0.171715
0.155404
0.162681
0.147015
0.15484
0.146846
0.145896
0.155728
0.168666
0.165995
0.168319
0.17683
0.146845
0.165139
0.15185
0.152055
0.158274
0.167138
0.146711
0.157941
0.164441
0.147666
0.152187
0.164514
0.151856
0.16537
0.15151
0.152139
0.170834
0.155882
0.15327
0.179781
0.176118
0.146816
0.145685
0.140424
0.172453
0.169244
0.147378
0.165159
0.161422
0.147076
0.148861
0.152136
0.147646
0.145446
0.16852
0.146279
0.175908
0.17729
0.149554
0.146777
0.146735
0.145561
0.148365
0.166409
0.150358
0.151652
0.147671
0.147053
0.144447
0.152003
0.153595
0.150445
0.147161
0.148767
0.151534
0.153038
0.151484
0.153391
0.149421
0.15226
0.169202
0.15232
0.145693
0.155454
0.14869
0.145994
0.152086
0.171235
0.152178
0.151857
0.172826
0.147683
0.167539
0.15172
0.141827
0.178504
0.15159
0.152169
0.170743
0.150965
0.167843
0.15343
0.146944
0.151378
0.176906
0.14973
0.167126
0.149706
0.146222
0.147645
0.14924
0.16727
0.147866
0.172483
0.152005
0.176623
0.145876
0.147004
0.146226
0.146295
0.159333
0.148903
0.151285
0.150289
0.152046
0.171545
0.152385
0.148489
0.147855
0.148222
0.15204
0.146369
0.155144
0.170005
0.155958
0.149468
0.148417
0.17754
0.146369
0.146864
0.151964
0.148725
0.147386
0.153259
0.146252
0.162165
0.149446
0.147531
0.174975
0.151857
0.150208
0.167677
0.171757
0.171473
0.159245
0.173876
0.153213
0.144791
0.158437
0.148828
0.171079
0.147561
0.145792
0.15151
0.148021
0.155315
0.147534
0.15299
0.154717
0.145509
0.150825
0.170783
0.151638
0.147148
0.146513
0.149386
0.145964
0.152939
0.149025
0.149029
0.147032
0.149404
0.169245
0.153558
0.178345
0.159935
0.152062
0.17265
0.17722
0.157376
0.148127
0.147616
0.170441
0.149148
0.160018
0.151442
0.149482
0.141698
0.152106
0.177623
0.152348
0.146478
0.146202
0.148156
0.155485
0.171855
0.150129
0.150504
0.147399
0.175075
0.17128
0.151869
0.17208
0.166483
0.150505
0.175272
0.15525
0.164808
0.150329
0.171057
0.145663
0.147499
0.147127
0.146883
0.163484
0.146723
0.146897
0.150408
0.148541
0.150561
0.146412
0.149921
0.160002
0.147507
0.146172
0.151499
0.158198
0.145262
0.151314
0.177419
0.177859
0.15129
0.147747
0.145662
0.152798
0.149208
0.150175
0.147714
0.151132
0.155401
0.154459
0.168271
0.151425
0.151592
0.146099
0.166375
0.164661
0.165253
0.152792
0.151776
0.177289
0.150228
0.160233
0.148852
0.153925
0.146773
0.154664
0.168959
0.148632
0.145232
0.164582
0.147097
0.140455
0.144515
0.152606
0.124261
0.165405
0.151605
0.151657
0.16791
0.169155
0.151302
0.150554
0.14892
0.165018
0.154367
0.146745
0.151907
0.170504
0.162362
0.150843
0.145925
0.171586
0.178953
0.148289
0.173323
0.150116
0.145754
0.17142
0.151201
0.149637
0.155039
0.174723
0.146417
0.154837
0.167537
0.146532
0.14974
0.152009
0.147969
0.177614
0.15962
0.151611
0.157609
0.164396
0.157627
0.151789
0.146757
0.148312
0.147667
0.146383
0.147636
0.161388
0.147279
0.147405
0.147897
0.164245
0.151127
0.152136
0.145309
0.16809
0.177736
0.1454
0.163695
0.144705
0.152861
0.168295
0.151428
0.147035
0.152931
0.150109
0.171671
0.147306
0.150204
0.177437
0.14689
0.147613
0.130843
0.170597
0.169859
0.158779
0.150113
0.151737
0.153285
0.150788
0.147297
0.152082
0.153182
0.17088
0.145168
0.175517
0.150624
0.156574
0.151312
0.146477
0.150166
0.163434
0.173229
0.171551
0.155959
0.146532
0.162711
0.14528
0.155732
0.146707
0.17008
0.153437
0.148951
0.144119
0.14673
0.146629
0.150225
0.152374
0.145395
0.146208
0.147251
0.163801
0.147055
0.169119
0.147972
0.153988
0.152097
0.166905
0.15293
0.177776
0.145843
0.153598
0.147069
0.151167
0.153781
0.167772
0.138321
0.172092
0.181459
0.16954
0.166913
0.170298
0.153884
0.175669
0.146333
0.151003
0.178418
0.147207
0.169235
0.158027
0.152341
0.156419
0.149468
0.145601
0.144059
0.148033
0.153192
0.149557
0.157222
0.156079
0.17272
0.156092
0.145832
0.152313
0.147885
0.14746
0.171495
0.147069
0.147279
0.147474
0.147405
0.14779
0.150167
0.146174
0.145705
0.15256
0.147662
0.147607
0.167912
0.147426
0.157792
0.151403
0.152683
0.150893
0.159933
0.147149
0.151268
0.15192
0.155908
0.16826
0.145602
0.151193
0.15831
0.171693
0.147485
0.172695
0.145783
0.148839
0.153178
0.151258
0.145422
0.149283
0.173566
0.149596
0.157073
0.156829
0.165427
0.146548
0.14734
0.153537
0.152486
0.152027
0.15013
0.156704
0.153472
0.17542
0.147176
0.149984
0.14616
0.165276
0.151131
0.149979
0.152866
0.159645
0.148061
0.147311
0.153738
0.173319
0.174272
0.152451
0.174692
0.163777
0.151979
0.15083
0.145946
0.17472
0.151866
0.146157
0.166537
0.170339
0.148948
0.166857
0.152275
0.166703
0.148763
0.16244
0.158767
0.146323
0.174371
0.153175
0.152883
0.147709
0.14751
0.145518
0.170365
0.147574
0.148102
0.158682
0.145746
0.147857
0.150939
0.140452
0.150706
0.147453
0.145864
0.147061
0.148577
0.155905
0.150372
0.150976
0.169534
0.153374
0.150581
0.147025
0.149147
0.153624
0.145999
0.147064
0.149682
0.147287
0.146425
0.14713
0.149505
0.171223
0.155289
0.147701
0.179981
0.152058
0.153293
0.156037
0.153349
0.145625
0.148004
0.146707
0.153564
0.148406
0.15032
0.148592
0.151007
0.157387
0.170038
0.147553
0.1729
0.15518
0.155275
0.153193
0.1499
0.145134
0.171186
0.148041
0.167614
0.148695
0.158829
0.152915
0.153086
0.145795
0.170761
0.147377
0.146625
0.150101
0.152614
0.1528
0.176618
0.14699
0.148779
0.1501
0.146599
0.146021
0.149298
0.152765
0.147334
0.165824
0.155212
0.145765
0.170918
0.163837
0.146817
0.146293
0.158012
0.156151
0.158382
0.160395
0.152167
0.163075
0.147193
0.148347
0.179872
0.150632
0.145492
0.148755
0.150262
0.15001
0.146817
0.166673
0.166326
0.144387
0.146697
0.151094
0.165657
0.147401
0.147696
0.164277
0.148493
0.146397
0.146839
0.150047
0.147077
0.152864
0.149151
0.150893
0.157525
0.169574
0.149675
0.150046
0.165348
0.14592
0.173615
0.15395
0.154249
0.170191
0.154346
0.156851
0.148976
0.152632
0.148616
0.172298
0.173373
0.154564
0.170376
0.153572
0.14613
0.152584
0.146767
0.157129
0.151399
0.148532
0.157537
0.153875
0.15112
0.15198
0.151725
0.167405
0.151896
0.150109
0.145243
0.14583
0.173861
0.171335
0.152094
0.145831
0.162719
0.154398
0.151413
0.151275
0.146246
0.15473
0.153009
0.151634
0.169479
0.147236
0.149783
0.168264
0.160749
0.150128
0.157317
0.146444
0.147094
0.152495
0.167817
0.146781
0.17033
0.154594
0.150089
0.161329
0.148257
0.174055
0.151049
0.148145
0.153351
0.177207
0.170926
0.145798
0.147846
0.157951
0.145533
0.151293
0.15178
0.172892
0.166947
0.153186
0.152647
0.152568
0.146465
0.144822
0.147459
0.144927
0.150894
0.151744
0.147948
0.172629
0.149367
0.148674
0.149731
0.15189
0.14828
0.156216
0.145907
0.153865
0.176439
0.146016
0.163252
0.1469
0.157361
0.145477
0.169738
0.148612
0.145994
0.153352
0.151193
0.174136
0.146661
0.147369
0.146559
0.171177
0.145093
0.153112
0.147531
0.149034
0.147998
0.148115
0.150518
0.157179
0.148282
0.168804
0.169397
0.170282
0.161724
0.150821
0.17208
0.146029
0.147834
0.149903
0.154797
0.151181
0.151943
0.148544
0.15164
0.157011
0.146902
0.151777
0.158834
0.146333
0.150276
0.153748
0.148505
0.159771
0.147186
0.146747
0.145452
0.147376
0.148113
0.158586
0.146748
0.152747
0.151718
0.152117
0.151443
0.145605
0.151334
0.147998
0.15602
0.153209
0.149545
0.167881
0.175484
0.148366
0.159339
0.148371
0.158357
0.172928
0.151972
0.147354
0.162842
0.157802
0.150968
0.145853
0.14708
0.153338
0.166043
0.152039
0.150808
0.157172
0.151296
0.151657
0.177608
0.159818
0.158844
0.150748
0.14965
0.152484
0.148913
0.150208
0.152346
0.152066
0.164684
0.15971
0.178846
0.150583
0.150834
0.147333
0.145271
0.144687
0.170788
0.150306
0.156603
0.151196
0.149636
0.147306
0.172128
0.143847
0.169186
0.150673
0.151856
0.151807
0.14822
0.157875
0.151866
0.164474
0.152656
0.155797
0.148885
0.157503
0.168503
0.14684
0.148822
0.150587
0.148001
0.148003
0.168446
0.156541
0.152547
0.165603
0.146998
0.148768
0.145704
0.145759
0.145463
0.170733
0.172915
0.167852
0.146156
0.173565
0.146863
0.149809
0.167298
0.157552
0.148305
0.146898
0.160097
0.157129
0.152582
0.149944
0.147697
0.151995
0.165284
0.152386
0.148948
0.148076
0.148691
0.146174
0.145104
0.145978
0.149788
0.16972
0.173696
0.151854
0.159651
0.148973
0.174797
0.148833
0.152628
0.145222
0.168178
0.150793
0.149252
0.152382
0.157487
0.169384
0.147377
0.163281
0.149957
0.152294
0.145489
0.144122
0.151532
0.175128
0.171475
0.153412
0.152721
0.156704
0.147973
0.173318
0.140117
0.14785
0.158241
0.148873
0.14343
0.148668
0.145725
0.146979
0.150717
0.15002
0.174716
0.157314
0.146221
0.169062
0.148602
0.154349
0.164767
0.151258
0.133065
0.152125
0.147731
0.147492
0.17293
0.153751
0.151637
0.169416
0.157128
0.152207
0.15516
0.148612
0.167393
0.168705
0.152378
0.15564
0.144568
0.145826
0.145618
0.152394
0.150782
0.150429
0.150377
0.145688
0.164516
0.151282
0.153182
0.146733
0.149594
0.157375
0.153368
0.148385
0.171462
0.151948
0.147174
0.152494
0.182099
0.152228
0.171957
0.14972
0.1773
0.148192
0.14614
0.149788
0.150474
0.164533
0.168065
0.147605
0.148422
0.148717
0.151156
0.157176
0.147137
0.147961
0.147106
0.171863
0.160025
0.147818
0.148545
0.151878
0.151604
0.171362
0.14764
0.146995
0.149727
0.150521
0.149778
0.151487
0.146231
0.148535
0.166955
0.151978
0.14867
0.152231
0.1521
0.149207
0.178241
0.163224
0.14637
0.148983
0.149064
0.147556
0.148927
0.146338
0.150761
0.153173
0.148271
0.147251
0.159149
0.154402
0.153288
0.151603
0.147302
0.176075
0.151034
0.170598
0.14716
0.171189
0.168643
0.151174
0.174507
0.156898
0.150084
0.146803
0.1464
0.158447
0.155657
0.143646
0.163208
0.165661
0.156778
0.161199
0.146489
0.148757
0.150659
0.171858
0.149517
0.147526
0.145972
0.168709
0.166052
0.15264
0.150021
0.147795
0.163113
0.1681
0.153085
0.156463
0.145532
0.148492
0.174278
0.14931
0.148361
0.167768
0.17673
0.147315
0.163361
0.164086
0.145633
0.148508
0.145922
0.145309
0.149131
0.156089
0.146948
0.158979
0.145738
0.158865
0.144618
0.147841
0.152094
0.169446
0.146302
0.14515
0.154925
0.152736
0.15136
0.163741
0.128668
0.149593
0.15525
0.14464
0.156228
0.142505
0.170057
0.148205
0.146845
0.172881
0.147051
0.152773
0.178704
0.170049
0.15162
0.150368
0.14846
0.157667
0.167269
0.146972
0.14648
0.14752
0.149258
0.144732
0.170589
0.147738
0.152336
0.16949
0.169342
0.183224
0.165949
0.147807
0.157396
0.151531
0.147546
0.159754
0.158029
0.176001
0.175406
0.145808
0.145875
0.167295
0.147867
0.14943
0.169039
0.153504
0.152894
0.164962
0.155016
0.144538
0.165645
0.175898
0.145304
0.147702
0.162151
0.149008
0.160265
0.162796
0.169243
0.14798
0.165716
0.170909
0.15223
0.146925
0.152603
0.150716
0.147864
0.151996
0.144275
0.136167
0.148304
0.168426
0.145918
0.14766
0.151705
0.158205
0.150027
0.16577
0.148825
0.15226
0.157118
0.171018
0.174387
0.179824
0.157306
0.170453
0.154156
0.166579
0.155878
0.146428
0.1477
0.154592
0.150147
0.149789
0.15439
0.146935
0.175117
0.150423
0.14564
0.145486
0.152167
0.144884
0.163634
0.151304
0.153282
0.171146
0.150126
0.14522
0.147445
0.142451
0.14747
0.151137
0.176961
0.171657
0.152712
0.145647
0.151999
0.146297
0.15819
0.155591
0.16578
0.173324
0.172771
0.175984
0.148528
0.151316
0.142725
0.152474
0.156311
0.146642
0.175843
0.146999
0.148928
0.147273
0.154257
0.151251
0.147231
0.146664
0.147493
0.138393
0.151964
0.147074
0.145057
0.148182
0.146782
0.149402
0.146301
0.148566
0.15984
0.148485
0.148489
0.147608
0.148561
0.172692
0.145973
0.147485
0.147466
0.146179
0.170061
0.179029
0.152352
0.148465
0.159201
0.147534
0.145717
0.144745
0.145442
0.157615
0.149334
0.152732
0.148015
0.174163
0.173383
0.154373
0.149569
0.166505
0.147544
0.169225
0.155155
0.152604
0.14958
0.155496
0.144683
0.149632
0.149336
0.149661
0.148602
0.151042
0.158013
0.177106
0.146541
0.183065
0.179954
0.133038
0.170938
0.174185
0.153415
0.152329
0.168424
0.157779
0.181398
0.166909
0.149555
0.148951
0.173152
0.172985
0.146898
0.172706
0.149803
0.145427
0.153487
0.147663
0.165305
0.16962
0.15447
0.1476
0.163339
0.168712
0.153001
0.160209
0.150861
0.151654
0.171711
0.147718
0.173412
0.172589
0.154738
0.146927
0.158467
0.157008
0.15531
0.146088
0.176335
0.165529
0.153643
0.140299
0.148829
0.174972
0.17883
0.15583
0.143998
0.151476
0.153578
0.152716
0.149623
0.150442
0.167554
0.146039
0.158961
0.169152
0.177961
0.146786
0.151194
0.145615
0.149578
0.147371
0.16954
0.155425
0.175822
0.184725
0.151133
0.168867
0.15914
0.151435
0.13436
0.170824
0.146517
0.148062
0.145487
0.149344
0.184326
0.150224
0.172047
0.147029
0.172725
0.146242
0.179603
0.151808
0.153393
0.159839
0.157181
0.177181
0.1606
0.150877
0.147449
0.148643
0.147919
0.146825
0.170669
0.146238
0.125457
0.151019
0.148851
0.147841
0.148288
0.142163
0.14741
0.15554
0.158719
0.158636
0.147124
0.146956
0.158657
0.162066
0.149448
0.153828
0.147973
0.141991
0.150662
0.152554
0.152125
0.146243
0.146377
0.147179
0.154775
0.147559
0.149364
0.140469
0.150505
0.156794
0.148802
0.152912
0.145058
0.165793
0.167868
0.150611
0.142155
0.143926
0.139233
0.147049
0.150432
0.147333
0.166349
0.15766
0.146712
0.1475
0.146787
0.14589
0.156353
0.144887
0.167662
0.145943
0.158518
0.151704
0.155899
0.151484
0.149699
0.14763
0.17025
0.147792
0.144345
0.151992
0.167724
0.146088
0.14559
0.147338
0.151314
0.151238
0.149708
0.170042
0.145381
0.155226
0.151104
0.162219
0.159421
0.165689
0.17324
0.158055
0.147012
0.152896
0.167255
0.153984
0.171292
0.151841
0.1519
0.177236
0.169712
0.160582
0.151481
0.149465
0.156839
0.134984
0.15475
0.135507
0.161455
0.145459
0.146446
0.147615
0.138145
0.152287
0.173722
0.166745
0.148102
0.158437
0.154936
0.147536
0.144823
0.149118
0.144231
0.173959
0.140643
0.146371
0.154607
0.143578
0.143897
0.150893
0.145097
0.14517
0.15805
0.16782
0.153077
0.171673
0.176308
0.153177
0.151797
0.151279
0.150579
0.150682
0.149309
0.179423
0.157696
0.142934
0.14726
0.173297
0.153887
0.16241
0.152474
0.146543
0.156559
0.149049
0.14706
0.148289
0.173755
0.147555
0.172413
0.144602
0.147408
0.149376
0.144533
0.15036
0.145097
0.170716
0.141268
0.146606
0.160211
0.148187
0.153333
0.157065
0.147869
0.152688
0.147584
0.146035
0.143885
0.150571
0.145674
0.154144
0.145543
0.165431
0.153549
0.171102
0.171483
0.151174
0.151166
0.151936
0.147717
0.143195
0.146602
0.173109
0.148818
0.146108
0.151199
0.145337
0.16909
0.175536
0.152543
0.174902
0.1462
0.149136
0.17678
0.153964
0.147744
0.152026
0.171555
0.163169
0.175178
0.146423
0.175447
0.148205
0.150935
0.173804
0.148042
0.147327
0.147134
0.145576
0.163605
0.146466
0.147671
0.163662
0.148872
0.14606
0.149634
0.167439
0.142183
0.151512
0.145425
0.156228
0.150605
0.155431
0.155796
0.1567
0.155872
0.141043
0.148054
0.146798
0.161677
0.152588
0.149852
0.14472
0.148966
0.175406
0.145049
0.164393
0.14947
0.146274
0.143359
0.157456
0.149635
0.149523
0.150866
0.150599
0.154275
0.170876
0.169125
0.151857
0.147337
0.136151
0.157556
0.145983
0.168565
0.150395
0.171381
0.147259
0.146456
0.148059
0.170628
0.147388
0.169602
0.149762
0.149919
0.162321
0.1489
0.163033
0.15931
0.148362
0.170021
0.158596
0.153194
0.177919
0.15067
0.147489
0.178391
0.158693
0.140691
0.153773
0.151969
0.146464
0.148023
0.145839
0.160284
0.173941
0.177411
0.120303
0.145356
0.138585
0.147446
0.14847
0.16753
0.167973
0.151835
0.149475
0.176437
0.149884
0.149007
0.158163
0.147538
0.154657
0.143727
0.16427
0.154153
0.147666
0.183272
0.145408
0.138201
0.147438
0.14567
0.146466
0.151776
0.172768
0.146712
0.148145
0.148577
0.147176
0.143676
0.145361
0.14906
0.149543
0.145248
0.152646
0.149542
0.168823
0.1531
0.145281
0.137203
0.146542
0.151347
0.151153
0.145081
0.167982
0.146726
0.169204
0.147534
0.148855
0.154213
0.14763
0.156864
0.153039
0.144885
0.153894
0.137969
0.134502
0.148232
0.173901
0.151488
0.151583
0.159741
0.146609
0.15173
0.147752
0.146036
0.170847
0.147076
0.147485
0.14565
0.152588
0.151106
0.17553
0.165701
0.141373
0.169677
0.14869
0.148096
0.165816
0.151173
0.144233
0.158782
0.159749
0.161552
0.15598
0.154368
0.142304
0.156675
0.144314
0.13871
0.146987
0.173744
0.149253
0.146634
0.145989
0.168164
0.160197
0.152574
0.125388
0.16889
0.151295
0.154036
0.147028
0.142482
0.147428
0.147645
0.152096
0.147531
0.149931
0.155808
0.158395
0.146658
0.148273
0.152756
0.140708
0.144364
0.165519
0.171426
0.152584
0.130466
0.149651
0.146531
0.14853
0.145498
0.148505
0.140264
0.1479
0.144432
0.163428
0.154712
0.155517
0.143992
0.149124
0.145423
0.147871
0.151189
0.153633
0.148798
0.149163
0.149987
0.144979
0.149781
0.158466
0.158247
0.165912
0.154396
0.14854
0.166462
0.146413
0.154767
0.146914
0.152588
0.146862
0.150057
0.139641
0.140318
0.150342
0.151656
0.146392
0.159463
0.171124
0.150814
0.152818
0.149147
0.15113
0.15163
0.146281
0.151403
0.174318
0.159529
0.170172
0.149408
0.152479
0.16849
0.145409
0.154335
0.155911
0.148613
0.162966
0.165673
0.145445
0.16365
0.169114
0.122459
0.128802
0.149529
0.16143
0.147539
0.148156
0.158306
0.148773
0.143728
0.142225
0.146919
0.17364
0.146729
0.1354
0.143156
0.165341
0.163239
0.146006
0.173516
0.157025
0.153082
0.147497
0.145528
0.144691
0.154809
0.153509
0.137835
0.151359
0.150855
0.146985
0.154292
0.16767
0.140028
0.151808
0.14283
0.120621
0.166189
0.151464
0.172723
0.169995
0.151603
0.145603
0.157181
0.152154
0.14569
0.143963
0.148266
0.147906
0.176462
0.144025
0.171587
0.146997
0.169842
0.149762
0.144267
0.145837
0.169199
0.154801
0.145891
0.146348
0.149668
0.142579
0.153772
0.146921
0.15234
0.169063
0.151204
0.158703
0.141035
0.143336
0.148079
0.153915
0.145842
0.153389
0.158004
0.169669
0.144686
0.144828
0.177084
0.148003
0.151839
0.148858
0.167893
0.150628
0.154768
0.149257
0.139398
0.155841
0.15159
0.180435
0.149518
0.171531
0.168942
0.152197
0.147762
0.174833
0.148177
0.149094
0.125923
0.176707
0.141741
0.145891
0.178963
0.153147
0.1805
0.172152
0.146996
0.146373
0.152984
0.139537
0.14753
0.151497
0.157057
0.14183
0.150985
0.152047
0.15534
0.142734
0.167114
0.139217
0.15415
0.15509
0.147595
0.145428
0.151703
0.146116
0.153825
0.144505
0.147418
0.154576
0.151685
0.147696
0.153515
0.153149
0.147375
0.147338
0.149387
0.133539
0.139776
0.143031
0.152805
0.160535
0.141367
0.142004
0.161383
0.149828
0.13704
0.170015
0.168075
0.143039
0.149323
0.153856
0.147821
0.145684
0.163215
0.148308
0.148438
0.163906
0.157374
0.170507
0.140709
0.151206
0.151554
0.146123
0.170458
0.152091
0.151105
0.146808
0.143254
0.130087
0.151682
0.147524
0.146777
0.138685
0.150489
0.135283
0.144074
0.145111
0.160659
0.177433
0.158206
0.142484
0.148641
0.164223
0.159688
0.148224
0.148541
0.152481
0.156215
0.180668
0.16107
0.161045
0.151968
0.154297
0.151814
0.146964
0.143727
0.132147
0.147953
0.144502
0.151628
0.157873
0.148281
0.138124
0.167756
0.158763
0.151105
0.13181
0.136304
0.148892
0.151606
0.144957
0.173451
0.156647
0.151324
0.138155
0.138792
0.143399
0.145037
0.147245
0.14526
0.152219
0.154899
0.142806
0.145203
0.147118
0.148135
0.145756
0.144287
0.167681
0.159067
0.174949
0.152752
0.134554
0.155553
0.166199
0.14814
0.160372
0.160847
0.154476
0.143099
0.153903
0.140502
0.151277
0.153579
0.142979
0.166897
0.142723
0.164429
0.148373
0.140243
0.15283
0.152991
0.145854
0.140084
0.163838
0.163788
0.155614
0.155054
0.152537
0.130073
0.149333
0.15613
0.14476
0.153058
0.15812
0.159
0.1305
0.145486
0.150982
0.185055
0.169767
0.156381
0.140661
0.146101
0.165152
0.131523
0.144912
0.17176
0.147411
0.148717
0.146016
0.171661
0.146881
0.164392
0.163854
0.168922
0.143634
0.153037
0.152719
0.147321
0.148289
0.150404
0.16785
0.180943
0.146766
0.153226
0.148303
0.141499
0.166425
0.145272
0.15619
0.135742
0.151491
0.158086
0.158889
0.146471
0.14463
0.161281
0.167654
0.137442
0.142057
0.143218
0.156324
0.16543
0.168783
0.145747
0.148668
0.140785
0.141898
0.156769
0.15013
0.144863
0.139629
0.154152
0.144183
0.154892
0.149617
0.139448
0.146653
0.155635
0.138756
0.151207
0.139825
0.136063
0.14435
0.146183
0.153391
0.142245
0.144678
0.130933
0.170707
0.166779
0.146301
0.166207
0.156054
0.149757
0.135634
0.14678
0.136706
0.168472
0.166148
0.146799
0.128332
0.146002
0.169462
0.161199
0.148732
0.167239
0.149002
0.161171
0.178166
0.15283
0.144834
0.14687
0.147873
0.145264
0.146752
0.146673
0.145104
0.147019
0.153157
0.14305
0.159402
0.145998
0.14253
0.149409
0.1472
0.148792
0.134913
0.149108
0.147941
0.151032
0.158419
0.152935
0.174932
0.142989
0.148492
0.148699
0.146252
0.13762
0.152941
0.174087
0.147231
0.154751
0.156433
0.133637
0.170891
0.14663
0.154044
0.145972
0.148319
0.136752
0.168936
0.154565
0.141333
0.164637
0.139995
0.143953
0.136264
0.154031
0.162178
0.159095
0.135731
0.132774
0.134378
0.164448
0.154947
0.133929
0.146118
0.170317
0.149319
0.143767
0.141349
0.137287
0.149377
0.138502
0.154127
0.150882
0.141405
0.141806
0.161813
0.159823
0.14887
0.156512
0.171701
0.129635
0.146271
0.164192
0.154253
0.165807
0.147123
0.147424
0.151211
0.127022
0.147748
0.147325
0.150263
0.146193
0.15195
0.149299
0.139882
0.15343
0.152456
0.142623
0.152711
0.158289
0.158747
0.146818
0.133216
0.161568
0.135375
0.138156
0.141381
0.135719
0.146932
0.147265
0.147126
0.152607
0.150912
0.140599
0.134057
0.119362
0.150954
0.141997
0.154286
0.157981
0.167187
0.14252
0.144767
0.14879
0.139254
0.137467
0.142407
0.144912
0.162639
0.15376
0.152039
0.134234
0.167233
0.160987
0.167563
0.138864
0.145036
0.135776
0.128342
0.150242
0.133904
0.17214
0.150053
0.169708
0.164003
0.136459
0.160884
0.161825
0.134202
0.12903
0.146197
0.171196
0.148734
0.149636
0.156802
0.141471
0.144391
0.134045
0.137352
0.169923
0.158359
0.151301
0.155141
0.145079
0.153095
0.13798
0.155938
0.150503
0.149943
0.139304
0.123877
0.124384
0.139724
0.14332
0.146836
0.152575
0.143149
0.167377
0.148272
0.153711
0.136107
0.170785
0.143506
0.139798
0.149553
0.170061
0.134462
0.146145
0.119612
0.134123
0.12367
0.148039
0.167499
0.161079
0.142527
0.160842
0.144584
0.170048
0.123085
0.147418
0.161949
0.147495
0.132577
0.177773
0.133835
0.144622
0.129974
0.150246
0.146945
0.137542
0.177433
0.139776
0.153009
0.145246
0.147308
0.150531
0.136121
0.161085
0.172083
0.142129
0.171931
0.128689
0.171681
0.163524
0.136135
0.151598
0.148282
0.153648
0.131018
0.16453
0.146322
0.135546
0.142187
0.16478
0.157737
0.143868
0.128607
0.143568
0.15011
0.145298
0.151088
0.142707
0.144385
0.164728
0.144171
0.149322
0.159421
0.126546
0.137928
0.146659
0.153161
0.148074
0.129434
0.141627
0.13927
0.138982
0.124485
0.12193
0.12071
0.147094
0.157408
0.147585
0.147223
0.162026
0.153101
0.148491
0.15439
0.148568
0.142384
0.148695
0.1386
0.148508
0.175122
0.167868
0.137528
0.148509
0.144133
0.138694
0.153432
0.142874
0.163453
0.135389
0.150255
0.138379
0.14122
0.134921
0.163908
0.135322
0.150241
0.137429
0.141035
0.130964
0.130039
0.145819
0.165642
0.131339
0.173005
0.151761
0.16245
0.125146
0.151001
0.138053
0.138882
0.138208
0.151684
0.142879
0.117672
0.139899
0.130496
0.150206
0.15618
0.151642
0.136464
0.147234
0.146433
0.144834
0.132717
0.140463
0.142601
0.139167
0.124287
0.122141
0.14817
0.131474
0.127628
0.135713
0.14539
0.146737
0.141593
0.130789
0.131322
0.154832
0.139265
0.12885
0.119506
0.143108
0.139147
0.154057
0.1632
0.14722
0.157153
0.140395
0.140927
0.133832
0.12057
0.119692
0.146266
0.159705
0.141415
0.147873
0.144585
0.143271
0.138809
0.12858
0.132676
0.166644
0.143987
0.157195
0.126391
0.147578
0.149213
0.165106
0.166261
0.137784
0.130189
0.131004
0.157006
0.141421
0.146568
0.147314
0.131617
0.133008
0.174689
0.132866
0.118483
0.132008
0.140356
0.133843
0.143135
0.132686
0.14171
0.141465
0.1214
0.159977
0.160023
0.144916
0.141966
0.134151
0.141482
0.144335
0.132066
0.167907
0.134455
0.149919
0.159389
0.138559
0.138986
0.148264
0.140338
0.141771
0.146856
0.158525
0.140769
0.145895
0.134093
0.137004
0.128812
0.136379
0.147637
0.142561
0.141244
0.140785
0.15382
0.132637
0.126793
0.129632
0.148265
0.164455
0.123306
0.139177
0.15456
0.153984
0.154702
0.164633
0.127853
0.137884
0.134508
0.129098
0.15157
0.162262
0.155688
0.159428
0.141657
0.146718
0.139693
0.152023
0.13643
0.129332
0.145497
0.126401
0.165261
0.138821
0.142127
0.13535
0.134707
0.16174
0.131841
0.126716
0.1327
0.129516
0.154288
0.143531
0.135827
0.12667
0.136316
0.124632
0.144444
0.152256
0.152895
0.146498
0.13626
0.153161
0.151152
0.16681
0.139211
0.145235
0.132254
0.145809
0.138491
0.133747
0.140442
0.166857
0.133761
0.147055
0.134776
0.144205
0.119362
0.121221
0.131893
0.14278
0.134687
0.128792
0.13785
0.156722
0.145684
0.143165
0.139599
0.151407
0.145093
0.144039
0.131777
0.133341
0.146735
0.130128
0.161252
0.13479
0.12384
0.154245
0.132844
0.145079
0.136297
0.131207
0.131418
0.12689
0.160592
0.16008
0.147802
0.136154
0.134128
0.135079
0.133641
0.142969
0.132338
0.14481
0.133125
0.157757
0.124661
0.156698
0.136038
0.132867
0.149141
0.147756
0.137412
0.140327
0.122775
0.133096
0.133888
0.124474
0.134281
0.145108
0.161975
0.156761
0.151459
0.137151
0.138556
0.131798
0.13072
0.142641
0.146001
0.163516
0.142613
0.140065
0.152704
0.128028
0.13351
0.163477
0.159659
0.170891
0.14599
0.122427
0.127781
0.168821
0.145509
0.131874
0.144373
0.16109
0.167104
0.134788
0.135361
0.148776
0.13017
0.118826
0.154017
0.11883
0.156263
0.13298
0.124816
0.146198
0.130989
0.156229
0.150661
0.124764
0.124692
0.147706
0.127167
0.137478
0.123609
0.129972
0.137258
0.157666
0.12774
0.137262
0.158152
0.137789
0.137096
0.126154
0.147607
0.139718
0.136284
0.12814
0.134544
0.14251
0.144293
0.136082
0.158406
0.13496
0.147959
0.12595
0.138283
0.133081
0.151347
0.137093
0.15029
0.16359
0.136894
0.160681
0.148121
0.139933
0.14666
0.128
0.132947
0.138707
0.140333
0.148316
0.134778
0.136062
0.147104
0.132978
0.130167
0.127983
0.136963
0.136885
0.152057
0.123171
0.138645
0.149962
0.130072
0.125095
0.154382
0.126683
0.138244
0.137259
0.135438
0.120165
0.120958
0.136042
0.130787
0.147147
0.136346
0.145071
0.124969
0.139063
0.145926
0.1367
0.12791
0.139483
0.161585
0.140078
0.13608
0.154285
0.118832
0.12162
0.142651
0.116443
0.163746
0.143965
0.144631
0.145428
0.137003
0.12878
0.161544
0.147197
0.127255
0.149037
0.142729
0.133779
0.144797
0.132667
0.129552
0.134418
0.145853
0.159852
0.125399
0.156674
0.140628
0.125239
0.167416
0.126939
0.121652
0.129194
0.13348
0.136388
0.134125
0.143533
0.145523
0.148379
0.130029
0.131242
0.127565
0.152083
0.128856
0.118781
0.128454
0.128404
0.124945
0.14019
0.130384
0.14487
0.157846
0.135936
0.151797
0.139725
0.150142
0.146994
0.137788
0.15909
0.151408
0.125361
0.126584
0.13987
0.119534
0.11738
0.123732
0.145474
0.122292
0.118092
0.136113
0.146123
0.146668
0.147541
0.129275
0.122157
0.137361
0.133879
0.125606
0.143604
0.131336
0.147706
0.129691
0.12455
0.125133
0.123636
0.17275
0.13369
0.144666
0.145214
0.145204
0.135644
0.127627
0.140552
0.123669
0.133883
0.147735
0.127382
0.145825
0.11993
0.117673
0.140081
0.131845
0.132895
0.130704
0.143801
0.138553
0.156938
0.167959
0.151618
0.126454
0.117895
0.131386
0.131877
0.119384
0.119661
0.120921
0.137707
0.141482
0.14925
0.14377
0.135013
0.148061
0.11764
0.128744
0.133626
0.146605
0.142155
0.128525
0.132821
0.132918
0.144209
0.151765
0.127086
0.129134
0.146543
0.15877
0.155039
0.13579
0.147289
0.139772
0.143314
0.151131