/*--------------------------------*- C++ -*----------------------------------*\
| =========                 |                                                 |
| \\      /  F ield         | OpenFOAM: The Open Source CFD Toolbox           |
|  \\    /   O peration     | Version:  2212                                  |
|   \\  /    A nd           | Website:  www.openfoam.com                      |
|    \\/     M anipulation  |                                                 |
\*---------------------------------------------------------------------------*/
FoamFile
{
    version     2.0;
    format      ascii;
    arch        "LSB;label=32;scalar=64";
    class       volScalarField;
    location    "0.068";
    object      k;
}
// * * * * * * * * * * * * * * * * * * * * * * * * * * * * * * * * * * * * * //

dimensions      [0 2 -2 0 0 0 0];

internalField   nonuniform List<scalar> 
31639
(
0.00636423
0.00632894
0.00638099
0.00656068
0.00633509
0.00629514
0.00620049
0.00641335
0.00632232
0.00650144
0.00646891
0.00649696
0.00636996
0.00650789
0.00622493
0.00612129
0.00642365
0.00623407
0.00605924
0.00642377
0.00578956
0.00650461
0.00651183
0.0060397
0.00605617
0.00630878
0.00638238
0.00520568
0.00620785
0.00654843
0.0064973
0.00616567
0.00652015
0.00601748
0.0059233
0.00653377
0.00558252
0.00664059
0.00653862
0.00562178
0.00586995
0.00597457
0.0064784
0.00650211
0.0064393
0.00649545
0.00625967
0.00621698
0.00640567
0.00654377
0.00649895
0.00560266
0.00650157
0.0057623
0.00616267
0.00639052
0.00578384
0.00638393
0.00629443
0.00579254
0.00629832
0.00650589
0.00611768
0.00638942
0.00632537
0.00655184
0.00626299
0.00633961
0.00605739
0.00653233
0.00646324
0.00614703
0.00643588
0.00637959
0.00642765
0.0059743
0.00645004
0.00619987
0.00621374
0.0063657
0.00611587
0.00555592
0.00654242
0.00637646
0.00637895
0.00648494
0.00653008
0.00651191
0.00599466
0.00655918
0.00638763
0.006375
0.0058122
0.00624639
0.00595895
0.00629991
0.00618321
0.00635799
0.00637274
0.00583918
0.00647763
0.00647013
0.00624756
0.00576273
0.0057712
0.00649888
0.0058125
0.00566956
0.00594727
0.0057765
0.00646529
0.00586409
0.00628656
0.00614351
0.00634535
0.00573176
0.00628531
0.00634482
0.00642643
0.00629689
0.00646716
0.00645307
0.00646606
0.00632919
0.0063884
0.00651117
0.00636152
0.00598372
0.0058969
0.00642301
0.00646607
0.00646837
0.00651205
0.0062283
0.00645009
0.00633339
0.00580096
0.0056882
0.00645232
0.0063541
0.00635287
0.00646183
0.00648877
0.00571263
0.00565493
0.00649703
0.00639598
0.00588852
0.00591113
0.00644822
0.00608355
0.00653305
0.00607172
0.00639275
0.00602391
0.00655004
0.00629235
0.00598164
0.00594854
0.00606647
0.00652896
0.0060527
0.0061087
0.00582733
0.00588787
0.00628581
0.0060348
0.00658408
0.0064866
0.00572369
0.00627308
0.00615448
0.00590276
0.00633304
0.00655892
0.00635728
0.00636838
0.0065664
0.00632967
0.00634243
0.00623236
0.00623292
0.00620459
0.00563447
0.00636604
0.00660488
0.00636397
0.00655203
0.00589112
0.00590275
0.00672418
0.00645298
0.00643197
0.00631143
0.00637509
0.00623021
0.00621583
0.00644284
0.00576625
0.0061928
0.00653243
0.00657711
0.00648228
0.00640255
0.00629901
0.00625998
0.00630106
0.00617179
0.00654721
0.00562982
0.00632011
0.00623517
0.00639559
0.00648328
0.0065641
0.00652709
0.00591112
0.00611246
0.00655605
0.00638857
0.0063883
0.00631893
0.00576638
0.00642106
0.00581991
0.00617798
0.00648232
0.00617408
0.0059072
0.00641675
0.0063746
0.00658153
0.00599472
0.00592223
0.00639441
0.00640098
0.00574745
0.00655651
0.00610631
0.00578482
0.00624655
0.00640637
0.00631632
0.00617117
0.00613968
0.00643551
0.00624188
0.0062093
0.00591633
0.00629151
0.00622034
0.00596082
0.00619444
0.0065751
0.00643042
0.00619815
0.00596948
0.0064267
0.00647157
0.00646166
0.00653181
0.00650468
0.00628215
0.00651798
0.00624356
0.00624801
0.00568595
0.00604371
0.00652404
0.00621774
0.00617008
0.00616704
0.00632805
0.00666579
0.00657669
0.00648242
0.00583739
0.006257
0.00606394
0.00651494
0.00628562
0.00659366
0.00652106
0.006213
0.00587289
0.00613575
0.00599562
0.00585549
0.00651479
0.00600598
0.00643255
0.00628089
0.0061173
0.00597357
0.00662189
0.00619028
0.0062878
0.00649349
0.00635813
0.0061379
0.00624252
0.00605782
0.00635551
0.00627514
0.0059124
0.00612884
0.00618639
0.00549405
0.00566371
0.00651332
0.00650144
0.00623228
0.00575505
0.00602868
0.00644297
0.0060277
0.00589479
0.00654747
0.00667596
0.00629841
0.00650662
0.00653806
0.00593365
0.00643752
0.00577207
0.00577266
0.0066201
0.00652673
0.00652568
0.00657234
0.00645346
0.00596236
0.00630925
0.00628762
0.00653174
0.0065889
0.00657621
0.00628539
0.00618771
0.00649704
0.00642311
0.00632535
0.00628897
0.00622959
0.0062393
0.00630031
0.00634988
0.00629637
0.00594098
0.00636365
0.00652145
0.00620093
0.00644973
0.00655006
0.00633304
0.00591472
0.00632151
0.0062976
0.00575627
0.00670502
0.00604159
0.00637911
0.00630524
0.00573934
0.00632631
0.00631919
0.00585207
0.00631711
0.00595159
0.00630932
0.00652044
0.00644356
0.00568358
0.00634096
0.00595521
0.00635523
0.00648519
0.00657067
0.00658867
0.00603167
0.00647032
0.00581097
0.0062501
0.00582202
0.00654124
0.00645978
0.00651182
0.00648375
0.00601048
0.00656835
0.00629247
0.00645962
0.00628385
0.00613396
0.00626609
0.00639467
0.0064546
0.00643054
0.00631135
0.00638792
0.00623763
0.00599252
0.00629411
0.0063566
0.00641462
0.00570328
0.00648127
0.00650471
0.00627362
0.00637865
0.00640501
0.00635802
0.00654343
0.00562742
0.00636563
0.00649492
0.00570386
0.00628341
0.00640219
0.00598316
0.00583875
0.00581035
0.00617297
0.00587254
0.006294
0.00607476
0.0061686
0.00654686
0.00587801
0.00645446
0.00652041
0.00631402
0.00648186
0.00619027
0.00653297
0.00629409
0.00641468
0.00656155
0.00629424
0.0058947
0.00633985
0.00648439
0.0064881
0.00641712
0.00649944
0.0062605
0.00633382
0.00649406
0.00657458
0.00647848
0.00594212
0.0063067
0.00560836
0.00636284
0.00626559
0.00589842
0.00591212
0.00614931
0.00643591
0.00645129
0.00584513
0.00644329
0.00616116
0.00629232
0.00644523
0.00533582
0.00628204
0.00579951
0.00622375
0.00650426
0.00652556
0.00647931
0.00627234
0.0057472
0.00642724
0.00634753
0.00637888
0.00579657
0.00597986
0.00629594
0.00584624
0.00594818
0.00628304
0.00578329
0.00620953
0.00558121
0.0064266
0.00590197
0.00655093
0.00649098
0.00646338
0.0065059
0.00620501
0.00643943
0.00649912
0.00629068
0.00646313
0.0063381
0.00646061
0.00656783
0.00614413
0.00648814
0.00650095
0.00630847
0.00607604
0.00655675
0.00634513
0.00571438
0.00577913
0.0063132
0.00664816
0.00650719
0.00636223
0.00668236
0.00660407
0.00642018
0.00635095
0.00621531
0.0061619
0.00594958
0.00633775
0.00642742
0.00653209
0.00613527
0.0060658
0.00598836
0.0062928
0.00627057
0.00562713
0.00638928
0.00616095
0.00638958
0.00629451
0.0064952
0.00628838
0.00598434
0.00645054
0.00650903
0.00606156
0.00646129
0.00638302
0.00607029
0.00631721
0.00521262
0.00601603
0.00629962
0.00633604
0.00599193
0.00593927
0.00634053
0.00575738
0.00638953
0.00612263
0.0062334
0.0065148
0.00630432
0.00575866
0.00621823
0.00634184
0.00651996
0.00590503
0.00557041
0.00648694
0.00579975
0.00636625
0.00656285
0.00596398
0.00630061
0.00650521
0.00634494
0.00590807
0.00647728
0.00635259
0.0058489
0.00645395
0.00635042
0.00629012
0.00637381
0.0057049
0.00604617
0.00650687
0.00616037
0.00634855
0.00630559
0.00653847
0.00644891
0.00638791
0.00647967
0.00654056
0.00642696
0.00603268
0.00647427
0.00651105
0.00656168
0.00606467
0.00634826
0.00631875
0.00664393
0.00601204
0.00568367
0.00652444
0.00593556
0.00660325
0.00627574
0.00592864
0.00633015
0.00650063
0.0064493
0.00635573
0.0056919
0.00638337
0.00627569
0.00576278
0.00650801
0.00647425
0.0053415
0.00588815
0.00608407
0.00614109
0.00639301
0.00636955
0.00633083
0.00632213
0.00651239
0.00631294
0.00630078
0.005932
0.00657444
0.00580197
0.00629282
0.00622664
0.00599567
0.00656021
0.00630863
0.00606256
0.00582136
0.00586828
0.00620811
0.00648035
0.00602407
0.006537
0.00636538
0.00649738
0.00594206
0.00624317
0.0064424
0.00654671
0.00655096
0.00645164
0.00633033
0.0063289
0.00653115
0.00654572
0.00648867
0.00612448
0.00648133
0.00591365
0.00653715
0.0064116
0.00634314
0.00600266
0.00628424
0.00558223
0.00653827
0.00639797
0.00658882
0.00627117
0.00614314
0.00584711
0.00628334
0.00579511
0.00574643
0.00596151
0.00621846
0.00589353
0.00630619
0.00584416
0.00649761
0.00638784
0.00572441
0.00654825
0.00600589
0.00598968
0.00624433
0.00609956
0.00640606
0.00653455
0.00655938
0.0064599
0.00628469
0.00637099
0.00621624
0.00619846
0.00581982
0.00482581
0.00653943
0.00626914
0.00641073
0.00649409
0.00585429
0.00650826
0.00649799
0.00645561
0.00646255
0.00642318
0.00637757
0.00658488
0.00658762
0.00636459
0.00648704
0.00646899
0.00600597
0.00649401
0.00608836
0.00641844
0.00617927
0.00625817
0.00608159
0.00658296
0.00630651
0.00634609
0.00629501
0.00606855
0.00657302
0.00634905
0.00618618
0.00600911
0.00644619
0.00576692
0.00650357
0.00641467
0.00614533
0.00649998
0.00661015
0.00650293
0.00581875
0.00638435
0.00629118
0.00635882
0.00595597
0.00652425
0.00649258
0.0062405
0.00633697
0.00622723
0.00643518
0.00611888
0.00624035
0.00579677
0.00645282
0.00637341
0.00641539
0.00618075
0.00630908
0.00641848
0.00634609
0.00616993
0.00648742
0.00645696
0.00629181
0.00577401
0.00573032
0.00630863
0.00558776
0.00584227
0.0063579
0.0063798
0.0064913
0.00574663
0.0062895
0.00653065
0.00604592
0.00577799
0.00636369
0.00596667
0.00642335
0.00607437
0.00647265
0.00606931
0.00613709
0.00657675
0.00574463
0.00621109
0.00626748
0.00648182
0.00654086
0.00651297
0.00600222
0.00638901
0.00652663
0.00619238
0.00654824
0.00651521
0.00635815
0.00628586
0.00634547
0.00654369
0.0066177
0.00656836
0.00642174
0.00612318
0.00644798
0.00632469
0.00576309
0.0062498
0.00650702
0.0065175
0.006561
0.0063268
0.00651196
0.00652473
0.00620905
0.00648236
0.00645804
0.0063507
0.00647298
0.00586624
0.00618973
0.00637994
0.0056915
0.00637171
0.00627982
0.00627966
0.0062605
0.00656347
0.00642288
0.00648637
0.00618743
0.00642511
0.00629676
0.0065437
0.00637471
0.00622554
0.00597653
0.0064997
0.0060957
0.00623811
0.00627571
0.00630389
0.00636359
0.00653793
0.00591623
0.00650186
0.00601055
0.00642353
0.00618472
0.00625102
0.00629045
0.00650231
0.00587159
0.00639759
0.00651493
0.00654218
0.00641167
0.00626183
0.00564713
0.00643814
0.00648782
0.00635366
0.00643959
0.0065063
0.00641352
0.00651344
0.00626058
0.00598976
0.00623197
0.00654003
0.00578332
0.006005
0.00661663
0.00647513
0.00610902
0.00625062
0.00630753
0.006068
0.00630211
0.00604252
0.00650113
0.0065341
0.00567622
0.00635831
0.00652239
0.00649666
0.00662424
0.00630513
0.00649873
0.0060267
0.00600221
0.00649334
0.00646002
0.00635353
0.00605501
0.00647108
0.00648059
0.00616041
0.00657827
0.00651207
0.00652234
0.00640275
0.0064456
0.00640763
0.00638223
0.00627199
0.00611021
0.00588172
0.00632342
0.00633614
0.0059787
0.0065129
0.00585284
0.00625579
0.00625762
0.00594939
0.00627155
0.00614053
0.00632336
0.00627095
0.00646684
0.00596126
0.00594926
0.00622318
0.00584784
0.00616926
0.00647855
0.0062922
0.0064995
0.00639304
0.00624924
0.00656951
0.00615034
0.00638444
0.00626234
0.00626717
0.00634071
0.00596933
0.00633634
0.00645766
0.00652136
0.00657077
0.00602714
0.0058509
0.00635999
0.00648633
0.00602445
0.00621911
0.00647632
0.00627786
0.00666386
0.00623375
0.00624842
0.00646237
0.00591724
0.0064811
0.0065937
0.00598443
0.00609218
0.00633893
0.0061744
0.00654469
0.00660351
0.00646061
0.00601908
0.00648831
0.00588056
0.00625768
0.00652285
0.00623366
0.00666327
0.00575014
0.00637031
0.00636831
0.00639463
0.005803
0.00586552
0.00644539
0.00659097
0.00617062
0.00654323
0.00641563
0.00632722
0.00590913
0.00613046
0.00642446
0.00626206
0.00631751
0.00657944
0.0065543
0.00659096
0.00656137
0.00638821
0.00636964
0.00643428
0.00605245
0.00650175
0.00642484
0.00640283
0.0063924
0.00657199
0.00628524
0.00653405
0.00625056
0.00566641
0.00659853
0.00613386
0.00646056
0.00611197
0.00652209
0.00604902
0.00641135
0.0065738
0.00624072
0.00633188
0.00576672
0.00646418
0.00646975
0.00635076
0.00585135
0.00660071
0.00624508
0.00636432
0.00650527
0.00654747
0.00647228
0.00631719
0.00634225
0.00660756
0.00605407
0.0060794
0.00598305
0.00602091
0.00638437
0.00587097
0.00654548
0.00654228
0.00662798
0.00622579
0.00612977
0.00633073
0.00648376
0.00633745
0.00634495
0.00652505
0.00654582
0.00633069
0.00651992
0.00641151
0.00623049
0.00636304
0.00611883
0.00651446
0.00651421
0.00657134
0.00660666
0.00647818
0.00610701
0.0065951
0.00636841
0.00631498
0.00625409
0.00643176
0.00650906
0.00631517
0.00647847
0.0061945
0.00632949
0.0063677
0.00605198
0.00582547
0.00619202
0.0062281
0.00654433
0.00611553
0.00584639
0.00634888
0.00650195
0.00614253
0.00613226
0.00634206
0.00656061
0.00644732
0.00624728
0.00618275
0.00634125
0.0065087
0.00616174
0.00625212
0.00628752
0.00583815
0.00618858
0.00624016
0.00643472
0.00647901
0.00627886
0.00650605
0.00642133
0.0063015
0.00628811
0.00589694
0.0060506
0.00586037
0.00650056
0.0064113
0.00665195
0.00670797
0.00633526
0.00584304
0.0065328
0.00615789
0.00635254
0.00638017
0.00649296
0.00585996
0.00647197
0.00594459
0.00636587
0.00629092
0.00627025
0.00664174
0.00624078
0.00645101
0.00603211
0.00624914
0.00625427
0.00652157
0.006069
0.0061755
0.00645567
0.00645625
0.0064372
0.00646621
0.00654955
0.00601765
0.00632566
0.00617579
0.0061454
0.00641728
0.00659209
0.00655711
0.00648929
0.00658974
0.00597914
0.00596809
0.00600012
0.00645439
0.00585027
0.00650108
0.00638749
0.00592636
0.00618378
0.00650665
0.0064861
0.00612476
0.00617645
0.00619526
0.00640589
0.00658062
0.00623466
0.00595036
0.00639725
0.00663394
0.00645052
0.00663351
0.00654417
0.00665092
0.00655215
0.00652471
0.00606599
0.00582743
0.0063416
0.00609135
0.00658819
0.00598419
0.0064224
0.00624577
0.00658509
0.00612083
0.00648399
0.0064685
0.00638802
0.00629226
0.00596326
0.0064954
0.00618819
0.00660102
0.00628673
0.00654875
0.00653544
0.00636186
0.00586777
0.0059386
0.00629858
0.00645435
0.00604404
0.00667015
0.0060037
0.00638399
0.00643305
0.0061352
0.00642475
0.00638414
0.00654874
0.00655943
0.00651553
0.00636342
0.00635251
0.00583721
0.00610752
0.00659895
0.00605343
0.00644023
0.00631173
0.00602912
0.00628278
0.00607932
0.0063009
0.00640814
0.00647294
0.00604168
0.0063119
0.00634869
0.00599071
0.00610521
0.006329
0.0063807
0.00643997
0.00592539
0.00589259
0.00631547
0.00621355
0.00659911
0.00661612
0.00655897
0.00620456
0.00623253
0.00639351
0.00615113
0.00635706
0.0058636
0.006349
0.00625261
0.00658389
0.0064757
0.00632044
0.0063898
0.00658519
0.00594266
0.00641192
0.00660783
0.00624321
0.00560849
0.00628002
0.00603901
0.00631738
0.00580533
0.00650102
0.00665501
0.00657287
0.00635501
0.00585728
0.00592646
0.00649526
0.00655771
0.00652189
0.00638277
0.00630067
0.00645026
0.00656229
0.0064676
0.00577279
0.00626544
0.00649192
0.00641972
0.00606617
0.00642709
0.00578248
0.00655669
0.00651567
0.00628443
0.00639523
0.00642033
0.00629986
0.00660354
0.00645665
0.00600312
0.0062691
0.00650569
0.00625985
0.0062797
0.00640558
0.00582086
0.00595416
0.00654579
0.00661326
0.00656633
0.00661238
0.00637141
0.00651061
0.00634334
0.00642023
0.00642245
0.00653677
0.00612871
0.00627328
0.0062022
0.00632908
0.00649188
0.00571665
0.00635197
0.00582359
0.00652409
0.00583839
0.0057367
0.00629056
0.00577649
0.00642126
0.00636289
0.00650492
0.00654688
0.00616348
0.00607048
0.00653485
0.0062131
0.00594056
0.00633956
0.00605416
0.00656252
0.00641307
0.00634313
0.00600254
0.00646512
0.00643712
0.00654141
0.00583276
0.00618627
0.00641845
0.00639062
0.00666137
0.00596399
0.00594024
0.00649223
0.00641691
0.00656457
0.00633922
0.00571706
0.00639456
0.00647909
0.00585634
0.0057936
0.00654933
0.00599622
0.00601294
0.00651402
0.00659584
0.00650117
0.00662572
0.00632252
0.00621223
0.00655453
0.00603859
0.00654143
0.00614404
0.00623832
0.00649971
0.00630285
0.00586129
0.0065019
0.00649059
0.00616978
0.00632475
0.00631672
0.0061421
0.00564008
0.00632352
0.00636178
0.00644872
0.00617921
0.00628198
0.00590041
0.00647312
0.00659516
0.00577042
0.00636464
0.00643077
0.00566449
0.00587542
0.0063888
0.00632476
0.00651921
0.00622827
0.00599311
0.00646509
0.00653127
0.00648276
0.00640611
0.006556
0.00592234
0.00656767
0.0063513
0.00599859
0.00588
0.00555759
0.00596553
0.00638331
0.00625525
0.00643303
0.00628617
0.00601948
0.00611054
0.0058142
0.00576695
0.00655411
0.00654574
0.00606103
0.00654302
0.00655582
0.00598799
0.00632648
0.00632636
0.00611827
0.00618142
0.00653377
0.00613344
0.00576094
0.00653901
0.00652844
0.00619252
0.00658848
0.00616902
0.00602445
0.00600187
0.00615841
0.00577141
0.00600705
0.00643205
0.00639527
0.0062386
0.00649645
0.00657688
0.0062854
0.00637936
0.00440711
0.00617453
0.00592374
0.00621698
0.00646369
0.00631098
0.00609561
0.00628063
0.00601076
0.00643312
0.00630728
0.00610554
0.00595068
0.00570346
0.00572399
0.00622308
0.00596147
0.0062614
0.00595803
0.00619943
0.00651064
0.00628615
0.00619598
0.006356
0.00644423
0.00634114
0.00645398
0.00581359
0.00633728
0.00651505
0.00655893
0.00623794
0.00663543
0.00608386
0.00640969
0.00630769
0.0058613
0.00652259
0.0065442
0.00639244
0.00630961
0.00643719
0.00636367
0.00568035
0.00575103
0.00626191
0.00658996
0.00629746
0.0065312
0.00615439
0.00622627
0.00599516
0.00591656
0.00593124
0.00587708
0.0064123
0.00641259
0.00643693
0.00620604
0.0061661
0.00664105
0.0060173
0.00627633
0.00660027
0.0064775
0.00613568
0.00625413
0.006463
0.00647324
0.00650503
0.00553335
0.0063897
0.00649484
0.00627667
0.00626397
0.00652219
0.00642062
0.00655231
0.00642013
0.00608043
0.0064092
0.00650453
0.0063885
0.00621376
0.00596022
0.00653154
0.00653589
0.00648926
0.00652231
0.0057419
0.0055878
0.00625705
0.00644088
0.00618845
0.00641784
0.00646386
0.00648114
0.00649448
0.00617159
0.00646235
0.0063303
0.00648798
0.00603099
0.00601771
0.00626658
0.00657316
0.00601037
0.00648416
0.00594657
0.00623767
0.00634903
0.00663431
0.00629539
0.00653362
0.00659105
0.00645342
0.00634206
0.00644218
0.00632074
0.00615564
0.00572467
0.0066282
0.00551933
0.00591748
0.00540028
0.00573811
0.00581459
0.00623663
0.00641454
0.00595194
0.00613129
0.00563984
0.00598615
0.00604535
0.00657552
0.00584812
0.00586631
0.0064518
0.00584505
0.00611899
0.00628819
0.00647607
0.00617242
0.00585461
0.00568499
0.00605119
0.00663481
0.00603274
0.00578264
0.00641217
0.00612949
0.00636819
0.00632995
0.00600611
0.0064687
0.00571087
0.00583788
0.00615238
0.00645909
0.00617158
0.00623108
0.00622472
0.00627362
0.00569156
0.00603196
0.00625384
0.0063779
0.00647902
0.00591262
0.00560356
0.0061861
0.0065829
0.00630222
0.00636931
0.00596542
0.00627656
0.00634912
0.00589184
0.00654958
0.00612037
0.00585845
0.00564078
0.0064366
0.00631962
0.00653512
0.00631211
0.00651509
0.00593069
0.00619763
0.0057346
0.00564565
0.00647253
0.00598975
0.00629929
0.00635868
0.00600987
0.00585297
0.00655126
0.00649962
0.00658123
0.00637791
0.00549079
0.00627498
0.00567523
0.00650586
0.00597833
0.00651175
0.00563926
0.0064526
0.00641779
0.00609086
0.00612544
0.0057286
0.00609035
0.00630749
0.00640857
0.00639676
0.00658397
0.00642389
0.00600418
0.00656753
0.00557903
0.00637808
0.00641571
0.00652798
0.00646001
0.00612104
0.00656457
0.0062525
0.00614352
0.0061137
0.00632039
0.00643784
0.00607645
0.00584877
0.00654269
0.0064206
0.0062161
0.00645096
0.00639967
0.00640998
0.00639599
0.00644442
0.00642734
0.00624827
0.00629694
0.00649966
0.00644032
0.00562608
0.00631863
0.00596536
0.00657857
0.00644183
0.0065441
0.00584181
0.0058526
0.00634088
0.00630709
0.00629068
0.00634944
0.00648163
0.00624248
0.00640654
0.0059642
0.00637285
0.00620878
0.00655622
0.00646569
0.00654032
0.00638034
0.00654279
0.00612131
0.00650489
0.00603445
0.00626539
0.00616198
0.0063791
0.00626038
0.00643496
0.00579529
0.00653132
0.00635981
0.00618185
0.00587608
0.00648299
0.00632857
0.0064576
0.00627327
0.00632283
0.00649701
0.00587156
0.0065194
0.00627901
0.00633204
0.00602401
0.00609427
0.00616557
0.00583553
0.00617253
0.00664325
0.00637386
0.00556422
0.0063077
0.00584406
0.00636471
0.00642424
0.00574139
0.00577006
0.00610755
0.00632834
0.00648433
0.00614955
0.00617764
0.00627473
0.00558839
0.00618824
0.00652197
0.00646723
0.00651118
0.00624192
0.0064472
0.0059666
0.0060002
0.00661874
0.00631957
0.0064069
0.00641487
0.00653158
0.00632558
0.00629727
0.00575326
0.00630705
0.00651094
0.00607219
0.00645011
0.00640465
0.00637703
0.00596337
0.00632685
0.0062041
0.00552648
0.00641479
0.00608693
0.00590463
0.0063614
0.00631684
0.00643765
0.00645506
0.00638238
0.00663759
0.00555061
0.0061337
0.00642661
0.00652968
0.00567169
0.00642394
0.00593891
0.00605359
0.00657482
0.0059817
0.00637994
0.006601
0.00642859
0.00570621
0.00641931
0.00597733
0.00649171
0.00642397
0.00643962
0.00653305
0.00639155
0.0064764
0.00587102
0.00631846
0.00648916
0.00589327
0.00641707
0.00635463
0.00613932
0.00647392
0.00611845
0.00652591
0.00654372
0.00655346
0.00626982
0.00639995
0.00638488
0.00637149
0.00613739
0.00607822
0.00584836
0.00576199
0.00638946
0.0064857
0.00633052
0.00658565
0.00602552
0.00657476
0.00574951
0.00661722
0.00658876
0.00647632
0.00656663
0.00610716
0.00571417
0.00627575
0.00591295
0.00654318
0.00629093
0.00577572
0.00619805
0.00664239
0.00638614
0.0058586
0.00604783
0.0057425
0.00662615
0.00588481
0.00648312
0.00604753
0.00603636
0.00651522
0.0065236
0.00652859
0.00640134
0.0056838
0.00626484
0.00652465
0.00593257
0.00659441
0.00617274
0.00663307
0.00553283
0.00633843
0.00599517
0.00625271
0.0060629
0.00623453
0.00615113
0.00600484
0.00623746
0.00625736
0.00623452
0.00617807
0.00659774
0.00587371
0.00632037
0.00625374
0.00637607
0.00654529
0.00600078
0.00648488
0.00589042
0.00628672
0.00650187
0.00638447
0.00623558
0.00638474
0.00639745
0.00598573
0.00631126
0.00621994
0.00582605
0.00583327
0.00645449
0.00646342
0.00593858
0.0062169
0.00644545
0.00592519
0.00638539
0.00603586
0.00641797
0.00657216
0.00626215
0.00590126
0.0064622
0.00572474
0.00637641
0.00658559
0.0055054
0.00667638
0.00589208
0.00618405
0.00603448
0.00590976
0.00624846
0.00616109
0.00576838
0.00652744
0.00650466
0.00548541
0.00616061
0.00625222
0.00630297
0.0064324
0.00658256
0.00646568
0.00608194
0.00603403
0.00573459
0.00568826
0.00510554
0.00654506
0.00629549
0.00638107
0.0064594
0.00588348
0.00577572
0.00627567
0.00647577
0.00576951
0.00648164
0.00631409
0.00626614
0.00640275
0.00614911
0.00633729
0.0062146
0.00626167
0.00652311
0.00549798
0.006322
0.0062351
0.00650622
0.006306
0.00648941
0.00632091
0.00594591
0.00657631
0.00670891
0.00632454
0.00619529
0.0058984
0.00615513
0.00638665
0.00652263
0.00619703
0.00625107
0.00616026
0.00566488
0.00608559
0.006541
0.00610999
0.00670701
0.00629508
0.006074
0.00648988
0.00584361
0.00639352
0.00585418
0.00652886
0.00638229
0.00614448
0.0066435
0.00613462
0.00628724
0.00647842
0.00620128
0.0063296
0.00611254
0.00642501
0.00586754
0.00632582
0.00630475
0.00589616
0.00647901
0.00618205
0.00608834
0.0065262
0.0059535
0.00656127
0.00621371
0.00647169
0.00594242
0.00633965
0.00590943
0.00583778
0.00644821
0.00594732
0.00621816
0.0064476
0.00565697
0.00618786
0.00640125
0.00614818
0.00578897
0.00607677
0.00625341
0.00615413
0.00629656
0.0062317
0.00638672
0.00605543
0.00646439
0.00560404
0.00570195
0.00654892
0.00610996
0.00565427
0.00577267
0.00628341
0.00514737
0.00584761
0.00630224
0.00631079
0.00666652
0.00596164
0.00651685
0.00648417
0.00648745
0.00652646
0.00658153
0.00620286
0.00617547
0.00648771
0.00614605
0.00616153
0.00633718
0.00615399
0.00560676
0.00586254
0.00617695
0.00530692
0.00639119
0.00644365
0.00618185
0.00646529
0.00652089
0.00625547
0.00670783
0.00598141
0.00573381
0.00621581
0.00621833
0.00636888
0.0061573
0.00630827
0.00652398
0.00615191
0.00604524
0.00629077
0.0066095
0.00644179
0.00661278
0.00640489
0.00620997
0.0062741
0.00607199
0.00601164
0.00661071
0.00610559
0.00659848
0.00620138
0.00648958
0.00550002
0.00636736
0.00631478
0.00627923
0.00602895
0.00642016
0.0062925
0.00648993
0.0055769
0.00608994
0.00631228
0.00611821
0.0063066
0.0062906
0.00634384
0.00649764
0.00627959
0.00569078
0.00603683
0.00585347
0.00630265
0.00628941
0.00589708
0.00662807
0.00638202
0.00631306
0.0064799
0.00599404
0.00587067
0.00658596
0.00584234
0.00575471
0.00551211
0.00560471
0.00556462
0.00612324
0.00657626
0.00654496
0.00622121
0.0063032
0.00638577
0.00608845
0.00640125
0.00575998
0.00652496
0.00423525
0.00637143
0.0058411
0.005668
0.00643203
0.00586973
0.00638514
0.00641056
0.00648074
0.00591976
0.00638222
0.00625117
0.00633683
0.00585863
0.00649905
0.00635849
0.00650816
0.0064117
0.0059041
0.00625227
0.00633065
0.00610146
0.00548564
0.00604427
0.00603314
0.00579953
0.00585839
0.00633061
0.00605589
0.00580261
0.00605199
0.00639195
0.00651043
0.00654599
0.00451281
0.00576282
0.00645244
0.00578426
0.00634543
0.00567401
0.0065871
0.00634951
0.00643791
0.00588887
0.00627265
0.00652796
0.00651882
0.00633191
0.0064389
0.00632595
0.00623342
0.00630057
0.00583382
0.00628163
0.00608414
0.00607321
0.00607402
0.00562743
0.00628493
0.00651745
0.0058712
0.00604909
0.00584125
0.00644646
0.00639054
0.00570183
0.00617117
0.00632347
0.00633786
0.00582497
0.00630131
0.00633522
0.006679
0.0053432
0.00632031
0.00624981
0.00578862
0.0065675
0.00603388
0.00594087
0.00635267
0.00660064
0.0058258
0.00650116
0.00638088
0.00574102
0.00575115
0.00642601
0.00655606
0.00583524
0.00638236
0.00572951
0.00607858
0.00653339
0.00597972
0.00636205
0.00623982
0.00663561
0.0061934
0.00614894
0.00601494
0.00616201
0.00632077
0.00611256
0.00644085
0.00588412
0.00586479
0.00634782
0.00616314
0.00648328
0.0061206
0.00648119
0.00634657
0.00640272
0.00649009
0.0063814
0.00616282
0.00588409
0.00643166
0.00625485
0.00615823
0.00634874
0.00659081
0.00644498
0.00610189
0.00584533
0.00629641
0.00591611
0.00565277
0.00605611
0.00616789
0.00558946
0.00638003
0.0059358
0.00537552
0.0058099
0.00628592
0.00549195
0.00620502
0.00642739
0.00625194
0.00568357
0.0062714
0.00665491
0.00584951
0.00561747
0.00596571
0.00636866
0.00630311
0.00621311
0.00644423
0.00583344
0.00648115
0.00634736
0.00657269
0.00645722
0.00433664
0.0063451
0.00631911
0.00634023
0.00601474
0.00626623
0.00553777
0.00617245
0.00655917
0.00610861
0.00575011
0.00618012
0.00640089
0.00640804
0.00561219
0.00631545
0.00649556
0.00658213
0.00629707
0.00631912
0.00571833
0.00571372
0.00570167
0.00632022
0.00624183
0.00637227
0.00663296
0.00641042
0.00544245
0.00652522
0.00645044
0.00651612
0.00614176
0.00654332
0.00591297
0.00598558
0.0061449
0.00622994
0.00597121
0.00570224
0.00635739
0.00599901
0.00644266
0.00601702
0.00536311
0.00615841
0.00633473
0.0061857
0.00580837
0.00594866
0.00640277
0.00647317
0.00602397
0.00620878
0.00637645
0.00654297
0.00639275
0.00660443
0.00639314
0.00640113
0.00561678
0.0063039
0.00592325
0.00646144
0.00621196
0.00608197
0.0057393
0.00655408
0.00563846
0.00608273
0.00568931
0.00604534
0.00546266
0.00619625
0.00628791
0.00628388
0.0060566
0.00604697
0.00643955
0.00581325
0.00638602
0.00603211
0.00622526
0.00549055
0.00641402
0.00617517
0.00593091
0.00603266
0.00624718
0.00617224
0.0061956
0.00498467
0.00631893
0.00615276
0.00618426
0.00592188
0.006109
0.00609289
0.00507557
0.00636769
0.00625415
0.00359852
0.00597254
0.00647681
0.00635759
0.00641598
0.00600457
0.00540659
0.0064842
0.00592724
0.0064832
0.00660527
0.00616859
0.00598994
0.00653263
0.00568537
0.00547615
0.00552848
0.00626106
0.00627029
0.00595327
0.00658689
0.00642022
0.0063188
0.00595154
0.00562387
0.00660265
0.0063602
0.00664484
0.00641131
0.00573154
0.00608739
0.00615227
0.00586695
0.00625859
0.00614235
0.00628454
0.00666401
0.00616778
0.00628011
0.00590318
0.00605975
0.00604143
0.00622999
0.00616677
0.00567843
0.00589181
0.00623797
0.00640558
0.00583264
0.00629173
0.00601979
0.00647421
0.0058011
0.00587729
0.00514036
0.00649766
0.00649184
0.00636689
0.00631818
0.00609736
0.00578745
0.00575993
0.00529715
0.00617499
0.00573769
0.00614732
0.00608159
0.00637354
0.00610899
0.0064019
0.00584537
0.00368336
0.00585278
0.0064309
0.00413662
0.006287
0.00663626
0.00610503
0.00661434
0.00580849
0.00594718
0.00588727
0.00655378
0.00486402
0.0064599
0.00589128
0.00536269
0.00648132
0.00596712
0.00652088
0.00380771
0.0056355
0.00626158
0.00639327
0.00657134
0.00637985
0.00652012
0.00640701
0.00641692
0.00650614
0.00638821
0.0063039
0.00602769
0.00512959
0.00640166
0.00601708
0.0060631
0.00647017
0.00642391
0.00619495
0.00563742
0.00658637
0.00642672
0.00617729
0.00575791
0.00575276
0.00636149
0.00640458
0.00654218
0.00642941
0.00619105
0.00637979
0.00578535
0.00636979
0.00621037
0.00643072
0.00602141
0.00579252
0.00533208
0.00619713
0.00665342
0.00641722
0.00605855
0.00595563
0.00620082
0.00576378
0.0056726
0.00632697
0.0060302
0.00460648
0.00499554
0.00537067
0.00571076
0.00619746
0.00605916
0.00611734
0.0061294
0.0055594
0.00613155
0.00649244
0.00546828
0.00667305
0.00561709
0.00640721
0.00590743
0.00647574
0.00625664
0.00638106
0.00639017
0.0060091
0.00579237
0.00595223
0.00598524
0.00638662
0.00621588
0.00593415
0.00586934
0.00623155
0.00564099
0.00625029
0.00594582
0.00641193
0.00600268
0.00619073
0.00463751
0.00651969
0.00656092
0.00626456
0.00644624
0.00622864
0.00618644
0.00622469
0.00633692
0.00638023
0.00644257
0.00641107
0.00563198
0.00559174
0.00665544
0.00579528
0.00560179
0.00555377
0.00615328
0.00644217
0.00617261
0.00662286
0.00661237
0.00642409
0.00646742
0.00615097
0.00580043
0.00607009
0.00515271
0.00634132
0.00616121
0.006062
0.00612428
0.00596666
0.00610452
0.00651445
0.0055423
0.00595661
0.00613212
0.00558474
0.00640477
0.00532258
0.00547808
0.00566408
0.0062005
0.00590465
0.00566794
0.00593213
0.00577201
0.00615443
0.00528568
0.00524028
0.00609126
0.00574991
0.005475
0.00618844
0.00572986
0.00603321
0.00608958
0.00590783
0.00567198
0.0061404
0.0058158
0.0059038
0.00562622
0.00607583
0.00592256
0.00534072
0.00639581
0.00611702
0.0061328
0.00588097
0.00588997
0.00564067
0.00623886
0.00618739
0.00647676
0.00628216
0.00626125
0.00606391
0.00632864
0.00642845
0.00626015
0.00485571
0.00513568
0.00550792
0.00635344
0.00561129
0.00636209
0.00493213
0.00596353
0.00626562
0.0058339
0.00604969
0.00605854
0.00604262
0.00608943
0.006543
0.00588819
0.00600086
0.00648904
0.00536443
0.00603378