/*--------------------------------*- C++ -*----------------------------------*\
| =========                 |                                                 |
| \\      /  F ield         | OpenFOAM: The Open Source CFD Toolbox           |
|  \\    /   O peration     | Version:  2212                                  |
|   \\  /    A nd           | Website:  www.openfoam.com                      |
|    \\/     M anipulation  |                                                 |
\*---------------------------------------------------------------------------*/
FoamFile
{
    version     2.0;
    format      ascii;
    arch        "LSB;label=32;scalar=64";
    class       volScalarField;
    location    "0.068";
    object      nut;
}
// * * * * * * * * * * * * * * * * * * * * * * * * * * * * * * * * * * * * * //

dimensions      [0 2 -1 0 0 0 0];

internalField   nonuniform List<scalar> 
31639
(
2.44462e-05
2.38303e-05
2.4156e-05
2.67257e-05
2.35558e-05
2.29596e-05
2.18346e-05
2.46106e-05
2.38396e-05
2.5879e-05
2.53176e-05
2.57971e-05
2.43834e-05
2.61327e-05
2.29683e-05
2.10164e-05
2.47584e-05
2.23344e-05
2.10107e-05
2.42342e-05
1.7505e-05
2.57758e-05
2.60139e-05
2.09427e-05
2.04126e-05
2.35894e-05
2.39834e-05
1.96877e-05
2.20483e-05
2.62605e-05
2.59923e-05
2.15821e-05
2.63583e-05
2.02927e-05
1.88207e-05
2.61416e-05
1.60811e-05
2.71495e-05
2.61481e-05
1.55546e-05
1.86136e-05
1.87674e-05
2.57495e-05
2.55595e-05
2.4937e-05
2.58931e-05
2.30746e-05
2.26096e-05
2.48498e-05
2.65169e-05
2.58723e-05
1.59358e-05
2.60453e-05
1.69229e-05
2.21125e-05
2.42054e-05
1.73393e-05
2.41443e-05
2.36161e-05
1.76772e-05
2.37366e-05
2.53776e-05
2.06814e-05
2.39246e-05
2.4208e-05
2.66376e-05
2.34933e-05
2.40233e-05
1.98341e-05
2.64505e-05
2.55592e-05
2.21064e-05
2.53692e-05
2.42414e-05
2.53912e-05
1.89846e-05
2.55788e-05
2.22217e-05
2.2984e-05
2.45326e-05
2.08431e-05
1.51642e-05
2.62619e-05
2.44754e-05
2.47266e-05
2.56997e-05
2.63419e-05
2.61325e-05
1.96274e-05
2.66095e-05
2.44281e-05
2.40164e-05
1.79128e-05
2.31136e-05
1.99383e-05
2.33521e-05
2.25817e-05
2.40666e-05
2.43074e-05
1.78726e-05
2.58658e-05
2.56921e-05
2.32408e-05
1.73831e-05
1.76077e-05
2.60168e-05
1.7505e-05
1.62587e-05
1.9816e-05
1.70537e-05
2.55347e-05
1.79973e-05
2.32085e-05
2.17553e-05
2.41171e-05
1.67879e-05
2.30155e-05
2.32289e-05
2.48588e-05
2.3555e-05
2.52811e-05
2.54587e-05
2.55895e-05
2.40377e-05
2.40718e-05
2.59206e-05
2.40034e-05
2.00704e-05
1.93466e-05
2.53039e-05
2.59817e-05
2.57143e-05
2.59625e-05
2.22913e-05
2.53054e-05
2.40012e-05
1.78148e-05
1.67089e-05
2.55212e-05
2.40674e-05
2.40031e-05
2.56315e-05
2.57811e-05
1.69186e-05
1.60564e-05
2.59013e-05
2.49133e-05
1.84213e-05
1.856e-05
2.55477e-05
2.01137e-05
2.50831e-05
2.10938e-05
2.47187e-05
1.93224e-05
2.65546e-05
2.34638e-05
1.90803e-05
1.88482e-05
2.08899e-05
2.6186e-05
1.94008e-05
2.03888e-05
1.75173e-05
1.79476e-05
2.35803e-05
1.92233e-05
2.66469e-05
2.57389e-05
1.72705e-05
2.324e-05
2.20804e-05
1.84655e-05
2.41063e-05
2.66011e-05
2.45718e-05
2.43144e-05
2.64349e-05
2.40571e-05
2.41493e-05
2.29704e-05
2.24958e-05
2.26886e-05
1.59071e-05
2.39093e-05
2.69124e-05
2.41923e-05
2.64254e-05
1.80549e-05
1.81162e-05
2.74265e-05
2.5228e-05
2.49224e-05
2.36263e-05
2.42115e-05
2.23867e-05
2.21916e-05
2.54687e-05
1.74889e-05
2.22488e-05
2.60075e-05
2.65661e-05
2.5708e-05
2.50298e-05
2.30389e-05
2.32791e-05
2.33981e-05
2.26461e-05
2.61123e-05
1.5826e-05
2.36771e-05
2.24695e-05
2.45305e-05
2.55574e-05
2.55432e-05
2.6268e-05
1.85461e-05
2.11228e-05
2.58687e-05
2.4886e-05
2.49461e-05
2.32951e-05
1.74774e-05
2.37553e-05
1.77431e-05
2.19386e-05
2.54161e-05
2.12055e-05
1.84977e-05
2.4707e-05
2.45807e-05
2.6646e-05
1.93273e-05
1.80258e-05
2.45012e-05
2.48549e-05
1.73058e-05
2.64974e-05
2.04076e-05
1.74046e-05
2.31233e-05
2.46539e-05
2.35925e-05
2.11534e-05
2.08366e-05
2.46916e-05
2.3168e-05
2.28236e-05
1.85279e-05
2.35401e-05
2.2858e-05
1.86989e-05
2.13349e-05
2.6493e-05
2.50985e-05
2.19839e-05
1.90247e-05
2.51799e-05
2.54187e-05
2.39296e-05
2.65309e-05
2.60406e-05
2.3282e-05
2.60443e-05
2.30459e-05
2.24617e-05
1.69551e-05
2.07866e-05
2.63076e-05
2.27998e-05
2.44669e-05
2.15744e-05
2.35151e-05
2.65657e-05
2.67715e-05
2.4527e-05
1.78596e-05
2.26732e-05
2.0343e-05
2.59837e-05
2.29644e-05
2.66462e-05
2.62322e-05
2.23089e-05
1.84043e-05
2.04119e-05
1.92211e-05
1.74507e-05
2.60126e-05
1.9659e-05
2.45241e-05
2.33498e-05
2.1279e-05
1.92147e-05
2.68996e-05
2.18357e-05
2.16387e-05
2.56991e-05
2.39069e-05
2.06101e-05
2.30956e-05
1.99719e-05
2.39939e-05
2.32942e-05
1.8416e-05
2.16872e-05
2.24729e-05
1.51107e-05
1.63923e-05
2.6006e-05
2.61123e-05
2.48941e-05
1.72851e-05
1.93274e-05
2.53503e-05
1.97989e-05
1.93738e-05
2.62331e-05
2.69457e-05
2.34678e-05
2.58065e-05
2.64508e-05
1.88033e-05
2.54974e-05
1.70459e-05
1.69165e-05
2.63739e-05
2.61201e-05
2.61191e-05
2.67078e-05
2.52636e-05
1.92265e-05
2.38271e-05
2.3462e-05
2.60018e-05
2.65701e-05
2.69454e-05
2.33913e-05
2.2435e-05
2.52519e-05
2.52314e-05
2.4205e-05
2.34905e-05
2.28225e-05
2.31285e-05
2.32898e-05
2.42864e-05
2.34335e-05
1.87739e-05
2.39276e-05
2.6272e-05
2.22615e-05
2.51793e-05
2.64484e-05
2.37344e-05
1.83873e-05
2.36337e-05
2.35049e-05
1.7255e-05
2.73976e-05
1.96079e-05
2.4139e-05
2.52282e-05
1.66081e-05
2.37614e-05
2.36177e-05
1.80517e-05
2.37904e-05
1.89935e-05
2.33506e-05
2.60403e-05
2.46849e-05
1.6434e-05
2.41682e-05
1.90982e-05
2.4281e-05
2.58867e-05
2.63174e-05
2.6179e-05
1.95749e-05
2.54815e-05
1.76195e-05
2.31291e-05
1.7272e-05
2.63984e-05
2.55475e-05
2.6099e-05
2.58622e-05
2.04058e-05
2.60767e-05
2.35553e-05
2.49879e-05
2.33732e-05
1.97399e-05
2.31897e-05
2.47848e-05
2.53597e-05
2.51088e-05
2.35792e-05
2.50906e-05
2.25707e-05
1.90107e-05
2.28615e-05
2.43301e-05
2.49517e-05
1.64891e-05
2.58293e-05
2.59289e-05
2.33098e-05
2.46216e-05
2.50511e-05
2.3739e-05
2.63482e-05
1.75754e-05
2.4403e-05
2.57339e-05
1.67342e-05
2.3399e-05
2.45588e-05
1.92145e-05
1.78636e-05
1.77195e-05
2.1536e-05
1.78507e-05
2.32703e-05
2.29381e-05
2.16152e-05
2.59192e-05
1.81763e-05
2.54092e-05
2.62458e-05
2.36817e-05
2.55458e-05
2.22049e-05
2.60359e-05
2.33047e-05
2.39361e-05
2.66296e-05
2.36405e-05
1.83114e-05
2.38557e-05
2.57175e-05
2.58583e-05
2.48092e-05
2.60465e-05
2.30644e-05
2.42279e-05
2.54685e-05
2.64586e-05
2.52828e-05
1.87763e-05
2.33118e-05
1.58728e-05
2.27826e-05
2.32351e-05
1.81362e-05
1.77508e-05
2.16251e-05
2.51668e-05
2.53748e-05
1.80409e-05
2.50519e-05
2.135e-05
2.35298e-05
2.50109e-05
1.80835e-05
2.33505e-05
1.70423e-05
2.28828e-05
2.59936e-05
2.62135e-05
2.55024e-05
2.27726e-05
1.72979e-05
2.47643e-05
2.40936e-05
2.48448e-05
1.72727e-05
1.87896e-05
2.34907e-05
1.78758e-05
1.91267e-05
2.36064e-05
1.71743e-05
2.23526e-05
1.70106e-05
2.47265e-05
1.83272e-05
2.65153e-05
2.57083e-05
2.55546e-05
2.5935e-05
2.1196e-05
2.54355e-05
2.58785e-05
2.36793e-05
2.53094e-05
2.40131e-05
2.56575e-05
2.58955e-05
2.12343e-05
2.56844e-05
2.60216e-05
2.36418e-05
2.10031e-05
2.6636e-05
2.39467e-05
1.65646e-05
1.69001e-05
2.371e-05
2.69231e-05
2.61627e-05
2.3842e-05
2.69346e-05
2.61378e-05
2.5114e-05
2.40194e-05
2.23726e-05
2.21238e-05
1.89325e-05
2.38734e-05
2.45267e-05
2.62846e-05
2.0362e-05
2.01108e-05
1.95303e-05
2.33255e-05
2.3316e-05
1.60744e-05
2.44566e-05
2.132e-05
2.4685e-05
2.31664e-05
2.58691e-05
2.30108e-05
1.90762e-05
2.51955e-05
2.62549e-05
2.00922e-05
2.55433e-05
2.6107e-05
2.29483e-05
2.35354e-05
1.96797e-05
1.96931e-05
2.3559e-05
2.38241e-05
1.92442e-05
1.87683e-05
2.39137e-05
1.98152e-05
2.46733e-05
2.0445e-05
2.26536e-05
2.60305e-05
2.35473e-05
1.75046e-05
2.14335e-05
2.39965e-05
2.62182e-05
1.82896e-05
1.56055e-05
2.55397e-05
1.74664e-05
2.42987e-05
2.65954e-05
1.86746e-05
2.36294e-05
2.54523e-05
2.33698e-05
1.79798e-05
2.57891e-05
2.34568e-05
1.83772e-05
2.55836e-05
2.42387e-05
2.34256e-05
2.471e-05
1.64915e-05
2.06118e-05
2.51336e-05
2.16708e-05
2.20648e-05
2.27019e-05
2.53486e-05
2.55044e-05
2.47619e-05
2.55898e-05
2.63016e-05
2.51804e-05
2.02951e-05
2.56143e-05
2.5884e-05
2.62008e-05
2.01541e-05
2.39999e-05
2.36196e-05
2.73402e-05
1.93529e-05
1.63578e-05
2.63491e-05
1.937e-05
2.71191e-05
2.31887e-05
1.87967e-05
2.38158e-05
2.58661e-05
2.44777e-05
2.42196e-05
1.69848e-05
2.48955e-05
2.35984e-05
1.68447e-05
2.59505e-05
2.55563e-05
1.96254e-05
1.82906e-05
1.96129e-05
2.13767e-05
2.4504e-05
2.4064e-05
2.35323e-05
2.38564e-05
2.59136e-05
2.35845e-05
2.3325e-05
1.85334e-05
2.67972e-05
1.72613e-05
2.36614e-05
2.22859e-05
2.13818e-05
2.64429e-05
2.38529e-05
2.02401e-05
1.76064e-05
1.80663e-05
2.22408e-05
2.57933e-05
2.00726e-05
2.64724e-05
2.3416e-05
2.58981e-05
1.86837e-05
2.28625e-05
2.5078e-05
2.6765e-05
2.63229e-05
2.55484e-05
2.40079e-05
2.36586e-05
2.64041e-05
2.63746e-05
2.57332e-05
2.06093e-05
2.57094e-05
1.86106e-05
2.5992e-05
2.40264e-05
2.38083e-05
1.94294e-05
2.32411e-05
1.57756e-05
2.63806e-05
2.39851e-05
2.65667e-05
2.34143e-05
2.20862e-05
1.83402e-05
2.56883e-05
1.75633e-05
1.6378e-05
1.88662e-05
2.08506e-05
1.83562e-05
2.32585e-05
1.74981e-05
2.59661e-05
2.432e-05
1.65297e-05
2.6216e-05
1.91826e-05
2.04324e-05
2.30355e-05
2.14067e-05
2.47103e-05
2.63943e-05
2.688e-05
2.53709e-05
2.32047e-05
2.44258e-05
2.212e-05
2.21546e-05
1.76489e-05
1.34277e-05
2.63918e-05
2.32232e-05
2.50112e-05
2.57398e-05
1.79862e-05
2.59209e-05
2.58023e-05
2.54333e-05
2.54999e-05
2.51244e-05
2.43769e-05
2.66974e-05
2.68056e-05
2.38969e-05
2.56487e-05
2.55158e-05
1.93342e-05
2.5745e-05
2.11426e-05
2.44888e-05
2.25074e-05
2.33597e-05
2.08133e-05
2.6505e-05
2.36632e-05
2.38584e-05
2.28753e-05
1.96984e-05
2.67058e-05
2.39954e-05
2.17561e-05
1.89282e-05
2.53572e-05
1.7332e-05
2.6112e-05
2.48815e-05
2.21889e-05
2.5139e-05
2.70417e-05
2.54948e-05
1.75565e-05
2.45221e-05
2.2678e-05
2.32044e-05
1.92992e-05
2.61411e-05
2.57488e-05
2.2828e-05
2.37015e-05
2.29569e-05
2.48254e-05
2.15033e-05
2.28366e-05
1.72399e-05
2.54627e-05
2.43748e-05
2.53432e-05
2.08025e-05
2.3704e-05
2.47216e-05
2.37107e-05
2.14609e-05
2.55827e-05
2.54721e-05
2.31746e-05
1.73122e-05
1.69579e-05
2.34954e-05
1.60859e-05
1.87566e-05
2.3938e-05
2.42868e-05
2.59844e-05
1.70109e-05
2.3443e-05
2.62625e-05
1.97541e-05
1.76393e-05
2.44695e-05
1.92027e-05
2.43857e-05
1.99206e-05
2.53461e-05
2.04093e-05
2.13504e-05
2.66043e-05
1.7033e-05
2.26668e-05
2.31244e-05
2.55993e-05
2.6103e-05
2.62351e-05
1.9032e-05
2.48943e-05
2.58857e-05
2.17485e-05
2.64785e-05
2.58379e-05
2.41048e-05
2.53188e-05
2.40458e-05
2.61357e-05
2.70214e-05
2.64033e-05
2.49802e-05
2.1644e-05
2.48842e-05
2.38459e-05
1.76318e-05
2.29204e-05
2.53067e-05
2.60024e-05
2.59758e-05
2.34505e-05
2.61407e-05
2.60533e-05
2.31806e-05
2.56771e-05
2.56347e-05
2.46708e-05
2.5223e-05
1.80884e-05
2.22048e-05
2.48023e-05
1.61983e-05
2.40296e-05
2.31535e-05
2.27451e-05
2.30027e-05
2.66239e-05
2.50858e-05
2.58105e-05
2.24374e-05
2.50354e-05
2.37389e-05
2.59354e-05
2.42196e-05
2.21629e-05
1.89058e-05
2.5768e-05
1.93417e-05
2.2569e-05
2.28279e-05
2.33465e-05
2.43135e-05
2.65066e-05
1.8402e-05
2.57002e-05
1.93982e-05
2.49743e-05
2.16747e-05
2.29983e-05
2.32633e-05
2.60996e-05
1.81704e-05
2.49945e-05
2.60528e-05
2.56627e-05
2.42432e-05
2.30952e-05
1.62503e-05
2.53791e-05
2.54624e-05
2.42053e-05
2.54583e-05
2.60912e-05
2.47959e-05
2.49942e-05
2.39425e-05
1.94721e-05
2.252e-05
2.64087e-05
1.7612e-05
1.98087e-05
2.68373e-05
2.57938e-05
2.12566e-05
2.25187e-05
2.26076e-05
2.06606e-05
2.34906e-05
2.01508e-05
2.58424e-05
2.59022e-05
1.61212e-05
2.4155e-05
2.63158e-05
2.55359e-05
2.62824e-05
2.38513e-05
2.58895e-05
1.96127e-05
1.94942e-05
2.62815e-05
2.56028e-05
2.40451e-05
1.99188e-05
2.55679e-05
2.5592e-05
2.07915e-05
2.62277e-05
2.60705e-05
2.6074e-05
2.45895e-05
2.54229e-05
2.41731e-05
2.45787e-05
2.3463e-05
2.13308e-05
1.83609e-05
2.40435e-05
2.40807e-05
1.94561e-05
2.61623e-05
1.77578e-05
2.28785e-05
2.28475e-05
1.87177e-05
2.29349e-05
2.16355e-05
2.41558e-05
2.31881e-05
2.53257e-05
1.85626e-05
1.83733e-05
2.25506e-05
1.80645e-05
2.23048e-05
2.58499e-05
2.33529e-05
2.59044e-05
2.341e-05
2.32152e-05
2.61509e-05
2.16101e-05
2.38407e-05
2.33557e-05
2.32594e-05
2.38486e-05
1.9157e-05
2.37888e-05
2.50027e-05
2.63526e-05
2.66457e-05
1.88045e-05
1.79822e-05
2.39355e-05
2.59652e-05
2.00742e-05
2.25454e-05
2.49309e-05
2.34476e-05
2.73281e-05
2.2603e-05
2.29649e-05
2.47872e-05
1.85937e-05
2.56759e-05
2.61238e-05
1.91556e-05
2.07797e-05
2.40888e-05
2.18101e-05
2.63238e-05
2.66808e-05
2.46339e-05
1.94297e-05
2.58128e-05
1.82722e-05
2.27969e-05
2.55134e-05
2.16778e-05
2.69528e-05
1.70967e-05
2.41794e-05
2.4638e-05
2.39987e-05
1.71028e-05
1.81154e-05
2.56442e-05
2.64444e-05
2.16959e-05
2.64768e-05
2.44852e-05
2.37386e-05
1.81767e-05
2.02605e-05
2.42493e-05
2.312e-05
2.35435e-05
2.66002e-05
2.66969e-05
2.65136e-05
2.67351e-05
2.43404e-05
2.40636e-05
2.51845e-05
1.90981e-05
2.54712e-05
2.4988e-05
2.46419e-05
2.42126e-05
2.62153e-05
2.27594e-05
2.63348e-05
2.28529e-05
1.63781e-05
2.68371e-05
2.0742e-05
2.55719e-05
2.13652e-05
2.63161e-05
1.94014e-05
2.48936e-05
2.66404e-05
2.28571e-05
2.38658e-05
1.71875e-05
2.56422e-05
2.5563e-05
2.47674e-05
1.80015e-05
2.70257e-05
2.2925e-05
2.47094e-05
2.55557e-05
2.60695e-05
2.54541e-05
2.38617e-05
2.30321e-05
2.64994e-05
1.95414e-05
1.96362e-05
1.89199e-05
2.0174e-05
2.43229e-05
1.80274e-05
2.6405e-05
2.6057e-05
2.63752e-05
2.25356e-05
2.23683e-05
2.37394e-05
2.54707e-05
2.38374e-05
2.30764e-05
2.60845e-05
2.54077e-05
2.27092e-05
2.61448e-05
2.46192e-05
2.27236e-05
2.45375e-05
2.10902e-05
2.59498e-05
2.60254e-05
2.67197e-05
2.66551e-05
2.5501e-05
2.11658e-05
2.66756e-05
2.38963e-05
2.36564e-05
2.31417e-05
2.4584e-05
2.6188e-05
2.37178e-05
2.55231e-05
2.21348e-05
2.35339e-05
2.44026e-05
1.96352e-05
1.74047e-05
2.3258e-05
2.19095e-05
2.5979e-05
2.12555e-05
1.77891e-05
2.38711e-05
2.58206e-05
2.08531e-05
2.14472e-05
2.39783e-05
2.65593e-05
2.54359e-05
2.29074e-05
2.07198e-05
2.38032e-05
2.52818e-05
2.17408e-05
2.32525e-05
2.34605e-05
1.72715e-05
2.15674e-05
2.20629e-05
2.47201e-05
2.52454e-05
2.32691e-05
2.55825e-05
2.47059e-05
2.34584e-05
2.34019e-05
1.9004e-05
2.06304e-05
1.72828e-05
2.52562e-05
2.45265e-05
2.70296e-05
2.78769e-05
2.49657e-05
1.79913e-05
2.55543e-05
2.17924e-05
2.40214e-05
2.44834e-05
2.57578e-05
1.79548e-05
2.62069e-05
1.87985e-05
2.4206e-05
2.34552e-05
2.33089e-05
2.67855e-05
2.22027e-05
2.46626e-05
1.99106e-05
2.30233e-05
2.25963e-05
2.57097e-05
2.10468e-05
2.03694e-05
2.55436e-05
2.52079e-05
2.47657e-05
2.5426e-05
2.60852e-05
1.9348e-05
2.30053e-05
2.25022e-05
2.05246e-05
2.52135e-05
2.62893e-05
2.6558e-05
2.60016e-05
2.68675e-05
1.88453e-05
1.85387e-05
1.93036e-05
2.56529e-05
1.77473e-05
2.59001e-05
2.45112e-05
1.88942e-05
2.18437e-05
2.56921e-05
2.57748e-05
2.10881e-05
2.18506e-05
2.26391e-05
2.46304e-05
2.63879e-05
2.30164e-05
1.92797e-05
2.41704e-05
2.65921e-05
2.52899e-05
2.66345e-05
2.63683e-05
2.74364e-05
2.64681e-05
2.55792e-05
1.95125e-05
1.75957e-05
2.38349e-05
2.09169e-05
2.62222e-05
1.84383e-05
2.49424e-05
2.30027e-05
2.68742e-05
2.0049e-05
2.50926e-05
2.52306e-05
2.41014e-05
2.26261e-05
1.88946e-05
2.57647e-05
2.11073e-05
2.61517e-05
2.33566e-05
2.65295e-05
2.66724e-05
2.40384e-05
1.76943e-05
1.85102e-05
2.32739e-05
2.45498e-05
2.09806e-05
2.70602e-05
1.8717e-05
2.6178e-05
2.51915e-05
2.14082e-05
2.49539e-05
2.55745e-05
2.59622e-05
2.6573e-05
2.59948e-05
2.41803e-05
2.42094e-05
1.75518e-05
2.13405e-05
2.68029e-05
1.95074e-05
2.51201e-05
2.32293e-05
1.98554e-05
2.3487e-05
2.49971e-05
2.34881e-05
2.50169e-05
2.55669e-05
1.89971e-05
2.33209e-05
2.39224e-05
1.90654e-05
2.13496e-05
2.36852e-05
2.36157e-05
2.51164e-05
1.88772e-05
1.85237e-05
2.35576e-05
2.23254e-05
2.71108e-05
2.70156e-05
2.65887e-05
2.27352e-05
2.31857e-05
2.44562e-05
2.26448e-05
2.49651e-05
1.88089e-05
2.39809e-05
2.29699e-05
2.65876e-05
2.5229e-05
2.28455e-05
2.39597e-05
2.6302e-05
1.85369e-05
2.43514e-05
2.67012e-05
2.30042e-05
1.55463e-05
2.33169e-05
1.90877e-05
2.39904e-05
1.71075e-05
2.56673e-05
2.72755e-05
2.59582e-05
2.41554e-05
1.87664e-05
1.88086e-05
2.57238e-05
2.60765e-05
2.57411e-05
2.42569e-05
2.27316e-05
2.54493e-05
2.61942e-05
2.55917e-05
1.74514e-05
2.2078e-05
2.56604e-05
2.497e-05
2.1806e-05
2.45222e-05
1.75612e-05
2.62064e-05
2.59931e-05
2.37397e-05
2.44544e-05
2.47691e-05
2.35791e-05
2.68384e-05
2.52597e-05
1.94266e-05
2.32741e-05
2.56217e-05
2.31669e-05
2.33341e-05
2.47498e-05
1.71084e-05
1.95479e-05
2.63459e-05
2.64203e-05
2.60324e-05
2.66687e-05
2.45324e-05
2.60693e-05
2.40209e-05
2.42193e-05
2.50373e-05
2.61161e-05
2.12411e-05
2.29392e-05
2.25852e-05
2.37802e-05
2.57499e-05
1.67043e-05
2.40428e-05
1.78916e-05
2.6031e-05
1.79206e-05
1.75629e-05
2.35582e-05
1.72091e-05
2.36519e-05
2.42783e-05
2.59413e-05
2.63494e-05
2.1578e-05
2.13069e-05
2.67559e-05
2.12872e-05
1.91724e-05
2.30715e-05
2.04638e-05
2.64593e-05
2.48827e-05
2.40357e-05
1.88687e-05
2.51597e-05
2.52788e-05
2.63824e-05
1.8149e-05
2.07423e-05
2.42904e-05
2.45006e-05
2.70216e-05
1.96258e-05
1.88923e-05
2.47798e-05
2.36854e-05
2.66499e-05
2.43564e-05
1.68789e-05
2.46477e-05
2.54655e-05
1.83986e-05
1.70935e-05
2.62054e-05
1.98084e-05
1.9831e-05
2.6223e-05
2.63653e-05
2.60679e-05
2.71905e-05
2.41243e-05
2.22518e-05
2.63125e-05
2.06431e-05
2.64251e-05
2.13856e-05
2.42189e-05
2.5718e-05
2.35073e-05
1.82473e-05
2.6006e-05
2.61213e-05
2.21137e-05
2.35716e-05
2.37254e-05
2.07357e-05
2.22506e-05
2.40575e-05
2.34621e-05
2.58763e-05
2.19964e-05
2.49233e-05
1.84252e-05
2.54453e-05
2.66584e-05
1.73345e-05
2.47926e-05
2.43626e-05
1.61596e-05
1.82703e-05
2.42285e-05
2.39428e-05
2.57645e-05
2.21431e-05
1.93255e-05
2.55952e-05
2.62095e-05
2.56396e-05
2.47454e-05
2.67273e-05
1.85045e-05
2.62768e-05
2.38323e-05
1.91072e-05
1.83752e-05
1.51717e-05
1.93003e-05
2.48108e-05
2.23737e-05
2.45795e-05
2.41039e-05
2.0413e-05
2.1265e-05
1.72865e-05
1.70644e-05
2.65148e-05
2.64351e-05
1.9763e-05
2.60572e-05
2.58857e-05
1.90905e-05
2.34664e-05
2.35591e-05
2.04228e-05
2.21842e-05
2.6582e-05
2.04396e-05
1.69812e-05
2.64843e-05
2.59701e-05
2.12842e-05
2.62182e-05
2.13716e-05
2.00648e-05
1.9156e-05
2.30663e-05
1.80901e-05
1.9002e-05
2.44592e-05
2.50532e-05
2.29537e-05
2.5202e-05
2.63282e-05
2.33925e-05
2.53867e-05
1.28374e-05
2.31366e-05
1.87511e-05
2.38393e-05
2.54649e-05
2.36286e-05
2.11376e-05
2.36636e-05
1.96154e-05
2.50271e-05
2.35148e-05
2.13533e-05
1.86351e-05
1.67883e-05
1.6398e-05
2.21569e-05
1.87648e-05
2.2889e-05
1.91791e-05
2.21902e-05
2.60535e-05
2.40786e-05
2.23499e-05
2.42154e-05
2.49519e-05
2.34399e-05
2.55137e-05
1.73701e-05
2.40289e-05
2.62299e-05
2.66127e-05
2.30146e-05
2.73502e-05
2.03577e-05
2.4438e-05
2.3361e-05
1.80661e-05
2.55051e-05
2.65418e-05
2.49428e-05
2.51525e-05
2.52891e-05
2.41149e-05
1.64103e-05
1.7341e-05
2.3109e-05
2.68354e-05
2.34819e-05
2.62418e-05
2.15492e-05
2.24241e-05
1.95124e-05
1.8177e-05
1.83258e-05
1.76642e-05
2.4915e-05
2.44583e-05
2.61276e-05
2.27341e-05
2.18914e-05
2.7068e-05
1.8532e-05
2.4118e-05
2.63262e-05
2.5641e-05
2.19646e-05
2.32743e-05
2.55336e-05
2.57136e-05
2.58209e-05
1.99115e-05
2.41803e-05
2.58133e-05
2.44435e-05
2.38312e-05
2.60829e-05
2.48337e-05
2.6411e-05
2.49695e-05
2.08174e-05
2.48982e-05
2.56436e-05
2.48846e-05
2.33908e-05
1.85138e-05
2.63027e-05
2.60677e-05
2.57005e-05
2.61916e-05
1.74481e-05
1.56964e-05
2.31278e-05
2.51483e-05
2.16502e-05
2.51263e-05
2.58058e-05
2.61181e-05
2.61e-05
2.17491e-05
2.51689e-05
2.36135e-05
2.55951e-05
1.8796e-05
1.87975e-05
2.28946e-05
2.59986e-05
1.95262e-05
2.56465e-05
1.88066e-05
2.25695e-05
2.37734e-05
2.64825e-05
2.29388e-05
2.65542e-05
2.61292e-05
2.50991e-05
2.41878e-05
2.51352e-05
2.38056e-05
2.15821e-05
1.66536e-05
2.69819e-05
1.49765e-05
1.75127e-05
1.97287e-05
1.73357e-05
1.7469e-05
2.28179e-05
2.43103e-05
1.89302e-05
2.14436e-05
1.57813e-05
1.93222e-05
2.1993e-05
2.61252e-05
1.77765e-05
1.79046e-05
2.55029e-05
1.78038e-05
2.24947e-05
2.44708e-05
2.4592e-05
2.32211e-05
1.86618e-05
1.71484e-05
2.13344e-05
2.68419e-05
2.00531e-05
1.78381e-05
2.41857e-05
2.11058e-05
2.41935e-05
2.37788e-05
1.89074e-05
2.54942e-05
1.69265e-05
1.77721e-05
2.20158e-05
2.55555e-05
2.1632e-05
2.2256e-05
2.24534e-05
2.42473e-05
1.65336e-05
1.97827e-05
2.29099e-05
2.60941e-05
2.53847e-05
1.79818e-05
1.58027e-05
2.21016e-05
2.70845e-05
2.35985e-05
2.37738e-05
2.09719e-05
2.36967e-05
2.41158e-05
1.86462e-05
2.64363e-05
2.12084e-05
1.82612e-05
1.60915e-05
2.54023e-05
2.37733e-05
2.63962e-05
2.3973e-05
2.59222e-05
1.86715e-05
2.22419e-05
1.68336e-05
1.5529e-05
2.49478e-05
1.91212e-05
2.24412e-05
2.40299e-05
2.41937e-05
1.80487e-05
2.63636e-05
2.56788e-05
2.67937e-05
2.45138e-05
1.47206e-05
2.359e-05
1.68486e-05
2.59089e-05
1.86229e-05
2.60954e-05
1.59358e-05
2.46842e-05
2.41661e-05
2.0889e-05
2.14841e-05
1.66694e-05
2.07865e-05
2.37318e-05
2.50682e-05
2.47753e-05
2.63751e-05
2.52952e-05
1.90106e-05
2.65452e-05
2.23288e-05
2.42432e-05
2.48875e-05
2.59421e-05
2.53282e-05
2.37196e-05
2.63105e-05
2.26208e-05
2.14017e-05
2.12055e-05
2.44369e-05
2.53826e-05
2.09451e-05
1.89967e-05
2.57789e-05
2.4119e-05
2.35016e-05
2.63772e-05
2.44654e-05
2.424e-05
2.42024e-05
2.55584e-05
2.53999e-05
2.38734e-05
2.30569e-05
2.57667e-05
2.49926e-05
2.02803e-05
2.38747e-05
2.04262e-05
2.61756e-05
2.44241e-05
2.65705e-05
1.85255e-05
1.83643e-05
2.40262e-05
2.51849e-05
2.47456e-05
2.60599e-05
2.57127e-05
2.3314e-05
2.5072e-05
1.92453e-05
2.3184e-05
2.36478e-05
2.62275e-05
2.56322e-05
2.63886e-05
2.34328e-05
2.65912e-05
2.01139e-05
2.6094e-05
2.06747e-05
2.32884e-05
2.192e-05
2.41765e-05
2.35627e-05
2.52441e-05
1.77544e-05
2.59772e-05
2.52192e-05
2.26287e-05
1.85277e-05
2.58927e-05
2.47585e-05
2.54724e-05
2.34074e-05
2.37905e-05
2.53761e-05
1.82471e-05
2.63119e-05
2.28591e-05
2.3881e-05
2.01332e-05
2.09672e-05
2.06489e-05
1.76911e-05
2.16951e-05
2.70178e-05
2.3914e-05
1.66598e-05
2.32547e-05
1.79446e-05
2.40109e-05
2.44527e-05
1.67388e-05
1.76559e-05
2.09064e-05
2.37938e-05
2.53183e-05
2.17007e-05
2.54452e-05
2.28982e-05
2.07421e-05
2.13464e-05
2.63184e-05
2.57041e-05
2.58483e-05
2.5383e-05
2.45653e-05
1.84435e-05
1.94322e-05
2.66215e-05
2.26861e-05
2.38444e-05
2.51027e-05
2.6512e-05
2.41498e-05
2.47451e-05
1.71247e-05
2.54553e-05
2.60659e-05
2.14637e-05
2.6079e-05
2.56555e-05
2.42554e-05
2.20581e-05
2.48166e-05
2.19183e-05
1.63793e-05
2.41934e-05
1.94239e-05
1.77973e-05
2.37769e-05
2.36581e-05
2.46558e-05
2.49045e-05
2.43303e-05
2.65568e-05
1.54542e-05
2.14718e-05
2.60059e-05
2.60581e-05
1.67061e-05
2.41349e-05
1.95453e-05
2.16308e-05
2.65488e-05
2.0569e-05
2.4578e-05
2.66665e-05
2.50821e-05
1.68656e-05
2.51341e-05
1.86503e-05
2.62293e-05
2.51959e-05
2.49851e-05
2.65771e-05
2.44525e-05
2.60167e-05
1.81717e-05
2.54343e-05
2.58504e-05
1.95102e-05
2.50096e-05
2.37022e-05
2.15976e-05
2.55093e-05
2.20658e-05
2.59708e-05
2.63899e-05
2.68638e-05
2.34969e-05
2.53055e-05
2.38023e-05
2.51034e-05
2.04924e-05
2.16545e-05
1.7991e-05
1.74247e-05
2.43049e-05
2.50438e-05
2.3739e-05
2.64246e-05
2.28193e-05
2.65377e-05
1.71863e-05
2.64811e-05
2.67409e-05
2.49661e-05
2.67024e-05
1.98519e-05
1.6741e-05
2.32371e-05
1.7991e-05
2.63556e-05
2.3883e-05
1.69833e-05
2.24561e-05
2.68771e-05
2.41436e-05
1.80064e-05
2.01745e-05
1.6942e-05
2.69871e-05
1.77648e-05
2.55239e-05
2.18077e-05
1.88684e-05
2.58058e-05
2.59978e-05
2.60716e-05
2.53333e-05
1.77715e-05
2.4117e-05
2.59455e-05
1.93545e-05
2.62894e-05
2.34783e-05
2.64632e-05
1.64544e-05
2.54306e-05
2.135e-05
2.41958e-05
2.1176e-05
2.3228e-05
2.19086e-05
2.083e-05
2.23455e-05
2.26076e-05
2.48025e-05
2.32021e-05
2.66878e-05
1.92052e-05
2.35617e-05
2.34887e-05
2.52825e-05
2.5883e-05
1.84762e-05
2.60934e-05
1.89955e-05
2.37978e-05
2.60107e-05
2.55898e-05
2.22248e-05
2.45186e-05
2.46347e-05
2.1374e-05
2.38041e-05
2.25693e-05
1.78776e-05
1.81075e-05
2.46905e-05
2.55185e-05
2.33124e-05
2.20779e-05
2.56121e-05
1.87447e-05
2.43996e-05
1.91319e-05
2.51742e-05
2.65432e-05
2.38372e-05
1.83688e-05
2.55001e-05
1.73909e-05
2.44339e-05
2.6036e-05
1.68053e-05
2.6942e-05
1.91648e-05
2.16046e-05
2.20902e-05
1.84875e-05
2.21563e-05
2.23006e-05
1.68317e-05
2.54508e-05
2.58186e-05
1.51806e-05
2.15245e-05
2.5006e-05
2.32516e-05
2.45038e-05
2.66257e-05
2.5418e-05
2.28272e-05
2.0444e-05
1.70155e-05
1.64143e-05
1.95006e-05
2.65239e-05
2.57385e-05
2.48541e-05
2.52923e-05
1.85959e-05
1.78737e-05
2.33449e-05
2.52497e-05
1.69797e-05
2.52265e-05
2.40801e-05
2.23427e-05
2.50076e-05
2.20038e-05
2.51484e-05
2.11598e-05
2.28912e-05
2.59341e-05
1.4844e-05
2.4738e-05
2.53174e-05
2.58399e-05
2.45686e-05
2.58771e-05
2.36918e-05
1.84168e-05
2.65303e-05
2.73437e-05
2.42297e-05
2.34708e-05
2.17935e-05
2.34568e-05
2.46279e-05
2.56048e-05
2.37958e-05
2.30391e-05
2.2839e-05
1.71077e-05
2.17708e-05
2.65046e-05
2.44883e-05
2.76272e-05
2.35653e-05
2.19672e-05
2.61279e-05
1.82954e-05
2.50735e-05
1.8229e-05
2.60032e-05
2.46282e-05
2.20339e-05
2.69068e-05
2.15921e-05
2.32466e-05
2.6071e-05
2.24897e-05
2.61344e-05
2.50011e-05
2.50639e-05
1.78177e-05
2.37737e-05
2.36008e-05
1.95869e-05
2.57692e-05
2.26692e-05
2.25792e-05
2.62484e-05
1.86715e-05
2.63438e-05
2.35612e-05
2.58802e-05
2.08281e-05
2.39383e-05
1.79054e-05
1.85102e-05
2.647e-05
1.87613e-05
2.34037e-05
2.52636e-05
1.73694e-05
2.27955e-05
2.55686e-05
2.14257e-05
1.88802e-05
2.05719e-05
2.25636e-05
2.2081e-05
2.50745e-05
2.23077e-05
2.54383e-05
2.37916e-05
2.55869e-05
1.62681e-05
1.96049e-05
2.63238e-05
2.30145e-05
1.71105e-05
1.87215e-05
2.32891e-05
1.90177e-05
1.8222e-05
2.3627e-05
2.32696e-05
2.72045e-05
2.24498e-05
2.59261e-05
2.56291e-05
2.49042e-05
2.59845e-05
2.60019e-05
2.22247e-05
2.16691e-05
2.58298e-05
2.29284e-05
2.23677e-05
2.56871e-05
2.36101e-05
1.70931e-05
1.80442e-05
2.25052e-05
1.94281e-05
2.45655e-05
2.55022e-05
2.3156e-05
2.58561e-05
2.57701e-05
2.51083e-05
2.73804e-05
2.22939e-05
1.81052e-05
2.24757e-05
2.23776e-05
2.5353e-05
2.2881e-05
2.46282e-05
2.59051e-05
2.2529e-05
2.14084e-05
2.39361e-05
2.63584e-05
2.49001e-05
2.7146e-05
2.46496e-05
2.1902e-05
2.23878e-05
1.99998e-05
2.10665e-05
2.64786e-05
2.0155e-05
2.67641e-05
2.23636e-05
2.57995e-05
1.78423e-05
2.48457e-05
2.39168e-05
2.54122e-05
2.33138e-05
2.46749e-05
2.34979e-05
2.58944e-05
1.75537e-05
1.95056e-05
2.3778e-05
2.20452e-05
2.40005e-05
2.35655e-05
2.38871e-05
2.59755e-05
2.34407e-05
1.67203e-05
2.05599e-05
1.81209e-05
2.39285e-05
2.33482e-05
1.85756e-05
2.7191e-05
2.37517e-05
2.30062e-05
2.54286e-05
1.9842e-05
1.87226e-05
2.68398e-05
1.87716e-05
1.76242e-05
2.233e-05
2.19496e-05
1.86375e-05
2.09036e-05
2.63812e-05
2.60217e-05
2.20037e-05
2.40348e-05
2.55345e-05
2.34575e-05
2.51012e-05
1.71963e-05
2.61145e-05
1.19229e-05
2.55215e-05
1.85717e-05
1.77124e-05
2.55016e-05
1.78706e-05
2.33676e-05
2.41607e-05
2.56276e-05
2.16723e-05
2.53364e-05
2.2718e-05
2.35425e-05
2.24117e-05
2.51151e-05
2.41208e-05
2.59351e-05
2.39799e-05
1.87108e-05
2.51248e-05
2.37599e-05
2.34579e-05
2.2453e-05
1.97846e-05
2.16282e-05
1.75258e-05
1.81703e-05
2.37917e-05
2.26688e-05
1.92792e-05
2.16648e-05
2.52394e-05
2.64978e-05
2.60107e-05
1.23922e-05
1.6938e-05
2.60167e-05
1.75491e-05
2.46522e-05
1.70599e-05
2.60753e-05
2.5151e-05
2.55778e-05
1.84463e-05
2.28755e-05
2.62887e-05
2.61333e-05
2.41092e-05
2.61705e-05
2.34216e-05
2.38019e-05
2.34525e-05
1.81176e-05
2.34868e-05
2.09921e-05
2.3537e-05
2.31655e-05
1.92473e-05
2.30974e-05
2.6213e-05
2.02256e-05
2.08428e-05
1.80989e-05
2.58498e-05
2.53785e-05
1.65231e-05
2.31584e-05
2.37012e-05
2.4286e-05
1.81885e-05
2.37246e-05
2.33391e-05
2.68987e-05
1.84327e-05
2.30694e-05
2.31903e-05
1.67136e-05
2.59627e-05
1.91026e-05
1.88021e-05
2.38643e-05
2.65371e-05
1.74715e-05
2.56709e-05
2.45777e-05
2.35568e-05
1.68461e-05
2.62198e-05
2.65154e-05
1.71237e-05
2.39384e-05
1.63682e-05
1.93168e-05
2.61345e-05
2.19858e-05
2.38116e-05
2.5113e-05
2.68612e-05
2.27874e-05
2.16663e-05
2.29581e-05
2.26336e-05
2.36486e-05
2.16475e-05
2.61579e-05
1.86463e-05
2.2236e-05
2.3526e-05
2.20426e-05
2.56307e-05
2.31837e-05
2.49206e-05
2.48099e-05
2.39852e-05
2.62338e-05
2.48613e-05
2.21136e-05
2.05427e-05
2.52069e-05
2.29364e-05
2.22864e-05
2.46147e-05
2.65341e-05
2.5025e-05
2.50936e-05
2.20002e-05
2.49457e-05
2.06147e-05
1.79141e-05
2.33498e-05
2.41109e-05
1.7423e-05
2.4451e-05
2.31395e-05
1.52967e-05
1.8075e-05
2.48614e-05
1.81789e-05
2.25225e-05
2.51521e-05
2.41468e-05
1.78125e-05
2.38675e-05
2.68524e-05
1.87882e-05
1.80464e-05
1.87856e-05
2.59428e-05
2.36474e-05
2.29241e-05
2.55779e-05
1.79669e-05
2.48567e-05
2.39966e-05
2.64838e-05
2.61955e-05
1.30111e-05
2.38883e-05
2.43608e-05
2.46487e-05
2.34772e-05
2.34829e-05
2.04018e-05
2.37998e-05
2.66832e-05
2.09036e-05
1.6771e-05
2.17276e-05
2.58796e-05
2.4863e-05
1.72613e-05
2.24791e-05
2.56188e-05
2.62499e-05
2.34047e-05
2.30056e-05
1.62892e-05
1.82417e-05
1.81677e-05
2.36568e-05
2.27253e-05
2.40723e-05
2.69429e-05
2.57322e-05
2.01732e-05
2.59006e-05
2.59147e-05
2.52023e-05
2.15041e-05
2.59869e-05
2.27815e-05
1.9221e-05
2.14054e-05
2.31171e-05
2.43455e-05
2.14697e-05
2.44303e-05
2.13641e-05
2.57711e-05
1.87858e-05
1.65255e-05
2.25566e-05
2.61416e-05
2.48117e-05
2.11741e-05
2.19585e-05
2.50575e-05
2.59615e-05
2.14555e-05
2.23979e-05
2.56244e-05
2.65349e-05
2.50007e-05
2.65005e-05
2.52374e-05
2.55582e-05
1.6933e-05
2.24844e-05
1.80489e-05
2.45988e-05
2.58109e-05
2.14019e-05
1.78374e-05
2.60972e-05
1.78416e-05
2.07026e-05
1.88583e-05
2.29851e-05
1.74503e-05
2.45934e-05
2.35223e-05
2.31402e-05
2.30901e-05
1.97182e-05
2.61494e-05
1.8497e-05
2.4737e-05
2.33507e-05
2.28217e-05
1.7734e-05
2.53854e-05
2.44992e-05
1.93229e-05
1.99977e-05
2.25716e-05
2.21128e-05
2.26483e-05
1.71921e-05
2.40644e-05
2.1822e-05
2.37777e-05
2.06208e-05
2.12421e-05
2.10132e-05
1.77666e-05
2.50834e-05
2.3316e-05
6.29778e-06
1.89106e-05
2.41424e-05
2.58615e-05
2.5358e-05
1.96483e-05
2.00027e-05
2.61127e-05
1.84088e-05
2.5662e-05
2.64036e-05
2.34538e-05
1.88111e-05
2.61489e-05
1.76961e-05
1.64717e-05
1.62842e-05
2.45631e-05
2.31218e-05
2.08863e-05
2.65057e-05
2.50168e-05
2.3892e-05
1.89924e-05
1.57315e-05
2.67335e-05
2.37603e-05
2.67955e-05
2.61447e-05
1.77651e-05
2.29574e-05
2.18102e-05
2.2822e-05
2.32706e-05
2.14793e-05
2.23715e-05
2.72873e-05
2.36724e-05
2.20087e-05
1.87069e-05
2.40454e-05
2.31239e-05
2.43905e-05
2.18944e-05
1.75422e-05
1.85102e-05
2.40287e-05
2.48394e-05
2.17479e-05
2.51077e-05