/*--------------------------------*- C++ -*----------------------------------*\
| =========                 |                                                 |
| \\      /  F ield         | OpenFOAM: The Open Source CFD Toolbox           |
|  \\    /   O peration     | Version:  2212                                  |
|   \\  /    A nd           | Website:  www.openfoam.com                      |
|    \\/     M anipulation  |                                                 |
\*---------------------------------------------------------------------------*/
FoamFile
{
    version     2.0;
    format      ascii;
    arch        "LSB;label=32;scalar=64";
    class       volScalarField;
    location    "0.068";
    object      p;
}
// * * * * * * * * * * * * * * * * * * * * * * * * * * * * * * * * * * * * * //

dimensions      [0 2 -2 0 0 0 0];

internalField   nonuniform List<scalar> 
31639
(
0.0102889
0.00723168
0.0121044
0.00527315
0.00740637
0.0102287
0.0118466
0.0111206
0.0078565
0.00659975
0.0115919
0.00737337
0.0076414
0.00994341
0.00874593
0.0128026
0.014639
0.014517
0.00235321
0.0108882
0.00809212
0.00626875
0.00846117
0.00519843
0.00899875
0.0106167
0.0103143
0.0331906
0.0111301
0.0110703
0.00582634
0.0149763
0.00787393
0.00417801
0.0186245
0.0110629
0.00618997
0.011198
0.0111853
0.00916897
0.00739663
0.0104797
0.00827733
0.0115542
0.0124746
0.00491939
0.00747514
0.00583162
0.0126018
0.0053249
0.00492923
0.00392583
0.0190854
0.0122642
0.00383787
0.0160682
0.00639468
0.0104075
0.00717336
0.00501351
0.00551969
0.0106464
0.00888152
0.010709
0.0187022
0.00311021
0.00190716
0.00603474
0.00761672
0.00467456
0.00660628
0.0135631
0.00660549
0.00280878
0.0191468
0.0153357
0.00663957
0.0062828
0.0071045
0.00676654
0.0102485
0.00985305
0.00969386
0.00540395
0.00974765
0.00886865
0.00819568
0.00585728
0.00194291
0.00782551
0.00442472
0.014005
0.00513267
0.00694694
0.0032985
0.010535
0.00557855
0.00397038
0.00749698
0.00991233
0.0171844
0.0173388
0.00919326
0.0069239
0.00382715
0.00475476
0.0101303
0.00505389
0.00585386
0.0090724
0.0112839
0.00994689
0.0109593
0.00623838
0.00278523
0.0109215
0.0188593
0.0115889
0.0162543
0.00552679
0.014999
0.00476218
0.00248641
0.00528271
0.0102173
0.00986099
0.00708986
0.0053798
0.00652185
0.00809515
0.0183258
0.000823137
0.0118388
0.00280894
0.00337629
0.0060141
0.00629229
0.00682527
0.00492846
0.00552941
0.00549487
0.00807084
0.00880042
0.00509189
0.00733752
0.00971633
0.0175121
0.00633642
0.00935315
0.0194141
0.00570061
0.0126064
0.00403884
0.00362498
0.00476243
0.00358479
0.0026515
0.00667364
0.0124778
0.00596822
0.00327848
0.0139208
0.00650704
0.0104466
0.0145785
0.0144032
0.0116776
0.0132211
0.00413351
0.00290984
0.0134757
0.0101439
0.0141798
0.00766543
0.00964472
0.00638891
0.00863531
0.0154422
0.00600599
0.00912693
0.00747273
0.0123202
0.0106806
0.0112857
0.0112551
0.0109713
0.0127737
0.0094385
0.0102621
0.012179
0.012319
0.00660571
0.012576
0.00384932
0.00446407
0.00462054
0.0044006
0.00713423
0.00451853
0.0111023
0.00944362
0.0141766
0.0124368
0.0129887
0.00650835
0.00529856
0.0022192
0.00382326
0.0156846
0.00429734
0.00431465
0.00915865
0.0170347
0.00969825
0.0113871
0.00977252
0.009849
0.00956365
0.0159162
0.00718684
0.00743349
0.00929645
0.0100775
0.0188642
0.0121797
0.00666681
0.0129001
0.011769
0.00864376
0.0152645
0.00414149
0.0112942
0.014066
0.0121597
0.0125943
0.0021114
0.00193542
0.0127881
0.0109756
0.0038335
0.00552612
0.0114972
0.013075
0.0125074
0.00558395
0.0139659
0.00433613
0.0142979
0.0122029
0.00217927
0.000617398
0.00488224
0.0124058
0.0142391
0.00697257
0.00744722
0.0107755
0.00319954
0.0104672
0.0118132
0.0050101
0.00402352
0.0069933
0.0102547
0.00703821
0.00971599
0.00159211
0.017804
0.0114447
0.0103118
0.0235984
0.00480287
0.0107236
0.0126968
0.00626374
0.0119774
0.00442927
0.0139705
0.00616841
0.00497218
0.0147582
0.0138283
0.0154639
0.0206838
0.0110555
0.011657
0.0138059
0.0127472
0.0024477
0.0125131
0.0139562
0.0011158
0.00401851
0.00407455
0.0116677
0.00346557
0.0135828
0.00187369
0.0055002
0.00640109
0.00592808
0.0134374
0.00431342
0.00382399
0.00855584
0.00345238
0.0099949
0.00226809
0.00853293
0.013458
0.00571607
0.0230015
0.0178254
0.00804897
0.00736426
0.010523
0.00201341
0.0155407
0.0119815
0.0118269
0.0115122
0.00492696
0.0171205
0.00362985
0.00980602
0.0135684
0.011368
0.0128952
0.00421549
0.00486542
0.00504721
0.0053429
0.0135219
0.00398217
0.0142496
0.018732
0.0195647
0.00614166
0.0127921
0.0146355
0.00343666
0.00163591
0.0138436
0.00300942
0.00440645
0.0132547
0.00371795
0.0117955
0.0116343
0.0173227
0.00663233
0.0134325
0.00656906
0.0125031
0.00383752
0.00502187
0.00426739
0.00859754
0.00904163
0.0128105
0.0143915
0.00889042
0.022929
0.00240901
0.00622812
0.00543731
0.00295821
0.00897192
0.00925469
0.0129439
0.0087161
0.0156727
0.010286
0.0047863
0.00314287
0.00535892
0.0177161
0.0150576
0.0138996
0.0156027
0.0120438
0.00401409
0.00602784
0.00394049
0.00365003
0.00347767
0.00432878
0.00724747
0.000291175
0.0138245
0.00215616
0.0138324
0.00427501
0.0131527
0.00370405
0.0136054
0.0141496
0.01107
0.00525976
0.0214376
0.0140701
0.0118424
0.0107641
0.00367367
0.012646
0.00191225
0.00557724
0.00570981
0.00585969
0.0111092
0.00490209
0.00576468
0.0125087
0.0237524
0.0115103
0.01264
0.0096903
0.0103186
0.00924464
0.00738215
0.00737697
0.0174996
0.00848724
0.000747722
0.0139805
0.0233738
0.008451
0.0170294
0.00986464
0.0118139
0.00528901
0.00428295
0.0133843
0.00500434
0.0112261
0.011121
0.0142113
0.0031935
0.00402723
0.0139246
0.00594247
0.00210074
0.00254732
0.0096464
0.00344126
0.00622197
0.00636205
0.0138102
0.0137902
0.0154636
0.0142886
0.0138939
0.00621189
0.012887
0.00598256
0.0137703
0.0154635
0.00483718
0.0126512
0.00546077
0.010998
0.0145387
0.0103652
0.00270129
0.0123156
0.0350327
0.00265778
0.00798505
0.0055284
0.0119358
0.00157541
0.00412486
0.00500135
0.00422913
0.0132508
0.00105257
0.00851802
0.0163914
0.00745934
0.00863495
0.00497165
0.0184135
0.003204
0.00678641
0.0175366
0.0228737
0.0081825
0.011841
0.00950857
0.00639909
0.00504577
0.00372514
0.0155063
0.00179122
0.0106047
0.0101836
0.00927054
0.00285207
0.00431176
0.0159053
0.0160876
0.00206675
0.00245966
0.00277422
0.00160447
0.0198172
0.00570959
0.00233647
0.0155649
0.0182429
0.0147318
0.00328349
0.0137242
0.0128998
0.0151218
0.00170115
0.018275
0.0183219
-0.000371374
0.0151379
0.014626
0.0142417
0.0101578
0.0161292
0.00066707
0.00266046
0.014401
0.00217804
0.00265921
0.0045962
0.0110448
0.00774378
0.0136354
0.000910658
0.00493245
0.00815042
0.0163791
0.00105861
0.0138215
0.00201419
0.0231777
0.0233968
0.00542528
0.033476
0.00559675
0.00573865
0.00903011
0.00935266
0.00650824
0.008831
0.0240489
0.00664059
0.0137339
0.000514818
0.00598193
0.00903198
0.00520892
0.0146509
0.00115442
0.00349581
0.00916927
0.0031449
0.00825686
0.00840665
0.00450523
0.0180636
0.00323199
0.00225373
0.000292019
0.0103111
0.016728
0.00257829
0.000496894
0.00320347
0.00352253
0.00275293
0.0149743
-7.88972e-05
0.00101797
0.000686605
0.0137257
0.00174758
0.0144475
0.0151035
0.0155472
0.00473059
2.1533e-05
0.000133231
0.00239351
0.000665339
0.0100513
0.000831764
0.0100528
0.0151409
0.00130108
0.00577677
0.00778958
0.0189495
0.0169519
0.0132406
0.00645079
0.0030642
0.0171382
0.0144929
0.00143292
0.00157423
0.00655241
0.0116637
0.00465748
0.000926049
5.25983e-05
0.000758889
0.0156516
0.0122963
0.00561743
0.0344401
0.01278
0.00949181
0.00649032
0.0101934
0.0138093
0.01374
0.0090544
0.00577719
0.00747386
0.00774235
0.0130393
0.00284723
0.00877876
0.00104746
0.00956741
0.0227177
0.0154058
0.0143693
0.0107272
0.00869877
0.020435
0.00970858
0.0113369
0.00519905
0.0176035
0.0164443
0.00246701
0.00963488
0.0106149
0.000169809
0.0208626
0.00572964
0.000958806
0.00284484
0.00161722
0.0190645
0.0175553
0.0178244
0.00264387
7.62362e-05
0.0142415
0.00984451
0.0152964
0.0149626
0.0154901
0.00103684
-6.14369e-05
0.0144116
0.0130632
0.0135276
0.0154898
0.000888405
0.00582345
0.0235829
0.00328698
0.00189086
0.0171062
0.0092864
0.00386744
0.015808
0.0155439
0.0119448
0.00685984
0.00461055
0.0108238
0.00630849
0.000272654
0.000586609
0.00120019
0.00459306
0.00172271
0.0184151
0.00651996
0.000492834
0.000583673
0.0139912
0.00509991
0.000599589
0.0347197
0.00462453
0.00565783
0.00763538
0.00837148
0.00733036
0.0094335
0.00854547
0.0059163
0.00685213
0.00953363
0.00631009
0.00571089
0.0064542
0.00884938
0.0170302
0.00939733
0.0088957
0.0149099
0.0184011
0.0157581
0.00448344
0.00878242
0.00244766
0.00969728
0.0197229
0.000727203
0.0018
0.00166758
0.00492525
0.00572578
0.0149914
0.0134559
0.00402032
0.00163539
0.0111072
0.0190218
0.000430614
0.0152053
0.00603139
0.0139352
0.0127176
0.0134928
0.0171196
0.0180981
0.0210234
0.0143734
0.0124269
0.014558
0.0146147
0.0138266
0.00519215
0.0186899
0.00523202
0.0013276
0.00337618
0.0139916
3.60349e-05
0.0116155
0.00275206
0.00382093
0.0116819
0.00697985
0.016763
0.00323563
0.0129755
0.00396364
0.0202085
0.00597458
0.000427179
0.000816484
0.017829
0.011536
0.000745605
0.00178754
0.000998605
0.003456
0.000478103
0.000220105
0.0133775
0.0133361
0.000113921
0.014459
0.0126228
0.0159996
0.00812802
0.0080264
0.00646418
0.010059
0.0105681
0.00491129
0.00080358
0.00942148
0.0126149
0.00956
0.017215
0.0154552
0.00928082
0.0150409
0.00586036
0.0236259
0.00272914
0.0152656
0.00946236
4.1394e-05
0.0103654
0.00272611
0.00559781
0.00227802
0.00230397
0.0116873
0.0163098
0.00403412
0.0161433
0.00072134
0.000663363
0.000769926
0.01925
0.019624
0.0186784
0.0203303
0.0158404
0.0147091
0.00520726
0.00329729
0.00558905
0.0014951
0.0108017
0.00484835
0.01265
0.00723387
0.00579141
0.00173251
-0.000131261
0.00411362
0.00219149
0.0176936
0.00745292
0.00402136
0.00387486
0.00740779
0.000676509
0.0121209
0.0039276
0.0149506
0.00289299
0.00198818
0.0103027
0.00990206
0.0153456
0.0182757
0.0168632
0.0127983
0.00706398
0.00762598
0.0144499
7.6839e-05
0.000828172
0.0158753
0.0164038
-0.000137455
0.000286458
0.00207904
0.0153818
0.0038687
0.00891398
0.0184718
0.0181099
0.00929861
0.0217079
0.00720948
0.00617143
0.00637907
0.00412272
0.00254517
0.0152969
0.00264023
0.00957038
0.0111805
0.0254387
0.00539455
0.00646195
0.00610762
0.0137773
0.0139463
0.0147213
0.0199715
0.00184804
0.0156798
0.0156915
0.0161967
0.00879194
0.000310057
0.0193678
0.020164
0.0186975
0.0106705
0.0113556
0.0122623
0.0121541
0.0137792
0.0106105
0.000434287
0.0139501
0.00672121
0.00472157
0.0161502
0.00110531
0.000641209
0.00256804
0.00244618
0.0175462
0.00725066
0.00256967
0.00358999
0.00642403
0.0135787
0.00627497
0.00561554
0.0117402
0.00846073
0.000219465
0.0157982
0.00955529
0.0159913
0.00799074
0.00166382
0.0128846
0.0128095
0.000614911
0.00708265
0.00674347
0.000455677
0.00057205
0.0164944
0.0171228
0.00694491
0.00917612
0.0010435
0.0152969
0.0202189
0.0174506
0.011529
0.00552454
0.0156992
0.0120261
0.00639038
0.00897504
0.00494344
0.00504602
0.00797851
0.0147388
0.00271954
0.00969416
0.00625825
0.0056635
0.000169194
0.0160326
0.00645689
0.0168184
0.00470774
0.0145593
0.0159475
0.00824219
0.00828343
0.0166387
0.0136625
0.0161657
0.00596863
0.00705832
0.0134772
0.0128536
0.0102353
0.0108923
0.0156228
0.0159596
0.0212275
0.0124768
0.0152405
0.000863457
0.000542854
0.0148807
0.0137384
0.00699018
0.0166948
0.00223165
0.0109649
0.0122585
0.0171658
0.00189044
0.0165568
0.0152292
0.0170732
0.0171974
0.0169781
0.00827469
0.015509
0.00669214
0.0113365
0.0109183
0.0103722
0.0176299
0.0180936
0.0172478
0.0144358
0.00750964
0.00982358
0.0108363
0.0154673
0.0103897
1.82416e-05
0.0167644
0.018424
0.00871804
0.0075683
0.00315869
0.00220168
0.00617016
0.0170747
0.00523614
0.00547606
0.0199209
0.00842265
0.00307845
0.00415819
0.000327387
0.00779375
0.00881524
0.00801832
0.0150067
0.000514158
0.0171769
0.00160957
0.0169347
0.0161402
0.0197601
0.00792105
0.008156
0.0069243
0.013044
0.0112787
0.0130094
0.0203385
0.0153746
0.0153342
0.0108095
0.0125738
0.00769074
0.0132302
0.0115181
0.00252521
0.00230655
0.00951924
0.000700876
0.00660216
0.0181017
0.0193853
0.00333863
0.0173703
0.0113274
0.017309
0.00983456
0.0100132
0.00133415
0.00073876
0.0132332
0.0122165
0.00567044
0.00767272
0.00723708
0.0109128
0.00771134
0.0157219
0.0166452
0.0200292
0.0165436
0.0177417
0.0105263
0.00733217
0.0084121
0.000751739
0.00147424
0.00275131
0.00754708
0.00667141
0.0121899
0.00707121
0.0123009
0.0145534
0.0164512
0.00715324
0.00452806
0.0204884
0.0109261
0.0183406
0.018065
0.00812353
0.018655
0.00192445
0.0156998
0.00468412
0.00888415
0.0035949
0.00705147
0.00793557
0.0174628
0.0182377
0.000585486
0.0146881
0.0192072
0.022021
0.00735923
0.0136528
0.0155674
0.0166126
0.00655583
0.00707712
0.0154338
0.0222242
0.0152575
0.00270315
0.0135161
0.0217501
0.0126034
0.0122933
0.0120281
0.00617278
0.0194702
0.0157279
0.0188848
0.00157369
0.0133246
0.00102859
0.0108425
0.0156493
0.00330634
0.0154315
0.00487128
0.0157894
0.0201478
0.00869909
0.000410763
0.00988141
0.0108997
0.000604688
0.00651288
0.00658684
0.0103538
0.00761193
0.0208748
0.0178039
0.00686422
0.00676008
0.0162855
0.00948047
0.01551
0.0202817
0.0157447
0.00051337
0.000526327
0.0159109
0.0157121
0.0106332
0.0117615
0.0134481
0.0108557
0.0117333
0.0182437
0.0163099
0.0192229
0.0152013
0.0126672
0.00181933
0.0188608
0.00252228
0.00724606
0.0171761
0.0184574
0.0150118
0.0080931
0.0072398
0.00037604
0.0154852
0.0100973
0.0206949
0.00953861
0.0181895
0.0192122
0.0122645
0.0130585
0.00802837
0.00387976
0.0211093
0.0103362
0.0128928
0.0100988
0.00934997
0.0134332
0.0213163
0.0123749
0.0115704
0.0229672
0.00198936
0.0185823
0.0111156
0.022214
0.0115287
0.00950405
0.0191488
0.0193503
0.0032734
0.00683724
0.00380192
0.00471474
0.0167553
0.0086448
0.00917366
0.000354111
0.00746954
0.0267251
0.00751145
0.00803953
0.0112663
0.0112271
0.0106237
0.0172903
0.0177974
0.0129601
0.00684266
0.0168646
0.0097804
0.018227
0.0163878
0.0165385
0.0169563
0.0172677
0.0158301
0.00642901
0.000457157
0.0185165
0.00583106
0.0195421
0.022134
0.0204896
0.00772462
0.0184826
0.0126058
0.00202678
0.00166472
0.00280897
0.0165986
0.0172766
0.0171136
0.0158718
0.0199371
0.00816335
0.00668552
0.0179373
0.0195838
0.00933552
0.0170963
0.018506
0.0124236
0.00736627
0.0211565
0.0186205
0.0169136
0.0132312
0.0177925
0.0138099
0.0182447
0.0014955
0.0139681
0.0163063
0.0185739
0.0132495
0.017708
0.00912964
0.0223217
0.0138736
0.00181538
0.0174015
0.00405651
9.4999e-05
0.00383907
0.013573
0.0117851
0.0136466
0.0169877
0.0191411
0.00691871
0.014551
0.00850586
0.0116718
0.0111123
0.0105602
0.00665987
0.0166148
0.0116275
0.0121198
0.0175209
0.0125622
0.00614954
0.00590061
0.0121746
0.0132693
0.0118829
0.0155609
0.0172411
0.000933393
0.0119763
0.0179032
0.0158442
0.012181
0.0124248
0.0102012
0.0127863
0.0215072
0.00107169
0.00606807
0.0178568
0.0028362
0.00816551
0.00886163
0.00841295
0.0198666
0.0211699
0.00271923
0.0218197
0.0191974
0.0145942
0.0144047
0.0195236
0.0150026
0.0179662
0.0170692
0.00344594
0.00777943
0.0205753
0.000370751
0.000627756
0.01993
0.0183008
0.00334689
0.0195308
0.0144522
0.0125728
0.00844139
0.0180739
0.017671
0.00673546
0.0177003
0.0158723
0.0145729
0.0128881
0.000727594
0.00129748
0.000970619
0.0145091
0.0165282
0.0111098
0.0187402
0.02106
0.0107395
0.00951886
0.00656931
0.00384276
0.0228759
8.20781e-05
0.00261783
0.00841125
0.000968599
0.000205774
0.000366463
0.00886499
0.00658749
0.000777945
0.0285285
0.018025
0.0134913
0.0209466
0.0121585
0.0229074
0.00371797
0.00726726
0.00759782
0.0217603
0.0218562
0.0118584
0.00634468
0.0128556
0.0114912
0.0144146
0.0140394
0.0146039
0.0172464
0.00121663
0.0182346
0.0172188
0.0173912
0.0174044
0.0151003
0.0149213
0.0114246
0.0105227
0.018408
0.016628
0.00531876
0.00418412
0.0111746
0.016317
0.0209041
0.00521082
0.00608144
0.00623553
0.0162005
0.0197558
0.020861
0.0205836
0.00165818
0.00097389
0.0199979
0.000633288
0.0191399
0.020216
0.00409596
0.0057018
0.00259488
0.0185777
0.00728307
0.0164065
0.012933
0.0129305
0.0201564
0.0204272
0.00931397
0.0229203
0.0223721
0.0158282
0.014443
1.64084e-05
0.000532039
0.015633
0.0141049
0.0162041
0.0220919
0.0342144
0.0224863
0.0177067
0.0224998
0.0184122
0.0021852
0.0163336
0.0188675
0.00255008
0.0179636
0.00435452
0.000440299
0.01716
0.000578889
0.00819562
0.00889292
0.00881937
0.00822123
0.000370419
0.00172349
0.00563585
0.0213527
0.019814
0.0144699
0.00863086
0.0109159
0.00702028
0.00864968
0.006564
0.00854678
0.00842686
0.00753128
0.0152788
0.013675
0.0172657
0.0134933
0.0171448
0.00122244
0.0172312
0.000856343
0.0227774
0.0183225
0.012246
0.0150391
0.00719646
0.0095139
0.00326564
0.00236457
0.00586476
0.00385392
0.0107958
0.0176077
0.00828176
0.01382
0.0124148
0.0049395
0.0125054
0.0217446
0.00128035
0.00276762
0.00115841
0.0141143
0.0199014
0.0165777
0.00528416
0.00415007
0.0200037
0.00253563
0.0197735
0.0184759
0.0347413
0.020198
0.0200739
0.0223987
0.0215303
0.020134
0.015754
0.00406481
0.0163295
0.00389831
0.0166992
0.0170111
-3.32505e-05
0.0216045
0.00998486
0.00198556
0.0155889
0.0195317
0.0161908
0.0187193
0.0162745
0.00849685
0.0104392
0.0157981
0.0177687
0.0194211
0.020888
0.000610857
0.00274801
0.013802
0.0181805
0.0161227
0.014722
0.015617
0.00116991
0.0147394
0.00811234
0.00832001
0.00816764
0.00724591
0.00937749
0.0113322
0.000470267
0.0179781
0.0186729
0.016441
0.00105736
0.0193497
0.0118862
0.0125496
0.0138847
0.014492
0.0164367
0.0129257
0.0290584
0.00332873
0.0122961
0.0182218
0.0145351
0.014501
0.00272713
0.0130856
0.0198553
0.0221728
0.016792
0.00775512
0.0192038
0.00704173
0.0134295
0.0206902
0.0217484
0.0130336
0.02237
0.0217932
0.0219822
0.0201813
0.0137577
0.0211494
0.0197187
0.0178154
0.00782965
0.0157085
0.00626057
0.0017322
0.0160658
0.00513172
0.0208704
0.0212063
0.0207204
0.0192457
0.0121894
0.0196626
0.0215924
0.00687641
0.00476759
0.00957623
0.0230701
0.015722
0.0151983
0.00387588
0.00336909
0.0181148
0.00115602
0.0110981
0.0226277
0.0194002
0.0163976
0.0170425
0.01055
0.00938232
0.00236244
0.0176562
0.000249651
0.00657725
0.0196299
0.000806288
0.00245588
0.00387018
0.00502846
0.00293434
0.01384
0.0157096
0.0188786
0.0120096
0.00739376
0.0264584
0.00735585
0.00848069
0.00908911
0.0190719
0.0171293
0.0218876
0.0199176
0.0061504
0.0112621
0.0105277
0.0109387
0.0124665
0.0153102
0.0149414
0.0181257
0.0164749
0.0159188
0.0119127
0.00860193
0.0087302
0.00209173
0.0167237
0.0192429
0.00711153
0.00288101
0.0293087
0.0112181
0.0196787
0.0142383
0.020179
0.024239
0.0162182
0.00717099
0.00608405
0.0132197
0.0212514
0.0202714
0.00542853
0.0227235
0.000176781
-0.000245786
0.0194974
0.0219379
0.0111867
0.00909753
0.018618
0.00473363
0.0204162
0.0222199
0.00904922
0.0178824
0.0192646
0.0281761
0.0051513
0.0211335
0.0124907
0.01307
0.0178074
0.0217241
0.00237949
0.0160534
0.0227415
0.0221666
0.0238319
0.00508667
0.018538
0.0180933
0.00264427
0.0147696
0.0212407
0.0152319
0.00212162
0.00665864
0.014015
0.00463337
0.0155216
0.00663839
0.000534862
0.000712066
0.00954418
0.00270694
0.020192
0.0123978
0.00519656
0.0090599
0.0208037
0.0209021
0.0186206
0.0199201
0.0207313
0.0124118
0.00215614
0.00449317
0.0104004
0.0176631
0.0177503
0.0189485
0.0190516
0.0128772
0.012689
0.0112121
0.0156688
0.0139851
0.013975
0.0148419
0.0223356
0.0160672
0.0178031
0.0155739
0.0171624
0.016993
0.00851273
0.0167665
0.0130796
0.00786402
0.0117437
0.0259246
0.0131086
0.0289078
0.0173813
0.00496869
0.0077641
0.0149853
0.0244926
0.0138362
0.0130036
0.00592104
0.0174411
0.000516297
0.00147198
0.000279205
0.0211216
0.0207808
0.0213891
0.0112808
0.0231569
0.00414248
0.0218905
0.0221788
0.0213923
0.00223523
0.024386
0.0219163
0.0016522
0.0229155
0.0130695
0.0137569
0.0128341
0.0182229
0.0199292
0.0159125
0.0167261
0.017802
0.0110642
0.0109618
0.00271835
0.022314
0.018391
0.0203544
0.0153743
0.0194067
0.0216929
0.00813738
0.0207555
0.00214035
0.0156808
0.00760892
0.000816836
0.000127055
0.00950009
0.0195081
0.00746161
0.0178455
0.0181705
0.0061903
0.0191926
0.0072726
0.0232016
0.0183269
0.0226367
0.017057
0.00933241
0.0181503
0.0195554
0.0211647
0.0048015
0.0192547
0.0185161
0.0199069
0.0206482
0.0151951
0.0196975
0.015899
0.0021639
0.0189779
0.00479864
0.0144814
0.0152648
0.0104033
0.0167542
0.0247249
0.012788
0.0117613
0.0122014
0.00844465
0.0162734
0.00598121
0.0106285
0.0194165
0.00936465
0.0186259
0.00558856
0.0193565
0.0167895
0.00514102
0.0139019
0.0200432
0.00547256
0.0163792
0.0107693
0.00144731
6.09598e-05
0.00145166
0.0204677
0.0134713
0.0154617
0.0119559
0.0117019
0.0205273
0.0222342
0.0215436
0.0163923
0.0211765
0.0176864
0.0224917
0.011947
0.0228713
0.0226545
0.0229617
0.0223405
0.0212801
0.00263068
0.0179102
0.0217629
0.0163464
0.0149661
0.0239448
0.021635
0.010954
0.0224882
0.00224303
0.0206778
0.021569
0.014808
0.0142794
0.0190674
0.0200337
0.0190465
0.000946428
0.0222476
0.0168986
0.00650942
0.000301117
0.0220963
0.00687267
0.00285614
0.00184918
0.000235265
0.0162257
0.00504985
0.0266871
0.00812328
0.0195556
0.0103754
0.00778945
0.0112446
0.0186269
0.00800771
0.0222797
0.0184233
0.0112625
0.021034
0.0192062
0.0161659
0.0247896
0.0170145
0.0216421
0.0139205
0.0228915
0.0139812
0.0138326
0.00293577
0.0176519
0.0165928
0.0172728
0.020243
0.0149824
0.0229481
0.0172295
0.017182
0.00237128
0.0051337
0.0230289
0.0124457
0.00451197
0.0124928
0.0306047
0.00753378
0.0239174
0.0056108
0.00111444
0.00940051
0.00976654
0.00860694
0.0163131
0.00492365
0.0147676
0.0184989
0.0132878
0.00444318
0.00480486
0.0219963
0.00135363
0.01655
0.0151118
0.0101454
0.020204
0.0240958
0.010705
0.020154
0.0190606
0.0167532
0.000332496
0.016404
0.0184918
0.0215467
0.0223073
0.0248298
0.0230771
0.00291851
0.00192249
0.0233683
0.00276449
0.0208492
0.0223399
0.0211219
0.0045341
0.0255271
0.00988976
0.0189452
0.0222889
0.0204851
0.0210534
0.0203384
0.0189484
0.0181279
0.0104699
0.0188838
0.0144508
0.0016709
0.00970371
0.0211392
0.0189584
0.0244594
0.0258019
0.00130648
0.0135854
0.00219127
0.00424678
0.0219217
0.00417369
0.0036056
0.0230032
0.00528835
0.00899346
0.0134443
0.0223
0.000231024
0.0218445
0.018929
0.0102734
0.0213636
0.0226854
0.0118895
0.0216247
0.0180157
0.0227192
0.0215706
0.0212727
0.0157963
0.0236356
0.0168989
0.00477006
0.00507771
0.0230707
0.0174629
0.0207761
0.0254979
0.0195462
0.0205149
0.0251209
0.00501688
0.0226902
0.0221837
0.0228593
0.0128626
0.0333701
0.00392468
0.00657303
0.010274
0.00946715
0.024789
0.00751887
0.0182111
0.0145193
0.0152469
0.0141723
0.00519152
0.00930248
0.00610699
0.0217044
0.000990885
0.0232183
0.0233851
0.023743
0.0114416
0.0196429
0.0294272
0.0183933
0.00163397
0.0210966
0.00713088
0.00884365
0.0241376
0.0114267
0.0238751
0.0242522
0.0163696
0.00257965
0.0218543
0.0206077
0.0213868
0.0159467
0.0211373
0.0215094
0.0208318
0.0183116
0.0189536
0.0195039
0.0195738
0.0158553
0.0147545
0.00149121
0.0219052
0.0133857
0.0144691
0.0157737
0.00799683
0.00669782
0.0266171
0.0210108
0.0189626
0.0240826
0.0248993
0.00941944
0.00382534
0.00650594
0.0262643
0.0135277
0.00691827
0.0222205
0.00587832
0.0198937
0.0113178
0.00489961
0.00469144
0.0186979
0.0110227
0.0200537
0.000836886
0.0184095
0.00182563
0.0194709
0.0109926
0.0160955
0.0165129
0.0158973
0.0205106
0.019473
0.0222568
0.00684971
0.0300475
0.0289769
0.0256155
0.0179093
0.0176736
0.0137942
0.0187089
0.020819
0.0214208
0.0245483
5.73317e-05
0.00971901
0.0107572
0.0327204
0.0218792
0.00277221
0.0229481
0.00279872
0.0131505
0.015104
0.00904558
0.00658814
0.0257018
0.0208081
0.00716284
0.0141484
0.0263892
0.00904921
0.00560355
0.000459028
0.0129718
0.00193778
0.0237017
0.00573754
0.0252278
0.0299828
0.00773277
0.0209597
0.000279064
0.000306315
0.00734654
0.0243047
0.024336
0.0230667
0.0208701
0.00153469
0.0159513
0.0343476
0.0152601
0.0208454
0.0196407
0.0205954
0.0204465
0.0165124
0.0223622
0.0203552
0.00703901
0.00170865
0.00194332
0.00195752
0.0193038
0.0217128
0.012095
0.0216681
0.00505943
0.00524764
0.00595453
0.0185799
0.024903
0.0245278
0.0257829
0.0147376
0.00728021
0.022883
0.00693658
0.0183543
0.019805
0.0204827
0.0116836
0.0225235
0.0103872
0.0192321
0.0198968
0.019084
0.00995405
0.0140254
0.0349037
0.00869739
0.00222474
0.0181699
0.015414
0.0193682
0.012359
0.014406
0.015776
0.0168365
0.0137717
0.0198869
0.0287756
0.0150048
0.0221584
0.0103959
0.0186644
0.0142218
0.0180012
0.019468
0.018407
0.0242961
0.00344666
0.0238455
0.0161803
0.000746159
0.0105592
0.0250608
0.0226836
0.0135504
0.00322572
0.0203043
0.00746318
0.0257627
0.00740151
0.0210548
0.0199447
0.0233238
0.0180833
0.0214141
0.0150332
0.00250572
0.0193753
0.00219669
0.0235735
0.000232301
0.000830792
0.00495582
0.00177582
0.0164799
0.000829784
0.0260453
0.0262297
0.0220888
0.02293
0.0246444
0.0246859
0.0237958
0.0241031
0.00677872
0.026329
0.0240291
0.00528195
0.0227808
0.0279004
0.0155889
8.25553e-05
0.0220431
0.0235531
0.0206874
0.0192002
0.0213399
0.0253811
0.00243802
0.022413
0.00110978
0.000582444
2.3804e-05
0.019477
0.0138665
0.00607546
0.0114259
0.0219989
0.0328594
0.0156996
0.0205947
0.0210435
0.0252103
0.00211359
0.0347585
0.0235183
0.00683115
0.0169299
0.0080426
0.0178942
0.0212912
0.00825499
0.0231698
0.0181264
0.00981709
0.0154542
0.00948372
0.0192835
0.0153649
0.0243405
0.0250413
0.00707119
0.0130799
0.016068
0.0156616
0.0208467
0.02928
0.0107299
0.0204382
0.0161694
0.0105789
0.013708
0.0264086
0.0150639
0.0138991
-0.000175505
0.0281747
0.0274612
0.000903947
0.0227839
0.00173113
0.0172826
0.0259138
0.00388548
0.0240345
0.0239292
0.0255366
0.0245096
0.0197505
0.0203018
0.0219667
0.006078
0.0212922
0.00760925
0.00200215
0.0113465
0.0030666
0.0202039
0.0222172
0.009415
0.00937453
0.0114404
0.0256638
0.00290757
0.0220051
0.0131669
0.0253859
0.0180308
0.0247227
0.0241096
0.0267373
0.0237383
0.00111549
0.0158444
0.0236087
0.016614
0.0218285
0.0210906
0.00438694
0.024952
0.0190109
0.0260833
1.12501e-05
0.0236798
0.00611076
0.0129691
0.0017112
0.020567
0.0196551
0.0307913
0.0188297
0.0063314
0.023283
0.0221026
0.000686212
0.000482362
0.0303023
0.0210471
0.00729768
0.0338448
0.00837267
0.0131598
0.0227211
0.000291109
0.00263292
0.0348072
0.00667496
0.0100705
0.00993719
0.0163357
0.0224054
0.0128716
0.00939011
0.0229591
0.0255083
0.0236161
0.0220712
0.0130934
0.022235
0.0159902
0.00984733
0.0198386
0.0195076
0.0159948
0.0180398
0.0129413
0.0121595
0.0223645
0.0228593
0.0232289
0.0197241
0.0276171
0.0189229
0.0194606
0.0185783
0.0194219
0.02346
0.0169181
0.00376161
0.0252759
0.0243863
0.0228876
0.00389514
0.0216683
0.0190752
0.0211563
0.0193645
0.0258516
0.0229629
0.00300047
0.00922536
0.025615
0.0257899
0.0278763
0.00255361
0.0125577
0.00888479
0.0238252
0.0233692
0.0247969
0.0277512
0.028014
0.0239804
0.0276135
0.0236275
0.0232043
0.0150289
0.024959
0.0212794
0.0274101
0.033259
0.0208421
0.0195006
0.0344507
0.0171857
0.0122967
0.0254874
0.0144386
0.0274778
0.000768588
0.0213111
0.0133366
0.0316272
0.020864
0.0197166
0.026267
0.0126933
0.000825548
0.0116344
0.0319267
0.000172519
-0.000172632
0.0213415
0.00818476
0.00898863
0.00884577
0.00634869
0.00538841
0.00602328
0.00483183
0.00949167
0.0243077
0.0272712
0.00277724
0.0245451
0.021754
0.00214188
0.0209829
0.02521
0.0255665
0.0147602
0.0181062
0.0138178
0.025092
0.0143098
0.0215946
0.0196737
0.0146089
0.0203604
0.0244434
0.0141684
0.0138622
0.0200772
0.0197363
0.0168348
0.0267333
0.0031325
0.0281234
0.0172827
0.0147309
0.0161807
0.0252413
0.0111762
0.00859379
0.0255108
0.0227281
0.0233609
0.0246378
0.0316731
0.0285037
0.0254201
0.0232711
0.025087
0.0265688
0.0257818
0.015972
0.0270446
0.025717
0.00747497
0.022976
0.0172602
0.0270206
0.0225863
0.0266122
0.0133991
0.0240402
0.0171098
0.0198558
0.0249351
0.0269059
0.00730827
0.021887
0.0175809
0.0169207
0.0179681
0.0274853
0.0226932
0.0236554
0.000444852
0.0201955
1.95918e-05
0.0235285
0.00194431
0.0325024
0.00815869
0.0168215
0.00663596
0.00638467
0.00578274
0.0217782
0.023821
0.0163061
0.016797
0.021724
0.0149832
0.0247065
0.0254557
0.0186801
0.0279352
0.024096
0.0280825
0.0242131
0.022659
0.026223
0.0150966
0.0194044
0.0200451
0.0159017
0.00353066
0.0263829
0.0257837
0.0307332
0.00807482
0.0241352
0.0216465
0.00868671
0.0198729
0.0242259
0.0211886
0.0273861
0.0258758
0.0246996
0.0271419
0.0202449
0.0259409
0.0269579
0.0261874
0.0255315
0.0214297
0.0239053
0.0189688
0.0276788
0.0234017
0.0347716
0.0341103
0.0223979
0.0274929
0.022166
0.0218368
0.021248
0.0181594
0.025503
0.0225219
0.0243888
0.0252404
0.0278275
0.0243983
0.0208926
0.0232649
0.0234177
0.0271314
0.0226735
0.024051
0.0254017
0.0265554
0.00187858
0.0245083
0.00261127
0.00299338
0.00332573
0.00169371
0.0242656
0.00519359
0.00061313
0.0177863
0.0237799
0.0328105
0.033446
0.0275924
0.0223387
0.0270659
0.0148731
0.030626
0.019785
0.0217538
0.0232855
0.0252231
0.0167914
0.0250759
0.0262516
0.0191947
0.0206024
0.0259441
0.0206949
0.0299663
0.0260544
0.0290145
0.00907261
0.00167905
0.0241251
0.0241857
0.0237924
0.0291729
0.0247308
0.0297331
0.0249674
0.0268197
0.0156861
0.0278184
0.0200597
0.0267569
0.0212934
0.0270523
0.0279341
0.0169783
0.0247677
0.0183047
0.0256393
0.0183967
0.0259623
0.0224517
0.0218091
0.0257795
0.025085
0.0223427
0.0250265
0.017156
0.0297592
0.0234469
0.0245835
0.0254119
0.0265281
0.00722856
0.0181318
0.0270273
0.0026781
0.00350251
0.0273622
0.0242968
0.000412772
0.0328822
0.0219892
0.0302825
0.0239292
0.0209219
0.0209533
0.0285723
0.0240693
0.0206205
0.0219045
0.0234875
0.0237493
0.0235516
0.0307265
0.0263306
0.0264283
0.0179886
0.0180385
0.0277502
0.0226472
0.0262345
0.0261816
0.0296846
0.0328888
0.0311994
0.021046
0.027898
0.02215
0.0257369
0.0253971
0.0215387
0.0099093
0.0272926
0.0331598
0.0268058
0.0208767
0.0238286
0.020659
0.0341944
0.0191988
0.0246199
0.0207001
0.0218353
0.0260507
0.0273233
0.0218328
0.0261827
0.0256643
0.0232418
0.0265396
0.0259172
0.0257497
0.0230477
0.027914
0.0279124
0.0275195
0.0236688
0.0270726
0.0272532
0.0269717
0.00875723
0.0274917
0.0195725
0.0202774
0.0249397
0.0296972
0.0197826
0.0241638
0.0278144
0.0236581
0.0242459
0.0209342
0.0312119
0.0234302
0.0272554
0.0197843
0.0199744
0.0240283
0.0275779
0.0198608
0.0236438
0.0233931
0.0271202
0.0275512
0.0237079
0.0239157
0.0295744
0.029459
0.0243214
0.029116
0.0285786
0.0256221
0.0294203
0.0121206
0.0292998
0.0275738
0.0271837
0.0274208
0.0260992
0.0273445
0.0302924
0.0247522
0.0272304