/*--------------------------------*- C++ -*----------------------------------*\
| =========                 |                                                 |
| \\      /  F ield         | OpenFOAM: The Open Source CFD Toolbox           |
|  \\    /   O peration     | Version:  2212                                  |
|   \\  /    A nd           | Website:  www.openfoam.com                      |
|    \\/     M anipulation  |                                                 |
\*---------------------------------------------------------------------------*/
FoamFile
{
    version     2.0;
    format      ascii;
    arch        "LSB;label=32;scalar=64";
    class       surfaceScalarField;
    location    "0.068";
    object      phi;
}
// * * * * * * * * * * * * * * * * * * * * * * * * * * * * * * * * * * * * * //

dimensions      [0 3 -1 0 0 0 0];

oriented        oriented;

internalField   nonuniform List<scalar> 
68568
(
-1.5493e-07
1.59706e-07
-3.00857e-08
2.5309e-08
1.48895e-07
-7.61171e-08
-7.88247e-08
6.04714e-09
1.80559e-07
-1.39111e-07
-6.03439e-08
1.88957e-08
-4.69438e-09
2.27202e-09
-1.737e-07
1.76122e-07
-1.29998e-09
1.45541e-07
1.06631e-09
-1.45308e-07
1.42584e-07
-4.11597e-10
-1.31479e-07
-1.06928e-08
8.58213e-08
-9.06236e-08
1.33479e-07
-1.28677e-07
-4.05351e-08
-2.7914e-08
1.5427e-07
1.34853e-07
-1.61595e-08
-1.13659e-07
-5.03523e-09
1.52875e-07
5.508e-08
-5.9061e-08
1.037e-07
1.41061e-07
-6.42009e-08
-6.56888e-08
-2.07746e-07
1.97318e-07
-1.43429e-07
7.04096e-08
-5.80488e-09
1.88081e-07
-1.93563e-07
1.38148e-08
-8.33324e-09
-7.19313e-08
-5.27244e-08
1.23597e-07
1.05844e-09
1.32001e-07
9.01891e-08
-1.34048e-07
-8.81417e-08
-5.21936e-08
-8.21112e-08
1.1835e-07
1.59553e-08
1.1485e-07
-1.20185e-07
-4.6859e-08
1.14941e-07
-4.36247e-09
-7.15156e-10
-1.09863e-07
8.77505e-08
-1.59275e-07
7.9774e-08
-8.24905e-09
1.15461e-07
-4.72477e-10
-1.14983e-07
-5.19846e-12
-1.84987e-08
9.34801e-09
1.45285e-07
-1.36134e-07
-4.72609e-08
1.95831e-07
-2.81155e-08
-1.20455e-07
-8.53971e-10
-5.76165e-10
-1.40248e-07
1.41678e-07
-7.66187e-08
-5.02914e-08
1.19721e-07
7.1893e-09
-1.00215e-07
-4.12781e-08
-1.34369e-08
-6.7054e-08
1.46099e-07
8.70528e-09
8.01201e-08
4.67486e-08
-3.25329e-08
-9.43357e-08
-7.07477e-08
-1.02194e-07
1.32407e-07
5.07091e-08
-1.24797e-07
3.34055e-09
1.59128e-07
-8.44658e-08
-1.49853e-07
7.519e-08
-1.34545e-08
2.86788e-09
1.2027e-07
-1.09684e-07
1.62563e-07
-3.4059e-08
-1.1585e-08
-1.16918e-07
1.23076e-07
-9.42204e-08
-6.08815e-08
3.2026e-08
-1.31621e-09
1.12801e-07
-1.11915e-07
4.30835e-10
1.26495e-07
8.74704e-08
-8.7566e-08
5.81096e-10
-4.85452e-10
4.48027e-08
-1.65888e-07
9.65661e-08
2.45197e-08
-1.67522e-07
1.45586e-07
6.67383e-08
-7.61174e-08
-1.68114e-10
-3.33172e-10
-8.56183e-10
1.17423e-07
-1.10575e-09
1.16644e-07
-1.16094e-07
-7.05921e-10
1.56546e-10
-2.73007e-08
-1.6339e-07
1.24434e-07
2.01848e-07
-1.53424e-07
-1.72858e-07
-6.43245e-08
-1.08173e-07
3.04499e-07
-1.52066e-07
1.69623e-07
-1.42394e-07
1.24836e-07
-1.2817e-07
6.78588e-08
-5.37785e-09
1.19653e-07
-1.16824e-07
-3.76347e-09
9.34393e-10
1.01687e-07
2.6241e-08
1.21887e-08
-1.40116e-07
2.36806e-09
-1.57762e-07
1.5299e-07
3.5227e-08
-3.04551e-08
-8.96524e-09
-9.63997e-08
1.05041e-07
3.24198e-10
-1.01798e-07
1.42572e-07
1.74024e-07
-2.11948e-07
-3.05646e-10
-1.28787e-10
2.17617e-09
-1.72465e-09
1.13173e-07
-1.13625e-07
4.09086e-08
-1.18277e-07
-4.74236e-09
9.49005e-08
-1.01224e-07
3.72955e-09
2.59388e-09
-8.89285e-08
1.47499e-07
-6.4735e-08
6.16503e-09
1.52429e-07
-7.88535e-08
-7.7017e-08
3.44132e-09
9.3414e-08
-9.37589e-08
-5.09041e-10
-1.16446e-07
-1.74969e-09
1.20468e-07
7.91722e-08
7.43641e-08
-8.08943e-09
-1.45447e-07
-6.34329e-09
1.40404e-07
-1.35005e-07
9.43959e-10
9.18178e-08
-1.55762e-07
-3.10998e-09
1.12766e-07
-1.80733e-08
3.49572e-08
-1.2965e-07
1.55918e-07
-2.44443e-08
-1.76696e-07
4.52221e-08
4.213e-08
8.56232e-08
-1.28126e-08
6.68212e-08
-1.32515e-07
7.25574e-08
-6.86354e-09
1.39458e-07
-1.40679e-07
-7.87769e-11
-1.04746e-07
1.49546e-07
-3.30599e-08
-1.17393e-08
-2.13534e-07
-1.56179e-07
2.98811e-07
7.09016e-08
-1.34938e-07
-2.93223e-09
1.41582e-07
-6.25465e-09
1.39924e-07
-1.48437e-07
-5.60124e-08
6.45249e-08
-1.30578e-07
6.74313e-08
6.91538e-08
-6.00685e-09
1.50409e-08
-5.67874e-08
-5.0144e-08
-1.04255e-07
1.04295e-07
-4.71511e-10
4.3082e-10
4.17184e-08
1.80577e-07
-6.98662e-08
1.08586e-07
-6.57799e-08
5.20949e-08
-7.57589e-08
-8.27361e-08
1.54559e-07
3.93565e-09
-6.57831e-10
-2.27796e-07
-3.42048e-10
2.28795e-07
7.6655e-08
-4.83644e-08
8.83531e-08
-3.19584e-10
6.66098e-08
-6.64322e-08
1.42066e-10
-2.00919e-08
1.45447e-07
7.04195e-08
-1.95774e-07
1.76754e-07
-8.93133e-08
-9.2668e-08
5.22758e-09
1.23625e-07
3.96056e-08
-3.76818e-08
-1.25549e-07
1.70383e-07
-8.0183e-08
7.93544e-08
-1.69554e-07
3.6705e-08
1.38646e-08
1.19813e-07
-9.17734e-08
8.71885e-08
-1.69115e-07
1.28214e-07
1.17452e-09
-1.25719e-07
-3.67001e-09
-4.12616e-08
-2.90444e-07
2.03536e-07
8.67212e-08
8.96691e-08
-6.76701e-09
-1.98807e-10
2.72674e-10
9.73808e-08
-9.74547e-08
-1.27797e-07
1.27666e-07
-4.45182e-10
-6.17877e-08
1.23434e-07
6.213e-09
7.64178e-09
9.08896e-08
-5.22895e-09
-9.33024e-08
-1.32888e-07
5.89385e-08
9.2805e-08
-1.88554e-08
-4.56778e-08
-8.41083e-08
-1.04618e-08
-8.64603e-08
1.67636e-07
5.54497e-09
7.49534e-08
7.79044e-08
-1.47533e-07
-5.325e-09
1.17216e-07
1.25643e-09
-1.18236e-07
-2.36777e-10
-2.45112e-09
-2.4726e-07
-1.50203e-08
2.54702e-07
-7.82316e-09
1.34386e-07
-1.31674e-07
5.95827e-08
-7.88896e-09
1.00414e-07
-3.2996e-10
-9.89956e-08
-1.08851e-09
1.26089e-07
-8.37151e-10
1.40798e-07
-4.82246e-08
8.41798e-08
2.18079e-10
-1.06929e-07
-3.51582e-09
1.14885e-07
-4.44069e-09
9.36586e-08
-5.1866e-08
-9.2727e-08
-2.57596e-10
9.29201e-08
6.4544e-11
-3.62401e-08
-1.41226e-07
1.49768e-07
2.76978e-08
-2.45733e-09
1.34808e-07
-1.31886e-07
-4.64594e-10
-9.17389e-08
-3.79811e-08
1.29699e-07
2.07376e-11
-4.28083e-09
2.1045e-09
-1.1427e-07
-1.69394e-07
9.01387e-08
8.45638e-08
-5.30889e-09
2.92889e-10
-1.03675e-07
1.03691e-07
-3.08962e-10
1.41923e-07
-6.66832e-10
-3.43886e-10
-1.14975e-07
2.56723e-10
1.15062e-07
1.80143e-08
2.23249e-08
-3.32123e-08
1.36297e-07
-7.45527e-08
5.07646e-09
1.45615e-07
-1.45324e-07
-1.37463e-08
-1.27827e-07
1.44619e-07
1.96386e-08
-3.64309e-08
7.45844e-08
-7.60336e-08
1.57368e-07
4.00031e-09
1.18021e-07
1.58593e-07
-1.32841e-09
-1.59722e-07
7.1538e-08
-1.48995e-07
-4.7423e-09
8.21998e-08
1.48649e-07
-8.16378e-08
7.94237e-09
1.02961e-07
-1.0071e-07
-1.16043e-07
6.05191e-08
-3.20425e-08
-1.55591e-07
1.48236e-07
-2.0078e-08
2.74328e-08
1.58292e-07
5.06997e-08
-6.0449e-08
-1.46489e-07
-7.6483e-08
-3.17926e-08
8.36236e-08
2.4652e-08
-1.35285e-07
7.12273e-08
-5.6699e-08
1.20757e-07
-1.58452e-07
-3.43846e-09
1.65108e-07
-3.21723e-09
-1.13522e-07
2.15633e-08
-6.64932e-08
-1.69737e-07
-6.50261e-09
9.75048e-08
-1.37156e-09
-1.16024e-07
-6.76026e-10
-1.13545e-07
1.45096e-07
-7.66502e-08
6.07671e-09
1.61797e-07
-8.64127e-08
-8.17877e-08
6.40369e-09
-1.39875e-07
1.87695e-07
-4.83961e-08
5.75994e-10
8.53778e-08
-8.62543e-08
-1.38999e-07
9.76846e-08
7.59654e-09
-2.32055e-09
7.89279e-10
1.0788e-07
-1.0742e-07
-1.24905e-09
1.97851e-07
-5.01408e-08
-1.08105e-07
-1.13554e-07
2.78977e-08
1.18593e-07
-1.1398e-07
-2.50813e-09
-1.93694e-09
1.04864e-07
-1.03283e-07
3.56069e-10
-1.03357e-08
-1.40086e-07
1.3735e-07
1.30723e-08
-1.43792e-07
1.60887e-07
-1.01788e-08
-6.91642e-09
1.25323e-07
-1.19839e-07
5.16371e-09
-2.06504e-09
-8.35651e-09
-1.01774e-07
1.01165e-07
3.43223e-08
-7.13041e-09
-1.40714e-07
-2.07363e-08
1.14054e-07
-8.7175e-08
-6.14232e-09
1.67382e-07
-7.19684e-09
-1.43965e-08
-1.45789e-07
1.63433e-07
2.34335e-10
-2.97598e-09
-1.60691e-07
1.40984e-07
-1.37861e-09
-1.47563e-10
1.33492e-07
-1.33708e-07
3.48448e-10
-1.32238e-10
-1.30492e-07
-8.41372e-08
1.30521e-07
2.20756e-08
-1.77098e-07
-1.13741e-07
1.13641e-07
1.45185e-10
-4.4588e-11
-1.38544e-07
-7.17654e-09
1.92863e-09
-1.05269e-07
-6.88447e-12
1.05211e-07
6.42131e-11
-1.26015e-07
-1.3749e-10
1.26594e-07
-4.41049e-10
-5.64165e-09
1.20541e-07
-1.07772e-07
-7.29788e-09
-1.06534e-07
1.05813e-07
3.7763e-10
4.78784e-09
2.92198e-08
9.32093e-08
-1.24819e-07
7.53725e-08
-7.57118e-08
1.50187e-07
-1.49847e-07
1.06495e-07
-8.36659e-08
-2.49629e-08
2.13356e-09
1.6782e-07
-7.1272e-08
-1.16454e-07
2.17816e-08
5.58856e-09
-1.12667e-07
1.2736e-07
-2.0281e-08
-2.78183e-10
1.05272e-07
-1.04561e-07
-4.32694e-10
-1.46058e-07
-8.55469e-09
1.71758e-07
2.14174e-07
-9.09263e-08
1.93164e-07
1.58411e-07
-7.87823e-08
5.74943e-09
-1.73591e-08
2.69109e-08
-1.08713e-07
1.02773e-07
9.15264e-08
9.6672e-08
-7.62152e-09
9.63297e-08
7.47237e-08
-1.64649e-07
-6.40443e-09
8.44899e-08
8.19215e-08
-8.00079e-09
1.24962e-07
-7.7794e-08
8.63238e-08
7.59224e-08
-1.28876e-07
6.15745e-08
-8.6209e-09
7.38346e-10
-1.01778e-07
-1.15437e-09
3.74741e-10
-3.22563e-07
1.93016e-07
2.38867e-07
-1.43125e-07
6.53132e-08
9.88593e-09
4.51782e-08
4.6984e-08
-1.02048e-07
-1.32267e-07
2.04967e-09
1.31339e-07
-1.12209e-09
-1.00802e-07
1.00224e-07
6.28713e-11
5.15509e-10
1.33452e-07
-1.72869e-07
2.04385e-07
-1.64968e-07
1.60587e-08
-1.26653e-09
1.30749e-07
-3.24905e-08
7.753e-09
-7.60352e-08
1.00773e-07
-7.39684e-08
1.44093e-07
5.24799e-09
-1.50613e-07
7.85408e-08
7.73751e-08
-5.30274e-09
-1.1474e-07
-2.54997e-08
1.19503e-07
5.99424e-10
7.9736e-08
-2.03296e-10
-8.01321e-08
1.51181e-07
-6.8331e-08
7.9713e-08
1.40778e-09
-1.22867e-10
1.14126e-10
-1.00036e-07
1.846e-07
-4.92267e-08
-3.07647e-08
-1.04609e-07
-1.42086e-08
3.10439e-08
-9.00468e-08
7.80268e-08
-3.42155e-08
2.33556e-08
2.44502e-07
-7.92628e-08
1.71334e-07
-1.66555e-07
-6.41941e-08
-6.88923e-08
5.25979e-09
1.35758e-07
6.25748e-09
-7.26191e-08
-7.40442e-08
1.39376e-07
7.28721e-09
2.28804e-08
1.28004e-07
-1.69307e-07
-2.06948e-10
7.19566e-08
-6.86993e-09
-6.85326e-10
-1.38932e-07
1.59385e-10
1.39458e-07
-1.49268e-07
1.83508e-07
-4.80439e-08
1.10266e-08
-1.01511e-08
5.31159e-08
1.15628e-07
-1.33384e-07
7.78931e-08
-2.80599e-08
8.35504e-08
-1.46508e-07
9.8675e-08
-1.32303e-07
1.30813e-07
1.6098e-10
9.60271e-08
2.05117e-08
-1.71625e-07
-2.26075e-08
1.73721e-07
-1.89449e-07
1.03845e-07
-1.42191e-07
-1.82417e-09
1.71646e-07
2.45724e-08
6.82042e-08
-9.75485e-08
4.77186e-09
1.85157e-08
1.60436e-08
-1.5206e-09
-1.02848e-07
7.64311e-10
-2.42295e-07
2.42575e-07
-6.21636e-10
-9.91499e-08
-1.04286e-07
-9.58323e-08
1.04881e-07
-1.15583e-07
8.65379e-08
-1.09708e-07
1.76756e-08
5.49397e-09
1.30179e-07
-9.39906e-08
-9.27753e-09
-1.60938e-07
-1.10158e-08
2.16163e-08
1.50337e-07
-3.22015e-07
-1.73326e-10
-1.35201e-07
1.34532e-07
4.70089e-10
-9.64215e-08
1.18368e-10
4.70824e-10
-1.45504e-08
-9.78823e-08
1.56813e-07
-4.43803e-08
1.12695e-07
5.4998e-09
4.52379e-08
-1.38757e-07
1.38078e-07
-3.68363e-09
-4.96037e-08
1.36356e-07
-9.94722e-08
2.81923e-10
-1.3245e-07
-9.8231e-11
9.43327e-08
-9.63107e-08
2.53396e-10
-6.84644e-08
-6.80566e-08
1.28607e-07
7.91421e-09
1.17301e-07
1.81444e-08
-1.00398e-07
-3.50473e-08
1.09409e-07
1.57195e-07
-2.35991e-07
-3.18123e-08
-1.13165e-07
-2.0128e-08
1.31533e-07
5.124e-11
-1.3201e-07
4.2574e-10
2.56615e-08
8.46872e-09
5.57041e-08
-8.98343e-08
-1.46203e-07
7.90213e-08
-5.43754e-09
-1.26602e-07
1.25271e-07
-6.51759e-09
-4.38051e-10
1.25162e-07
2.38993e-10
-8.25547e-08
-7.44664e-08
1.50018e-07
7.00282e-09
1.33667e-07
-7.20269e-08
-6.86193e-08
6.97958e-09
1.34053e-07
-2.52535e-09
4.88192e-12
-1.04353e-07
-9.50954e-08
1.03027e-07
-1.37735e-07
-4.89783e-08
2.44143e-08
1.64411e-07
-1.10024e-07
3.05708e-08
-1.34081e-07
3.96744e-10
-1.09632e-07
7.50126e-10
-6.45777e-10
1.39258e-07
2.66721e-08
-2.85779e-08
-1.37352e-07
4.77486e-08
-1.35318e-07
4.01033e-11
2.83487e-11
4.05747e-08
-2.02345e-07
-8.12801e-08
1.3784e-07
9.29855e-08
2.16492e-08
-1.51499e-07
-1.92266e-08
1.49076e-07
-8.43644e-08
6.09005e-09
1.37783e-07
-1.36003e-07
9.45292e-08
4.29327e-08
-1.45868e-09
-1.00362e-09
2.16019e-10
-1.01276e-07
6.95035e-08
-4.46732e-09
-1.87781e-09
-3.24353e-09
-2.43606e-09
9.96261e-08
-9.39466e-08
8.56009e-08
1.08129e-07
-1.07441e-07
-8.62886e-08
1.55302e-07
-1.73437e-07
2.52437e-10
3.15343e-10
1.63815e-07
-1.04839e-08
-1.43983e-07
-4.45847e-08
1.58576e-07
1.13308e-08
1.22891e-07
-1.15899e-07
-6.09462e-09
-8.97143e-10
-1.08432e-09
1.19156e-07
1.69968e-07
-5.90711e-08
-2.31173e-09
9.80299e-08
-8.68464e-08
-5.55318e-10
-2.29695e-10
1.464e-07
-1.75852e-07
1.16916e-08
1.61877e-07
-7.1596e-10
-1.22194e-08
2.03559e-07
-2.55786e-07
5.60109e-08
9.68752e-10
9.43673e-08
-9.01031e-10
-9.4435e-08
-1.21011e-07
1.21321e-07
-1.95961e-10
1.10885e-09
-8.03173e-11
-1.15211e-07
1.14295e-07
-1.69057e-10
-1.1307e-07
-3.1013e-10
2.15362e-10
7.40358e-08
-1.06975e-07
-7.93191e-08
1.12259e-07
6.1155e-11
-1.18917e-07
1.18905e-07
-4.90816e-11
-2.77002e-08
2.11507e-08
3.81567e-08
-2.05644e-08
-1.46551e-07
7.62821e-08
-6.21389e-09
2.926e-08
-1.66309e-08
1.10261e-07
-1.39841e-07
6.7649e-08
6.50098e-08
7.18238e-09
-1.65187e-07
-1.15677e-07
1.15301e-07
-1.30727e-07
-4.48228e-08
6.02489e-08
1.33833e-07
-1.34597e-07
7.70069e-10
-5.42963e-12
-1.78619e-09
-1.91833e-07
1.00676e-10
1.93518e-07
-1.10034e-07
1.98454e-11
1.10065e-07
-1.32416e-07
-1.45649e-10
5.52172e-10
7.51571e-08
-1.32307e-07
-7.04432e-09
3.88771e-10
-1.34085e-07
-1.25959e-11
7.87449e-08
7.98863e-08
-5.64146e-09
-7.61279e-08
-7.64497e-08
1.46339e-07
6.23825e-09
-1.20311e-07
8.66591e-10
1.19262e-07
1.82427e-10
1.28431e-07
3.19803e-08
1.14865e-07
-1.64712e-08
1.11434e-07
-5.65351e-09
-1.01872e-07
4.8125e-08
4.65076e-08
7.23927e-09
-2.48224e-08
1.33651e-07
2.67069e-08
-1.30504e-07
7.65185e-08
-7.43054e-08
-1.36772e-07
-1.10666e-07
1.21655e-07
1.25782e-07
1.11932e-07
-1.34836e-10
1.19288e-07
-1.20905e-07
1.53641e-09
8.0285e-11
-1.36524e-07
-1.32811e-07
8.86732e-10
3.87092e-11
1.75604e-08
2.86266e-08
-1.50013e-07
1.5773e-08
-4.54148e-08
2.05215e-07
1.40202e-07
-1.58722e-07
2.46948e-08
-4.7629e-09
2.00352e-08
-2.23794e-08
1.38993e-07
-3.44133e-08
-8.22002e-08
1.09611e-07
-5.28018e-10
-1.08668e-07
-4.14804e-10
-4.42218e-08
-1.50028e-07
2.98471e-07
-1.04221e-07
1.07432e-07
-8.22167e-08
-6.43003e-10
-4.60256e-10
1.06109e-07
-3.76804e-10
7.66674e-08
-7.73663e-08
1.52596e-07
-2.00528e-07
-1.35667e-07
8.25045e-08
1.31704e-07
-2.41046e-09
-3.12771e-08
-8.58735e-08
7.37968e-08
8.80835e-08
8.08808e-09
2.26997e-07
-1.32627e-07
1.01754e-08
1.53385e-07
-8.29591e-08
6.9493e-09
1.33758e-07
-1.78481e-07
1.20342e-07
-6.42645e-08
-3.86843e-08
-1.44164e-08
1.77629e-09
1.08992e-07
-1.21104e-07
7.08224e-08
-1.34021e-07
-5.26608e-09
1.53733e-07
-5.38548e-09
-5.11996e-08
1.5523e-07
-1.0619e-07
-1.51444e-09
-2.63465e-08
1.44708e-07
-1.62667e-07
4.43061e-08
1.21344e-07
2.18766e-08
-5.7597e-08
-3.16689e-09
-1.63762e-07
1.63881e-07
-5.89219e-10
-3.13409e-08
2.35922e-08
-1.01108e-07
1.08857e-07
7.8046e-08
-1.46938e-07
-5.15207e-09
-1.40961e-07
1.41516e-07
-1.6616e-10
-7.87717e-08
1.62845e-07
-1.28296e-07
-7.48525e-08
-8.17506e-08
1.53773e-08
-1.03323e-07
-9.48485e-11
2.03078e-07
8.72073e-08
-1.82518e-07
-1.10169e-07
-7.65263e-08
1.36181e-07
2.39157e-07
8.62191e-11
-9.31385e-08
-2.82748e-10
9.3335e-08
3.36326e-08
1.04982e-07
-8.36711e-10
1.54919e-07
6.33076e-09
9.99786e-08
5.82557e-08
2.65264e-09
7.62588e-08
-1.46675e-07
-5.71181e-09
-7.53316e-08
-8.49521e-08
1.51678e-07
8.60535e-09
-9.31391e-08
-4.60236e-09
-4.13038e-09
-1.32041e-07
-1.11768e-07
1.19245e-07
-8.78709e-11
-1.29459e-07
-3.45975e-09
1.26576e-07
-9.36433e-08
-1.42137e-07
1.01996e-07
1.33784e-07
-1.15637e-07
4.01472e-08
7.87882e-08
-3.29878e-09
7.31932e-08
7.26695e-08
-1.38949e-07
-6.91332e-09
-7.39058e-08
-7.12589e-08
1.38787e-07
6.37716e-09
5.3608e-08
4.95309e-08
-1.13162e-07
1.00228e-08
-6.9992e-08
1.17019e-07
-3.8052e-08
-8.97481e-09
1.08753e-07
-1.09279e-07
-1.58848e-10
-9.8191e-08
6.57116e-10
8.56692e-08
1.10742e-07
-2.95676e-08
-1.66844e-07
-3.24549e-08
9.2957e-08
3.98215e-08
-1.00324e-07
-1.0114e-07
-9.17769e-11
1.03072e-07
-1.84016e-09
-7.7077e-08
-4.44741e-08
9.91717e-08
1.28279e-07
-3.28653e-09
7.31552e-08
-1.36525e-07
6.84369e-08
-5.0675e-09
-6.54082e-08
5.01686e-08
-1.36973e-07
1.16872e-08
1.26093e-07
-1.05835e-07
-2.95435e-08
2.30797e-08
8.69608e-08
-7.81673e-08
1.16602e-09
-1.2698e-07
-2.00788e-10
-3.16002e-08
3.38722e-08
1.07436e-07
-1.21437e-07
5.88412e-08
5.55653e-08
7.03085e-09
7.67728e-08
-4.90499e-09
4.10816e-08
6.56428e-08
7.32915e-09
9.08501e-09
1.33671e-07
-1.10528e-08
-6.92359e-09
-8.58399e-08
8.40237e-08
1.40809e-07
-7.76786e-08
-1.64409e-07
1.65071e-07
1.73239e-07
6.00233e-08
-5.77085e-08
-1.75554e-07
1.38048e-08
-1.32722e-07
1.44578e-07
-8.19619e-08
-7.4015e-08
1.49206e-07
6.77128e-09
-5.30882e-08
-1.26662e-07
7.36205e-10
7.07137e-08
-6.89736e-09
1.35038e-07
-9.66067e-10
-2.39078e-10
2.33944e-08
-9.00684e-08
9.5934e-08
1.96017e-10
3.26381e-10
-1.41483e-07
-4.21062e-09
7.57416e-08
-7.24583e-08
1.19255e-08
-8.76847e-08
1.49928e-07
-7.41688e-08
-2.91114e-08
-1.41477e-07
1.04445e-09
1.69543e-07
9.80435e-08
-1.88247e-07
7.33641e-08
1.68393e-08
-1.27349e-07
9.4315e-08
-1.02167e-07
1.04526e-07
-6.90467e-10
-1.03688e-07
-1.47851e-10
-4.74277e-08
-1.33245e-07
4.81894e-08
1.32484e-07
-7.53292e-08
-1.28597e-07
1.54685e-07
4.92412e-08
-2.96219e-09
-1.48383e-07
1.48817e-07
2.52826e-09
-1.30007e-07
1.299e-07
-1.67999e-09
-1.50713e-07
1.33202e-07
-6.67999e-08
1.44202e-07
7.36158e-08
-6.32737e-09
7.98336e-08
-1.42111e-07
-6.65981e-08
-1.31236e-07
9.20755e-08
-1.07042e-07
-1.39861e-08
1.49092e-07
-9.14643e-08
-3.60677e-08
1.24668e-07
-1.22886e-07
-3.27937e-09
1.49807e-09
-1.01955e-07
-2.48032e-09
4.39983e-09
-2.02216e-11
-1.55762e-07
1.5282e-07
-9.37802e-08
-9.76702e-11
7.38804e-10
-9.70549e-08
8.15547e-08
1.61904e-08
-6.90312e-10
-5.83422e-08
-1.39101e-07
1.87576e-07
9.86736e-09
1.20133e-07
-4.48387e-10
5.82879e-08
5.00235e-08
-1.16857e-07
8.54534e-09
-1.12537e-07
-4.87255e-10
1.12808e-07
2.16487e-10
-1.10151e-07
1.60674e-08
-2.68214e-08
6.58631e-08
-1.25128e-07
5.29853e-08
6.2792e-09
-4.6707e-09
-9.85263e-08
4.04708e-09
1.71341e-09
-1.39878e-07
1.39259e-09
5.57569e-08
7.80374e-08
-5.17872e-08
1.67095e-08
2.29584e-08
2.15593e-08
1.31499e-07
-1.32037e-07
7.6188e-10
-2.23535e-10
-2.14815e-07
2.02545e-07
8.88011e-08
-7.65314e-08
5.97572e-08
-1.53823e-07
1.18275e-07
-2.42094e-08
7.7452e-08
-6.80165e-09
-6.43938e-10
-1.6618e-10
5.99227e-08
-6.38445e-08
-1.20721e-07
1.72633e-07
-1.43651e-07
1.18458e-07
-1.53783e-08
7.81805e-10
-1.60119e-07
1.58877e-07
1.36481e-07
-1.6632e-07
-1.50229e-09
-9.08736e-08
-8.63041e-08
1.70209e-07
6.96871e-09
9.74353e-08
3.80648e-10
-9.78476e-08
3.16474e-11
-1.53624e-07
8.21679e-08
7.6237e-08
-4.7806e-09
-2.09282e-07
1.29981e-07
-1.45121e-07
2.24422e-07
-2.01698e-07
2.6267e-08
-4.73923e-08
-1.17807e-07
-1.71384e-07
1.05683e-07
3.93546e-08
-1.52615e-08
-1.33703e-07
1.45611e-07
3.35313e-09
-3.52024e-09
-1.16904e-07
-1.00683e-08
1.05596e-07
-1.1476e-07
1.29883e-07
-4.32044e-08
1.65842e-07
1.87924e-07
7.68688e-08
-1.29847e-07
-1.28052e-07
3.10746e-10
1.2382e-07
-1.23868e-07
-2.63378e-10
1.0789e-07
-1.16516e-07
3.95544e-09
-8.29412e-08
-6.14883e-10
7.37923e-08
1.09238e-07
-4.79922e-08
6.59813e-08
-1.28053e-07
-4.72789e-09
-4.56539e-10
1.20492e-07
-1.20091e-07
5.51965e-11
-1.24143e-07
-3.7039e-10
1.25035e-07
-5.21422e-10
-1.27135e-07
4.68631e-08
-3.56271e-08
-1.23133e-08
1.05513e-07
8.43485e-08
-1.31859e-09
-1.88543e-07
3.39773e-09
-1.18403e-11
-1.77262e-08
8.71081e-08
-1.5663e-07
8.72483e-08
-1.35409e-07
1.37367e-07
6.96439e-08
-6.41977e-09
2.9419e-08
-1.39962e-07
-3.95254e-08
1.50068e-07
4.37004e-08
1.16265e-08
3.48046e-08
-9.01315e-08
7.31913e-08
8.05205e-08
-1.47154e-07
-6.55732e-09
-1.08983e-07
1.07324e-07
1.73637e-09
-7.73949e-11
-7.24759e-08
7.22113e-09
5.94724e-08
-5.72475e-08
1.34404e-07
-1.36629e-07
-1.11951e-07
2.378e-07
-5.00834e-08
-7.57656e-08
9.18864e-08
-7.64638e-08
-8.06013e-08
6.51785e-08
7.29616e-08
-6.01581e-08
-1.44633e-07
5.75753e-08
8.28636e-09
6.20652e-08
8.63102e-08
7.99856e-08
8.31217e-08
-1.56856e-07
-6.25086e-09
1.43908e-07
8.47777e-09
-6.60584e-09
-1.4578e-07
1.09535e-07
7.74379e-10
-6.98613e-10
1.02647e-07
-1.04781e-07
2.46297e-09
-3.28926e-10
-7.01992e-08
-8.25694e-08
1.45867e-07
6.90173e-09
-1.28949e-07
1.38695e-09
4.27604e-10
-1.12914e-07
3.49607e-11
3.42256e-10
1.2184e-08
1.3297e-07
1.19097e-07
2.05251e-09
-1.01616e-09
8.18918e-11
-1.10712e-07
1.10143e-07
1.03807e-07
1.80836e-08
2.77729e-09
-1.30129e-08
3.89584e-08
-1.29238e-07
1.03292e-07
1.33447e-07
-1.33173e-07
-3.89676e-11
-2.35059e-10
-3.18257e-08
-1.27871e-07
1.85964e-07
-1.27248e-07
-2.06609e-08
1.53515e-07
-5.60583e-09
1.65895e-07
-1.40551e-07
-2.42859e-08
-2.2264e-08
1.38436e-07
1.35344e-07
-1.37071e-07
1.16168e-09
5.64826e-10
1.61226e-07
-4.9907e-08
-1.58904e-07
4.75849e-08
1.34594e-07
-1.3461e-07
1.5902e-07
-1.59004e-07
9.70102e-09
-1.36589e-08
-1.06008e-07
1.09966e-07
2.88535e-08
-1.10716e-07
-4.6919e-08
1.28781e-07
9.35447e-08
8.46416e-08
-1.70931e-07
-7.25499e-09
2.20475e-07
-2.33303e-07
-1.70347e-07
-6.84122e-08
1.0976e-07
-1.38501e-08
1.36256e-08
-2.01711e-07
1.74986e-07
-9.29893e-08
1.45667e-07
-2.47059e-07
1.94381e-07
8.49768e-08
-1.71911e-07
-6.05535e-09
2.2015e-08
9.6711e-08
-1.65696e-08
-1.02156e-07
-1.70117e-09
1.12046e-07
-1.60054e-08
-8.96652e-08
-6.38856e-08
1.66269e-07
-1.15563e-07
1.31797e-08
-2.93491e-08
8.44698e-08
-4.77456e-08
-7.37513e-09
3.11461e-10
-1.06541e-07
1.06736e-07
-5.06889e-10
3.02237e-09
1.34278e-07
-1.36076e-07
-1.22446e-09
1.67079e-08
-1.39677e-07
1.44391e-07
-1.45383e-08
-9.88865e-08
2.05909e-07
1.68611e-08
-5.16058e-08
-4.80387e-08
1.35634e-07
-2.29053e-07
-7.96755e-08
-1.63288e-07
1.28786e-07
-7.74495e-08
1.33187e-07
-1.29624e-07
-5.4091e-10
-1.06619e-07
1.49509e-09
-2.16059e-09
1.07284e-07
6.67741e-08
-2.06187e-07
-1.56602e-07
1.40315e-11
1.35205e-07
-1.3499e-07
-2.28931e-10
-1.44117e-07
-5.08051e-08
1.84672e-07
6.43192e-09
-7.30409e-09
1.18115e-07
-1.07943e-07
-1.25291e-08
1.56824e-07
-1.24798e-07
7.96363e-10
-1.41143e-10
6.94118e-08
-1.63554e-07
8.90828e-08
5.05912e-09
-1.49295e-09
-1.40329e-07
-1.27162e-09
1.36767e-07
6.06785e-09
-1.12201e-07
5.72362e-08
5.31065e-08
1.85808e-09
-1.15019e-07
3.11099e-08
1.56871e-07
-8.05952e-12
1.46247e-07
-9.34372e-10
-1.45304e-07
8.16774e-09
1.29236e-07
-2.75506e-08
-1.09853e-07
1.55891e-07
-1.77599e-07
9.16665e-08
-6.9959e-08
4.87502e-08
1.23103e-07
-6.06072e-08
-6.7387e-09
9.33086e-08
1.16896e-07
-2.00993e-07
-1.34086e-08
-6.99779e-09
1.18162e-07
-1.42956e-07
1.24447e-07
3.91907e-10
-1.249e-07
6.17541e-11
8.11578e-09
1.08678e-07
-4.09827e-09
8.61093e-08
-2.13958e-07
3.42053e-08
-1.42318e-07
1.89453e-09
-7.99205e-08
-6.83952e-08
1.41404e-07
6.91211e-09
-1.13224e-07
-5.10532e-08
3.51249e-08
1.29153e-07
-1.27779e-07
-5.68477e-10
-6.01655e-10
-7.51918e-08
1.58826e-07
-8.97382e-08
6.10443e-09
7.9967e-08
-1.5916e-07
8.31616e-08
-3.96883e-09
-1.19886e-07
-2.66014e-10
1.09325e-07
-1.12638e-07
5.09563e-09
-1.78316e-09
1.62561e-07
-9.12084e-08
8.61471e-09
-1.22682e-07
2.08855e-08
-2.10895e-08
6.40314e-08
-1.05831e-07
-2.39802e-08
1.34592e-07
-1.33714e-07
-9.63405e-11
7.31903e-08
6.57378e-08
-6.53721e-08
-7.3556e-08
8.62557e-08
1.60802e-07
-1.73865e-07
8.47196e-08
7.19417e-08
-1.51313e-07
-5.34791e-09
-1.23516e-07
6.53203e-08
5.08958e-08
7.30014e-09
1.46128e-10
1.34758e-07
4.40073e-10
8.55631e-08
7.9415e-08
-1.59516e-07
-5.46239e-09
1.14479e-07
1.24586e-07
-1.02591e-08
-1.10761e-07
-3.56535e-09
1.01917e-07
5.72189e-11
1.58657e-07
-1.60228e-07
-8.81056e-08
8.96767e-08
5.34216e-08
6.38957e-08
7.26856e-09
-6.24912e-09
-2.90721e-07
2.0113e-08
1.9726e-07
-3.55254e-09
6.25277e-09
1.64675e-07
1.41078e-07
-2.39889e-07
-1.32128e-07
1.04334e-09
-1.91591e-09
1.33e-07
7.59793e-10
1.06005e-07
-1.06765e-07
2.69806e-13
-8.54683e-08
1.95138e-07
-1.91631e-07
5.56811e-08
1.32519e-07
-6.95047e-08
-1.18695e-07
4.93522e-08
6.21386e-08
-1.19076e-07
7.58551e-09
1.60332e-07
-1.24632e-08
2.23403e-08
-1.42877e-07
-5.60449e-09
6.11553e-08
-1.71676e-07
-1.93134e-08
-1.02657e-07
-1.19258e-07
1.12027e-07
2.13411e-08
-5.15377e-09
-2.23092e-08
1.02922e-07
3.14138e-08
-3.62934e-09
-8.87153e-08
-2.56484e-10
1.33865e-07
4.15101e-09
6.96326e-10
3.40893e-10
-2.09624e-07
-1.68486e-08
-6.0735e-11
6.13621e-08
1.54896e-08
-6.83641e-08
-1.61266e-08
2.93788e-07
-1.29098e-07
-1.48563e-07
-1.82275e-07
1.49328e-07
1.23584e-07
-1.56829e-07
-7.37039e-08
7.92388e-08
-8.12747e-08
7.57398e-08
1.27874e-07
-1.32619e-07
-3.87852e-09
8.62345e-09
-4.36713e-09
-6.86285e-08
8.59833e-08
-1.9963e-07
-8.6849e-08
6.99528e-08
-1.00613e-07
-1.30462e-07
2.9614e-07
-4.43647e-08
-1.05377e-07
-1.38125e-08
-8.2303e-08
1.66207e-07
2.35202e-09
-3.59134e-08
-7.6898e-08
9.62452e-08
1.65662e-08
4.31986e-08
-1.93357e-07
8.75542e-08
6.26044e-08
-1.13381e-07
1.13307e-07
-3.25763e-10
4.00344e-10
9.76978e-08
-1.7628e-10
1.51036e-08
1.3481e-07
1.20183e-07
-7.95972e-09
-8.86312e-08
-1.48461e-07
1.9532e-08
3.92277e-10
1.31406e-07
-1.20623e-07
1.77171e-07
-5.54648e-08
-5.43045e-09
3.04769e-09
1.33859e-07
-3.04175e-09
1.129e-07
4.21158e-08
-1.63892e-07
-3.18484e-08
-1.34991e-07
-1.16903e-07
-9.12689e-08
4.72343e-08
-1.16955e-08
1.1512e-07
-8.89494e-09
-1.01131e-07
-1.16647e-07
-3.73033e-09
1.01682e-07
-1.30989e-07
1.04226e-07
-2.79143e-10
-1.03539e-07
-4.07633e-10
-2.76006e-08
-1.57796e-07
-1.89703e-07
1.89413e-07
1.18823e-07
-5.05699e-08
1.20616e-08
-8.03142e-08
1.20532e-07
-5.86462e-10
-1.19769e-07
-1.77477e-10
9.03387e-10
1.08225e-07
-1.09475e-07
3.47011e-10
3.08242e-08
1.27385e-07
-3.91121e-08
-8.26651e-08
-8.73858e-08
1.08913e-08
8.29706e-09
1.16552e-07
-1.20925e-07
-3.92422e-09
-1.33203e-07
1.43876e-07
-2.3756e-09
-1.41656e-07
-3.87477e-09
-1.59232e-07
1.6148e-07
-5.91872e-08
-9.12932e-08
1.56522e-07
-6.0422e-09
1.14486e-07
-1.5016e-08
6.98013e-10
-1.54805e-10
5.0141e-08
1.26365e-08
-1.11152e-09
-2.86737e-10
7.98326e-08
8.76763e-08
-6.28311e-09
-3.5779e-08
1.06241e-07
8.3675e-08
-3.09244e-07
-2.16051e-07
3.40391e-07
1.82677e-07
1.58256e-07
-6.60599e-08
-1.02017e-07
6.33125e-09
-8.05051e-10
-1.30887e-07
-3.4502e-10
5.73693e-08
6.5878e-08
-1.22256e-07
-9.91598e-10
-1.20979e-07
1.20812e-07
2.74309e-10
-1.06779e-10
1.11016e-07
3.43961e-08
-1.45993e-08
1.44347e-09
2.05818e-07
-4.71643e-09
-5.59833e-08
-8.50375e-08
-3.61256e-09
-6.94351e-08
-2.50353e-08
2.62244e-11
1.15066e-07
-1.14318e-07
8.2525e-08
-2.03715e-07
1.12644e-07
-9.82254e-10
-6.45366e-10
7.34964e-08
6.87964e-08
-1.38477e-07
-3.81547e-09
-1.70553e-07
8.52171e-08
-2.42658e-08
-2.86632e-08
-3.96696e-08
1.35515e-07
-6.71824e-08
-3.11994e-08
7.4804e-08
3.26323e-08
-1.48587e-07
-9.38626e-08
9.93873e-08
1.43062e-07
8.05976e-08
-5.73397e-09
6.84868e-08
1.35839e-07
-5.55166e-08
-1.48809e-07
-3.8434e-09
1.24075e-07
1.54799e-08
-1.35712e-07
1.18291e-07
-1.00357e-07
-2.21145e-08
4.1811e-09
1.49394e-07
-2.02421e-07
1.87305e-07
1.48594e-07
-7.21359e-08
-6.96423e-08
-6.81577e-09
4.50105e-08
-1.79095e-07
-1.2833e-07
-1.26806e-07
-2.32758e-10
-1.9815e-07
1.66768e-07
-1.73188e-07
2.04569e-07
8.57478e-08
-1.83414e-07
-2.61787e-08
1.24853e-07
-1.23709e-07
-4.3182e-10
-7.12465e-10
6.31666e-08
-1.26526e-07
-5.26934e-09
-7.49539e-09
7.20376e-08
-1.7071e-07
8.28925e-08
-1.43509e-07
1.66341e-10
1.50988e-10
1.43191e-07
-7.86428e-08
1.42836e-07
-2.04504e-07
-9.83386e-08
-2.68433e-08
-7.11992e-09
6.22839e-08
7.26573e-08
-6.15503e-09
-5.50174e-08
-6.26399e-08
-5.85895e-09
-3.96499e-09
-1.09945e-07
-1.0547e-07
-1.08799e-09
-5.64292e-09
7.2385e-08
-7.2182e-08
8.10029e-10
-1.01299e-09
1.11622e-07
-1.09788e-07
-1.10742e-09
-7.26554e-10
-1.4817e-09
1.33266e-07
-1.32121e-07
3.3677e-10
-1.37698e-07
1.48578e-08
1.17345e-07
5.49508e-09
1.33642e-07
-1.26831e-07
-4.68382e-09
-2.1272e-09
-1.12506e-07
-1.31848e-09
1.14445e-07
-6.20176e-10
-1.09239e-07
-6.68893e-08
1.02035e-07
3.5765e-08
-1.01554e-08
-1.27645e-07
7.87918e-08
-8.38439e-08
4.16654e-09
8.85521e-10
4.74335e-08
3.94129e-08
-1.34274e-07
1.13995e-07
-1.11067e-07
-7.31238e-09
4.38457e-09
-5.3247e-08
5.37984e-08
1.60186e-07
5.78292e-09
1.35643e-07
-1.01287e-07
1.25069e-08
-2.8894e-08
-1.22591e-08
-1.07434e-07
-2.92746e-08
2.01475e-07
6.05911e-09
-1.76925e-07
1.36969e-07
-3.5243e-08
-2.03967e-08
2.21304e-08
-8.46364e-08
6.37995e-09
-1.31687e-07
1.31611e-07
6.08924e-08
-7.36462e-08
-3.17202e-08
8.03769e-08
2.1485e-09
6.197e-08
5.72667e-08
-7.55363e-08
-8.73214e-08
1.20387e-07
-1.34273e-08
-7.39261e-08
6.04459e-09
9.92634e-08
1.19039e-08
2.36861e-08
2.62374e-08
-1.12094e-08
5.38658e-08
6.23285e-08
6.90844e-09
-5.19279e-08
1.69929e-07
-1.76343e-07
-1.84174e-07
9.11485e-08
2.32483e-07
-1.56926e-07
1.11425e-07
-3.43889e-08
6.41536e-08
-1.4119e-07
-1.28897e-07
-4.45847e-08
-1.51911e-07
-5.58376e-09
-1.06934e-07
8.35511e-08
-9.22413e-08
1.15624e-07
9.26087e-09
-1.26378e-07
-1.48239e-07
-7.81355e-09
-4.17587e-09
-1.33781e-07
1.21208e-07
1.30863e-07
2.05648e-08
1.07056e-07
2.12852e-09
-1.39171e-07
1.28702e-07
-9.02105e-08
1.00679e-07
-1.05616e-07
1.40799e-08
-2.13781e-08
-3.5552e-08
6.50182e-08
2.55775e-08
-4.37786e-08
-1.16858e-07
-4.59141e-08
1.27441e-08
-7.43054e-08
-8.90596e-08
7.77393e-09
-7.36362e-08
8.44344e-08
8.44215e-08
2.46472e-08
4.44517e-08
-1.5352e-07
9.78435e-09
7.91653e-08
-8.88597e-08
6.18564e-09
-8.37556e-08
-9.43327e-08
7.53514e-09
6.5213e-08
-7.60835e-08
-5.02985e-08
6.11689e-08
-5.0782e-08
-9.13265e-09
1.54804e-07
-1.95157e-07
4.08985e-08
-5.45954e-10
-8.80582e-09
2.8718e-08
8.32685e-08
-1.03181e-07
6.02515e-10
-9.88003e-08
-1.10182e-09
9.92995e-08
-1.05142e-07
1.04186e-07
5.60501e-10
3.95327e-10
1.36885e-07
-7.48001e-08
-1.38535e-07
-6.32976e-08
-3.98912e-08
1.048e-07
-1.61156e-09
1.61263e-07
1.21569e-08
-1.22619e-07
6.19283e-09
-1.46939e-07
1.73248e-08
-5.04732e-10
-8.69878e-08
-1.18343e-07
1.18818e-07
-3.08419e-10
1.68224e-07
-6.57934e-09
-1.53942e-07
-6.55347e-09
-1.48725e-08
2.21016e-07
-6.71592e-10
-1.9884e-08
-8.13235e-10
1.01468e-07
-1.00731e-07
2.31061e-10
1.21486e-09
8.09637e-09
2.76259e-08
1.2835e-07
-3.36028e-08
1.26913e-07
-8.78603e-09
-3.38726e-09
1.33666e-07
-1.28886e-07
-1.39242e-09
-1.09586e-07
1.11572e-07
-5.15789e-09
1.27668e-07
5.64934e-09
-3.32731e-08
-1.00044e-07
1.24507e-07
1.89585e-09
-1.24385e-07
-2.01822e-09
-7.42137e-08
-5.62291e-08
7.44596e-08
9.28612e-08
1.5388e-09
1.63739e-07
2.03734e-08
-3.77728e-08
-1.53403e-08
3.75428e-09