/*--------------------------------*- C++ -*----------------------------------*\
| =========                 |                                                 |
| \\      /  F ield         | OpenFOAM: The Open Source CFD Toolbox           |
|  \\    /   O peration     | Version:  2212                                  |
|   \\  /    A nd           | Website:  www.openfoam.com                      |
|    \\/     M anipulation  |                                                 |
\*---------------------------------------------------------------------------*/
FoamFile
{
    version     2.0;
    format      ascii;
    arch        "LSB;label=32;scalar=64";
    class       volVectorField;
    location    "0.068";
    object      U;
}
// * * * * * * * * * * * * * * * * * * * * * * * * * * * * * * * * * * * * * //

dimensions      [0 1 -1 0 0 0 0];

internalField   nonuniform List<vector> 
31639
(
(0.126733 0.000589554 -0.000647761)
(0.122822 -0.000532838 1.85827e-05)
(0.125256 8.50633e-05 0.000250983)
(0.129367 3.98366e-05 -0.000280535)
(0.125458 -0.00085328 -0.000302492)
(0.123562 -0.000201164 -7.69748e-05)
(0.123487 -4.83276e-05 -0.00025032)
(0.126459 -0.000128482 -3.20974e-05)
(0.126157 0.000305798 -0.00026697)
(0.127052 -0.00055453 -0.000443242)
(0.128029 0.000570212 -0.000149341)
(0.126942 -0.000567365 -0.00083623)
(0.123695 -0.000587877 6.62208e-05)
(0.126902 -4.88746e-05 0.00022641)
(0.122105 -0.000426844 0.000187554)
(0.124168 -0.000493553 0.000900616)
(0.126222 0.000324952 -0.000612666)
(0.122334 -0.00011481 5.54978e-05)
(0.124018 -0.000144777 -0.000374462)
(0.124693 -9.47614e-05 -0.000257256)
(0.117078 -0.000318501 -0.000409865)
(0.128339 -0.000330873 -0.000639945)
(0.127573 0.000686728 -0.00018238)
(0.123438 0.000227414 -0.000393069)
(0.121785 -0.000258449 -0.000186221)
(0.125513 -0.00033376 0.000161018)
(0.124214 -3.45244e-05 -0.000265658)
(0.125778 0.00209362 -9.76304e-05)
(0.12299 0.000352289 0.000693744)
(0.127771 -0.000305747 0.000621793)
(0.127937 -0.000190454 -6.26422e-05)
(0.122504 0.000422467 -0.000130687)
(0.127954 0.000370607 -0.000467195)
(0.123277 -0.000186776 -2.08469e-05)
(0.119068 0.000313018 0.000912395)
(0.128161 0.000374286 0.000195447)
(0.115696 -0.000536697 -0.0001485)
(0.129009 -0.000616472 0.000289984)
(0.127406 -0.000348255 0.000272484)
(0.115559 3.1413e-05 -0.000180423)
(0.120077 -0.000137938 -0.000335952)
(0.118658 -0.000573718 -2.57757e-05)
(0.12655 -2.29615e-05 2.45111e-05)
(0.128741 -0.000780229 -0.000953548)
(0.127385 -0.000808056 0.0007344)
(0.128382 -0.000923417 -0.000340795)
(0.120645 0.0003782 -0.000280265)
(0.12499 0.000586311 -0.000295321)
(0.125079 1.41711e-05 0.0002694)
(0.128952 -0.000483935 -0.000155619)
(0.127945 -0.000340099 -0.000589312)
(0.117619 6.35721e-05 -0.000250293)
(0.126841 0.00088625 0.00018988)
(0.117027 -0.000434861 0.00047253)
(0.125353 -0.000505434 -0.000195552)
(0.125275 -0.00179751 -0.000516603)
(0.118155 -0.000132727 -0.00053034)
(0.124612 6.91673e-05 0.000391375)
(0.123804 0.000172526 0.000438544)
(0.118839 0.000360301 -0.000236216)
(0.126751 -0.00029636 -0.000538257)
(0.127456 0.000355575 -0.000337518)
(0.122485 -0.000421365 -0.000319492)
(0.123783 -0.000122544 -0.000283996)
(0.126399 0.000588185 0.000666279)
(0.128879 -0.000366048 -0.000554376)
(0.126232 -0.000109114 -0.00106461)
(0.124272 -0.000300023 0.000145733)
(0.120536 2.10028e-05 -0.000473294)
(0.128881 0.000362665 -0.00018351)
(0.1264 0.000118138 0.000143083)
(0.120749 0.000757797 -0.00131449)
(0.126825 -0.000393258 -0.00084881)
(0.124875 -0.000306983 -0.000189037)
(0.126248 0.000922288 0.000294072)
(0.11713 0.000573818 -0.000628522)
(0.127971 -0.000631522 0.000368656)
(0.124215 0.000181963 -0.000691486)
(0.122942 -0.000343208 0.000472918)
(0.126647 0.000180844 0.000102534)
(0.122597 -5.90455e-05 4.26412e-05)
(0.114025 -0.000474011 1.71207e-05)
(0.128307 -0.000522142 0.000185073)
(0.124703 -0.000202026 -0.000342761)
(0.125435 -0.000209546 -7.59326e-05)
(0.128031 -0.000644374 -0.000373449)
(0.129056 -0.000236203 0.00013867)
(0.128057 -0.000238623 -0.000507828)
(0.118296 0.000869165 -0.00152383)
(0.127248 -0.000160318 -0.000542615)
(0.125128 -0.000441927 0.000255107)
(0.12387 -0.000589659 -0.000454452)
(0.119126 -0.000522984 -0.000565714)
(0.12157 0.000810696 -0.00086231)
(0.1227 -0.000897274 -0.000487906)
(0.123627 0.00079848 0.000553548)
(0.125408 0.000144966 -0.000587486)
(0.124495 -0.000282773 0.000149866)
(0.123867 0.000134735 0.000444516)
(0.118036 -0.00144042 -0.000273819)
(0.126023 0.000329718 -0.000739772)
(0.125795 -5.58125e-05 -0.00178337)
(0.122486 -0.00047578 -0.00010471)
(0.117226 0.000127393 -0.000267885)
(0.118568 -5.66406e-05 -0.000407151)
(0.12839 -0.000714791 -0.000354702)
(0.116785 0.000343535 -0.000528378)
(0.11786 -0.00107664 -0.000929459)
(0.121048 0.000319433 -9.87104e-05)
(0.115957 -0.000760231 0.000722293)
(0.126027 -0.00174472 0.000513432)
(0.119262 -0.000158675 -0.000290341)
(0.123839 0.000268513 -0.00015579)
(0.123798 -0.000835226 -0.000680104)
(0.124032 1.16617e-05 -0.00107902)
(0.116798 -0.000449194 0.000321034)
(0.123591 0.000682486 0.000306943)
(0.12324 -0.000894725 -0.000253155)
(0.125234 0.000241791 0.000240277)
(0.123668 -0.000437993 5.76694e-07)
(0.126104 -5.46855e-05 -0.000414437)
(0.126431 -0.000444671 0.000282767)
(0.127578 -6.24754e-05 -0.000624885)
(0.126757 0.00043062 -0.000722785)
(0.126614 -0.000434042 -0.000959743)
(0.127502 -0.000518551 0.000230965)
(0.123684 -7.87355e-05 0.000551843)
(0.1225 0.000163195 -0.000279368)
(0.122302 -0.000774613 -0.000475479)
(0.127247 -0.000314548 0.000338372)
(0.126966 0.000357254 0.00013912)
(0.127369 -1.66701e-05 -0.000594903)
(0.126013 -0.000782143 -2.40307e-05)
(0.125067 -0.000137046 0.000134197)
(0.127902 -9.88006e-05 -0.000102115)
(0.124469 -0.000128674 0.000117372)
(0.119024 -0.00016896 -0.000293291)
(0.117918 -0.000854643 -0.000595625)
(0.12769 0.000391522 0.000652078)
(0.123808 -0.000556676 -0.000524613)
(0.123508 -0.00031229 -0.000408153)
(0.128507 0.000263756 0.00126854)
(0.127245 0.000358347 0.000315191)
(0.117299 -0.000373295 -0.000507346)
(0.117841 -0.000176342 -0.000751073)
(0.127024 -0.000371201 2.01833e-05)
(0.126864 0.000136167 -0.000257729)
(0.1186 -0.000286283 -0.000425463)
(0.119191 -0.00010676 0.000226324)
(0.127686 -0.000534985 0.000242014)
(0.121484 -4.76145e-05 -0.0013055)
(0.123965 -0.000290957 -6.23647e-05)
(0.124629 -0.000695955 -0.000903603)
(0.127387 -2.88794e-05 0.000115925)
(0.119769 0.000640133 -0.00130865)
(0.1294 1.72889e-05 -1.96788e-05)
(0.126444 -0.000520613 -0.000311553)
(0.119981 -0.00132437 -0.00025362)
(0.118316 -0.000745973 0.00109988)
(0.123356 -0.000413548 -6.42409e-05)
(0.128529 -0.000193674 -0.000483292)
(0.11678 0.000684829 -0.00013159)
(0.118857 0.000512393 -0.000975111)
(0.118421 -0.000462835 0.000225705)
(0.116833 -0.000959367 0.000299957)
(0.123351 0.000659792 -0.000332953)
(0.118514 0.000322364 0.000261812)
(0.128232 -0.000439854 1.91568e-05)
(0.127881 -0.000526419 0.000224144)
(0.118639 0.00028728 -0.000931671)
(0.120108 -0.001133 0.000148008)
(0.1231 0.00077287 -0.000528603)
(0.119141 -0.00018269 -0.000434771)
(0.124745 -0.000127027 0.000557384)
(0.128661 -0.000342923 -0.000190589)
(0.126331 -0.000829475 -0.000510475)
(0.124247 0.000613249 0.000255158)
(0.127154 0.000645188 0.000355364)
(0.124884 -0.00057817 -3.27407e-05)
(0.122786 -0.000635034 1.3392e-05)
(0.122885 0.000140835 -4.07304e-05)
(0.123624 -0.000569816 0.000729998)
(0.122099 -0.000102635 0.000262159)
(0.116152 0.00105766 -0.00079673)
(0.125836 -0.000289231 -5.83055e-05)
(0.128625 -0.000163882 -0.000224898)
(0.12412 0.00040559 0.000855964)
(0.127762 0.000142321 -0.000169268)
(0.119483 -0.000303068 8.9705e-05)
(0.116482 -0.000105408 0.000477891)
(0.128874 -0.000165072 -6.01424e-05)
(0.127486 -0.00021939 -0.000307039)
(0.124606 -0.000254533 0.000358869)
(0.123302 -0.000131291 0.000294768)
(0.123981 -0.000307631 -0.000462894)
(0.125078 -0.0003431 -0.000774131)
(0.124759 0.000802822 0.000415265)
(0.126951 0.000586512 -0.000468187)
(0.118962 -0.000215063 -0.0003607)
(0.123227 0.000123366 -0.000216546)
(0.128463 -0.000163462 0.000356617)
(0.126685 -0.000164744 0.00036625)
(0.126608 -6.03487e-05 0.000381205)
(0.123553 -0.00168447 -0.00110074)
(0.125027 -0.00061976 -0.000471735)
(0.121956 0.000145883 -0.000385725)
(0.123865 -0.000385863 -0.000481208)
(0.121999 0.000615151 -0.000747293)
(0.127721 0.000159719 -0.000843667)
(0.116839 -7.94357e-05 2.89217e-05)
(0.124015 -0.000110948 -0.000229196)
(0.123751 0.000309591 6.55191e-05)
(0.125123 0.00059247 -0.00105574)
(0.128161 -0.000278028 -0.000584273)
(0.127327 -0.000628533 -0.000429014)
(0.128457 -0.000291461 -0.000324284)
(0.118872 -0.00114779 -0.000373724)
(0.122394 -0.000962037 0.000469674)
(0.127176 -0.00287154 0.00234346)
(0.12783 -0.000248869 0.000386121)
(0.12653 1.56965e-05 0.000412867)
(0.124869 -0.000546454 -0.000659715)
(0.114736 -0.000499532 0.00059952)
(0.124849 0.000464873 -0.00142789)
(0.118898 -0.000921502 -0.000439429)
(0.121726 0.000292029 0.000124317)
(0.12791 -0.000305796 0.00023227)
(0.12263 1.91746e-05 0.000685088)
(0.117492 0.000459361 -0.000254782)
(0.124875 0.000480731 0.000249543)
(0.126966 0.000697975 -0.000284139)
(0.128574 -0.000701683 -2.90075e-05)
(0.117786 -0.000459553 -3.60001e-05)
(0.117238 -0.0007976 0.000486094)
(0.125722 -0.000164535 0.000407555)
(0.127788 -0.00015788 -0.000610668)
(0.118141 -0.000111141 0.000472412)
(0.127815 -0.00042288 0.000284266)
(0.122126 -0.000126473 -0.000619543)
(0.11917 -0.000541232 0.000203519)
(0.123064 0.000329184 -0.000439104)
(0.125983 -0.00037224 0.000109076)
(0.122111 -0.000754409 -0.00031705)
(0.121303 0.000218222 0.00101945)
(0.122824 0.000456564 0.0004831)
(0.125592 0.000263857 -0.000581412)
(0.122534 0.000353157 -0.000603149)
(0.121995 0.00112739 -0.00130569)
(0.116953 -0.000406275 0.000583704)
(0.122546 0.000113935 -0.000849428)
(0.123041 2.80986e-05 -0.000696163)
(0.120548 -3.10272e-05 3.67989e-05)
(0.122821 -0.00105925 0.000635165)
(0.127857 0.000343326 -0.000143349)
(0.127963 0.000511534 0.000248191)
(0.125094 0.000261844 -4.73536e-05)
(0.119355 0.000170435 5.7758e-05)
(0.127184 0.000372282 -0.000201887)
(0.12726 0.000275093 -0.000528617)
(0.12497 -0.000359199 -0.000270328)
(0.128923 0.00010268 0.000886831)
(0.128354 0.00016013 -0.00044637)
(0.126103 0.000128242 -0.000453208)
(0.128091 -0.000211872 4.06892e-05)
(0.122271 0.000436384 0.000349036)
(0.124732 -0.000395411 -0.000710786)
(0.117484 0.000171391 -0.00175238)
(0.123057 0.000295249 7.44617e-05)
(0.12732 -0.00129195 0.000502226)
(0.122262 -6.62278e-05 0.000480842)
(0.127692 0.000469538 -0.000200579)
(0.123684 0.000472041 -0.000669109)
(0.125562 -0.000267563 0.000179021)
(0.126259 0.000422539 0.000473626)
(0.128567 -6.4736e-05 -0.000746236)
(0.124547 0.000453221 -7.44244e-05)
(0.118416 0.00035485 4.19059e-05)
(0.124007 0.000316922 -0.000124441)
(0.120023 0.0018375 -0.000284306)
(0.127735 -0.000466195 -0.000998522)
(0.123738 -0.000467376 -0.000743726)
(0.127427 -0.000469646 0.000662476)
(0.125487 0.000450493 0.000106926)
(0.123249 -0.000264213 -0.000447132)
(0.116957 -0.000118544 -1.62515e-05)
(0.120252 -9.45057e-05 -0.000681433)
(0.118779 0.000409057 0.000164925)
(0.116855 -0.000360697 0.000134943)
(0.128013 -0.000338737 -0.000473064)
(0.117289 -0.000524731 -0.000709163)
(0.124371 -0.000425391 0.000329984)
(0.124484 0.000483168 -0.000273564)
(0.123995 7.39575e-05 -0.000198693)
(0.119339 -0.000240723 -0.000376982)
(0.127944 -0.000795518 -1.42909e-05)
(0.124114 0.000144485 -0.000863523)
(0.121435 0.000280804 0.000626966)
(0.127727 7.22348e-05 -0.000401831)
(0.126069 -0.000188922 -6.92814e-05)
(0.119961 0.000561302 0.000462963)
(0.122178 0.000205118 -8.1124e-06)
(0.119056 0.000225527 -9.93974e-05)
(0.124246 0.000259511 -0.000416135)
(0.12251 0.000410677 -0.000181085)
(0.118771 0.000387986 0.000992565)
(0.124462 -7.76243e-06 -0.000271093)
(0.122562 0.00107157 0.00086437)
(0.116289 1.27038e-05 -0.00138902)
(0.116255 0.000300114 0.000253532)
(0.126296 -0.000448927 0.000151758)
(0.12764 0.000102503 -8.64852e-05)
(0.128636 0.000403631 -0.00013783)
(0.117696 0.000654492 0.000666313)
(0.119517 -0.000178666 0.000676632)
(0.126797 0.000116772 0.000443346)
(0.120915 -0.000273323 -0.000342775)
(0.121516 0.000576429 -0.000927076)
(0.126549 0.000779022 0.000224379)
(0.127503 -0.000755063 -0.000114859)
(0.124622 -0.000698405 0.000207652)
(0.127682 -0.00110425 -0.000231765)
(0.128805 0.000199482 -0.000234076)
(0.118946 -0.000120146 -0.000459946)
(0.128146 -0.00149461 -6.7181e-05)
(0.115863 0.000114418 -0.000284097)
(0.117521 -0.000200285 -0.000220022)
(0.128005 -0.000482906 -0.000339506)
(0.127255 -0.000111782 -0.00032531)
(0.128126 -9.45529e-06 -0.00087724)
(0.128646 0.000363536 -0.00118261)
(0.127525 -0.000293663 -0.000912351)
(0.120012 0.00147241 -0.00059806)
(0.122005 -0.00110779 0.000746712)
(0.122812 -0.000253354 -0.000347221)
(0.12589 -0.00110732 0.000143324)
(0.128345 0.0010901 0.00104103)
(0.129068 -0.000989503 0.000394615)
(0.123704 0.000223769 -0.000250671)
(0.120936 -0.0011182 0.000341574)
(0.123643 0.000110159 -0.000327279)
(0.127385 -0.000210185 -0.000160527)
(0.12713 -0.000289151 -0.00107041)
(0.123115 0.000415596 -0.000349407)
(0.125733 -0.00021747 4.90221e-05)
(0.123047 0.000665265 -0.000739989)
(0.123501 -0.000481424 -0.00048623)
(0.125949 -0.000498165 0.000591901)
(0.121438 -0.00141995 0.00119757)
(0.11877 -6.30461e-05 -5.89509e-05)
(0.124722 0.000647153 0.000124181)
(0.126067 0.000103877 0.000711958)
(0.12319 0.000500482 -0.000233885)
(0.12629 0.00040585 0.000451395)
(0.127644 -0.000261242 0.000404069)
(0.123971 0.000115716 -0.00049797)
(0.119221 -5.90415e-05 -0.000578707)
(0.123252 0.00053328 -0.000391651)
(0.122365 0.000522481 0.000628778)
(0.117606 0.000191579 -0.000471404)
(0.127519 -0.000472511 0.000469821)
(0.11713 0.000689348 0.000341817)
(0.126572 -0.000228829 -0.00049553)
(0.12837 -0.000685909 -0.000431803)
(0.118166 -0.000431707 0.000209028)
(0.124194 0.000425647 9.81437e-05)
(0.122557 0.000482471 0.000458547)
(0.118125 -0.000406009 -3.58539e-05)
(0.12592 -0.000223305 -0.000359083)
(0.119638 9.36087e-05 1.98758e-05)
(0.124133 -4.76092e-06 0.000693033)
(0.128008 0.000199465 0.00010529)
(0.12624 0.000227366 8.61557e-05)
(0.117375 0.000391323 0.000156846)
(0.126662 0.000457656 8.30458e-05)
(0.119439 0.000191775 -0.00043408)
(0.126647 -4.48744e-06 2.18701e-05)
(0.126616 4.14628e-05 0.000369632)
(0.127095 -3.74402e-05 -0.000738034)
(0.128363 0.000172215 -0.00101532)
(0.118376 0.000224222 -0.000677001)
(0.126133 -0.000446197 8.14323e-05)
(0.117579 0.000104363 -0.000562482)
(0.122791 9.57003e-05 -0.000478785)
(0.118534 2.3291e-05 -0.00050623)
(0.129078 -9.20033e-05 -0.000686675)
(0.127434 -2.9225e-05 -0.000635813)
(0.12865 3.82432e-05 -3.59165e-06)
(0.127987 -0.000439594 -0.000620428)
(0.12555 -6.21871e-05 -0.000940257)
(0.128554 0.00159435 0.000901697)
(0.122871 0.000224704 -0.000166965)
(0.124775 0.0004425 -0.000266571)
(0.123841 0.00012015 -0.000409778)
(0.119335 0.000308287 0.000273677)
(0.127033 7.39446e-05 -0.000533126)
(0.124611 -0.000291796 -0.000150048)
(0.125092 4.96699e-05 -0.000402368)
(0.12719 0.000270724 0.000239298)
(0.126951 -0.000148367 -0.000364298)
(0.127749 -5.98804e-05 0.000316672)
(0.123761 -0.000760254 0.000105512)
(0.117931 -0.000228671 0.000706102)
(0.123449 0.000110374 9.35974e-05)
(0.126356 0.000116904 0.000538185)
(0.12536 -0.000158768 0.000123298)
(0.118429 -0.000675317 -0.000441105)
(0.127494 0.000160794 -0.000370886)
(0.127328 -0.000204454 -0.000934122)
(0.121434 0.00039792 -0.00034524)
(0.125763 -0.00013695 -0.000418172)
(0.126552 -0.000490733 -0.00123579)
(0.126607 -0.000436966 -0.000667584)
(0.126263 -0.000412213 -0.000164869)
(0.117971 -3.06066e-05 -4.13257e-05)
(0.125768 -0.000513788 0.000145441)
(0.125986 -0.000652411 0.000177947)
(0.116124 9.39983e-05 0.000189592)
(0.125545 -0.00115135 -2.06296e-05)
(0.125698 -0.00038932 -0.000110541)
(0.121383 3.20139e-05 0.000437262)
(0.116843 0.000115172 0.000304132)
(0.116509 -0.000565243 0.000636046)
(0.123201 -0.00109571 0.000291058)
(0.116348 0.000847723 -0.000748965)
(0.123958 -6.68276e-05 0.000402499)
(0.12462 3.05447e-05 -8.73033e-05)
(0.122365 0.00055751 0.000285446)
(0.126326 0.000374138 0.000231624)
(0.117472 -0.000463118 0.000151045)
(0.12563 0.000357129 0.000117001)
(0.128966 0.00025055 7.7682e-05)
(0.123076 -0.000116837 9.00187e-05)
(0.126363 -0.000178543 0.000596721)
(0.123747 0.000212494 5.87664e-05)
(0.127961 0.00113261 -3.10667e-05)
(0.124955 0.000457347 5.54807e-05)
(0.126254 -0.000666501 -0.00096072)
(0.128965 0.000113914 -0.00040767)
(0.123997 7.87741e-05 -0.000473379)
(0.11831 0.000316287 0.000139547)
(0.123328 3.05597e-05 -0.000137198)
(0.128401 0.000128393 -0.00130314)
(0.127281 0.000207397 -0.000881529)
(0.126471 -0.000331401 0.000803547)
(0.127841 -2.74536e-06 8.18702e-05)
(0.123489 -0.00076676 0.000699838)
(0.127132 -0.00023527 0.000272792)
(0.125931 0.000663244 0.000827993)
(0.127159 0.000785859 -1.60787e-05)
(0.126411 -4.43775e-05 -0.000454745)
(0.116705 -0.000403516 -0.000660932)
(0.1232 -0.000534754 0.000391384)
(0.115323 -0.000212443 0.000272802)
(0.123607 0.000753531 0.000938414)
(0.122034 -0.000108776 -0.000743843)
(0.118095 -0.000326564 0.000782839)
(0.117302 -0.000601434 -0.000167675)
(0.12475 0.000399326 -0.000230432)
(0.125653 -0.0004243 -0.000388958)
(0.127715 -9.91094e-06 -0.000558528)
(0.11899 -0.000278449 0.000794627)
(0.126742 0.000107929 -0.000145968)
(0.124478 -3.8084e-05 0.000341398)
(0.123617 -0.000197808 -0.000457671)
(0.125764 -2.97315e-05 -0.000709053)
(0.116177 -0.00138523 0.00139124)
(0.123595 -0.000121522 -0.000479464)
(0.117529 0.000124798 0.00033474)
(0.121697 -0.000535772 -0.000456265)
(0.126669 -7.86756e-05 3.02781e-05)
(0.129254 0.00136463 0.000303358)
(0.126742 0.000192015 -0.00115264)
(0.125271 0.000505153 -0.000684226)
(0.116343 0.000340524 0.00162903)
(0.126431 0.000125131 -4.13346e-05)
(0.125212 -0.000284911 -0.000575593)
(0.126841 -0.000234537 -0.000338506)
(0.117434 0.000228176 -9.54987e-05)
(0.119715 -0.000212147 0.000748907)
(0.12244 0.000473527 0.000687125)
(0.119818 0.000414976 -0.000156385)
(0.116034 -0.000822396 -0.000280485)
(0.126785 -0.000122253 -0.000412706)
(0.119405 -0.000186882 0.000202636)
(0.122619 0.000910492 3.7993e-05)
(0.117701 -0.000260111 -0.00105212)
(0.126271 0.000386832 5.04939e-05)
(0.118455 0.000228801 -0.000490237)
(0.12787 -0.000289616 0.000717299)
(0.126107 4.74585e-05 -0.000484277)
(0.127986 -6.43727e-05 0.000590809)
(0.127955 -0.000182799 -0.000527158)
(0.119062 -9.36197e-05 -0.000153868)
(0.127136 1.14612e-05 0.000226967)
(0.128498 -0.000365885 -2.3184e-05)
(0.125452 -0.000553906 0.00055073)
(0.126196 0.000560829 -0.000274467)
(0.125324 -0.000442162 -0.00025339)
(0.127737 0.000435006 -0.000137333)
(0.125534 -0.00108684 -0.000393094)
(0.122199 0.000314305 -0.000388185)
(0.129309 -0.000269891 4.66592e-06)
(0.128681 -0.000450892 -0.000501769)
(0.124262 -0.000359033 -0.000412333)
(0.123883 -0.00022115 -0.000741039)
(0.127728 -0.000388318 -0.000212507)
(0.124735 0.000494623 0.000103845)
(0.116198 0.000776502 -0.000162595)
(0.116671 0.000440522 -3.74006e-05)
(0.123821 1.55621e-05 -2.6045e-07)
(0.127557 -0.00136047 -0.00128572)
(0.128549 -0.000180066 -0.000249804)
(0.122188 -4.67644e-05 0.000711525)
(0.127352 0.000698012 0.000383681)
(0.123868 -0.002107 -0.00120282)
(0.127574 0.000859136 0.000734842)
(0.124385 4.19499e-05 -0.000190586)
(0.124994 0.000560765 -0.000570923)
(0.12589 -0.00163288 0.000292852)
(0.117816 7.63632e-05 -0.000261486)
(0.123876 0.000311855 -8.84123e-05)
(0.125417 0.00144017 -0.00103167)
(0.128058 -3.8614e-05 7.42371e-05)
(0.119495 7.24208e-05 0.000114197)
(0.12062 0.00071673 -0.000954201)
(0.121512 -6.35349e-05 -0.000349836)
(0.12184 -0.000126625 -0.000159949)
(0.123312 -0.000209637 -0.000556682)
(0.117517 -0.000133079 -0.00030641)
(0.127085 4.31901e-05 -0.000936926)
(0.122651 -0.000169695 -0.000185306)
(0.126513 0.000136784 0.00120382)
(0.123728 -0.000309849 -0.00012283)
(0.128443 -0.000273751 -0.000240867)
(0.124777 -0.00042612 -0.00101993)
(0.118254 0.000156849 0.000602577)
(0.126006 0.000636661 3.97768e-05)
(0.128846 -0.000459468 -0.00107414)
(0.118841 0.000463675 0.00128009)
(0.12767 -0.000243799 -0.000764064)
(0.129865 -0.000755125 -0.000802153)
(0.124493 -0.000129481 -0.000111928)
(0.122741 0.000202806 0.000267338)
(0.125559 0.00100482 -0.00144064)
(0.121791 -8.39044e-05 0.000137221)
(0.123947 -0.000509001 0.000141652)
(0.123632 0.000107283 0.000336317)
(0.118545 -0.000214672 -4.18299e-05)
(0.118845 -0.000207767 -0.0011453)
(0.12288 0.000174627 0.000550243)
(0.121951 0.000658291 0.000161218)
(0.127216 -0.00019723 -0.000274783)
(0.121894 -0.000575329 0.000298302)
(0.123792 0.000445632 0.000412673)
(0.128177 0.000284597 0.000472785)
(0.12255 0.000178948 4.55705e-06)
(0.117009 0.000189203 0.0004574)
(0.122041 0.000366247 0.000196103)
(0.124041 0.000438001 -0.000414891)
(0.128611 -0.00016873 0.000312309)
(0.117809 0.000782623 0.000348693)
(0.117321 -0.000125001 0.000339001)
(0.12825 0.000297428 0.000963347)
(0.117892 0.000315005 -9.00251e-05)
(0.125151 -8.90427e-06 -6.91593e-05)
(0.126961 0.000261279 -0.000554324)
(0.119482 -0.00013157 -0.000943709)
(0.123871 -7.49864e-05 -0.000579765)
(0.127849 0.00059246 -0.00100686)
(0.124061 -0.000240498 0.000603745)
(0.116229 0.000112894 0.000267197)
(0.127402 0.00030201 -0.000281938)
(0.124384 -0.000110722 -0.00015147)
(0.116525 0.000576187 0.000143993)
(0.127855 0.000335526 -0.000287852)
(0.12208 -0.00022484 -0.000398803)
(0.123664 0.000837032 -0.000398528)
(0.125998 2.17679e-05 -0.000222801)
(0.116593 0.000871159 -0.000457274)
(0.122926 -0.000154999 -0.0010726)
(0.123015 -0.000927365 0.000146784)
(0.124445 -0.000141789 -0.000520728)
(0.119169 -0.00105289 0.000190457)
(0.120819 -0.000692758 -0.000264826)
(0.125593 0.000378379 0.000571188)
(0.128547 -0.00107869 -0.000741454)
(0.130355 -0.00039434 -0.000243709)
(0.128697 0.000595249 -0.000514256)
(0.127629 -0.00068808 -0.000187461)
(0.126822 9.41167e-06 -0.00122035)
(0.121411 -0.000288624 0.00056944)
(0.129306 9.59769e-05 -0.00124943)
(0.126931 -3.22042e-05 8.33594e-05)
(0.125441 0.000464812 0.000192511)
(0.119809 0.000750037 -0.000451728)
(0.124631 -0.000145327 -0.000224628)
(0.126321 0.000575951 0.000634244)
(0.130139 0.000894601 -8.11321e-06)
(0.117596 -0.000234478 0.000365345)
(0.116168 -0.000281922 0.000453351)
(0.127739 0.000353604 -0.000669666)
(0.121909 6.63747e-05 -0.000262827)
(0.128257 0.000194002 -0.0002749)
(0.123087 0.000747901 -0.000723981)
(0.119594 -0.000497713 -0.00088373)
(0.125897 -0.00022623 -0.000947131)
(0.127466 0.000418542 6.29017e-05)
(0.125675 0.000238994 0.000123522)
(0.127128 0.00111091 -0.000343731)
(0.118349 -0.000147809 -0.0018881)
(0.127111 0.000845922 0.000157792)
(0.126965 -0.000513296 -0.000472738)
(0.116674 -0.000187941 -0.000297424)
(0.126348 -0.000232734 -0.000543763)
(0.12617 -0.000251759 4.99001e-05)
(0.123445 -0.000870902 0.00112513)
(0.118899 -0.000605905 -0.00104654)
(0.116761 0.000239703 -0.000954933)
(0.1238 0.000257556 -0.000241766)
(0.123359 -8.29688e-06 0.00103486)
(0.12433 -0.000187133 0.000250483)
(0.12335 0.000615501 0.000114946)
(0.122717 0.000526362 0.000845169)
(0.127289 8.41109e-05 0.00020976)
(0.124478 2.60863e-07 0.000347166)
(0.124616 0.000534157 0.000343808)
(0.119965 -0.000266708 0.000727169)
(0.128497 -5.78697e-05 -0.0010716)
(0.117895 -0.000227936 0.000101574)
(0.123907 0.000604918 -5.48476e-05)
(0.123273 0.000190438 -0.000181497)
(0.124083 -0.000688305 -0.00085344)
(0.126331 0.000618326 -0.000201391)
(0.122316 0.000151302 -0.000560135)
(0.118011 -0.00102551 -0.00051906)
(0.116977 -0.000274372 -0.000687939)
(0.11853 -0.00034787 -0.000408029)
(0.123717 -0.000568909 -0.000402108)
(0.126205 0.00075501 0.000236059)
(0.117991 0.000583299 0.00206283)
(0.127294 -0.000189432 3.77664e-05)
(0.124664 0.000385032 -0.00131276)
(0.127949 -0.000457361 -0.000370097)
(0.11737 0.000196474 -0.0007803)
(0.121717 0.000341803 0.000655972)
(0.126438 0.000300557 -0.00112291)
(0.12842 -0.00109741 -8.91981e-05)
(0.126281 0.000468889 -0.000411329)
(0.127474 -0.000203958 -0.000287021)
(0.124587 0.000218428 0.000143488)
(0.123656 0.000282932 0.00019194)
(0.128834 6.95438e-05 0.000134296)
(0.128516 0.000476385 -5.07931e-05)
(0.127936 0.000262249 9.68517e-06)
(0.120223 0.00107426 -0.000561907)
(0.128177 -0.00100339 -0.000737054)
(0.116886 -0.000214608 0.000376061)
(0.128208 0.000790616 0.000165318)
(0.124595 -9.97566e-05 -0.000130826)
(0.124195 0.000720591 -0.000811702)
(0.118219 0.00116732 -0.000152272)
(0.123809 0.00114264 -0.000935927)
(0.115682 -0.000577132 -0.00120726)
(0.127427 0.000612495 -0.000841907)
(0.12459 0.00030837 -0.000268674)
(0.127255 -0.000203205 -0.000343306)
(0.123435 0.000743463 -4.59798e-05)
(0.122266 0.00117111 -0.000391905)
(0.117955 -0.000368676 0.000867149)
(0.129169 0.000350775 -0.000129778)
(0.11948 -0.000619262 0.00043956)
(0.116045 -0.00029167 -0.000308506)
(0.11927 -0.000165758 -0.000246461)
(0.119511 0.000654608 0.000323588)
(0.11793 0.000654008 -8.25804e-05)
(0.123868 -0.000417955 0.000121012)
(0.118327 -2.22295e-06 -0.000161831)
(0.126244 -0.00132305 0.000720556)
(0.126683 5.48925e-05 -0.000416805)
(0.115893 -0.00016673 -0.000108117)
(0.126024 0.000123343 -0.000221186)
(0.118034 0.000123701 -0.000749694)
(0.123523 0.000512464 -0.000289797)
(0.124184 0.000236505 -0.000295474)
(0.124021 -0.000468888 -0.000987969)
(0.126945 0.00018541 9.88319e-06)
(0.128993 0.000410291 -0.000917169)
(0.12721 -6.44949e-05 0.000230402)
(0.126036 7.41846e-06 -2.22361e-06)
(0.125741 -0.000304356 -0.00117987)
(0.126418 0.000242745 9.85157e-05)
(0.123217 0.000496525 -0.000116561)
(0.123843 0.000543926 0.000293284)
(0.116651 0.000493275 -0.000926807)
(0.110913 -0.000551649 0.00317939)
(0.127468 9.52838e-05 -2.38018e-05)
(0.123739 9.09378e-05 -0.000224645)
(0.127001 -0.000331663 -0.000106338)
(0.126455 -0.000125144 0.00030923)
(0.117513 -0.000649272 -3.59857e-05)
(0.1276 -0.000141972 -0.000174944)
(0.127734 0.000602247 0.000183337)
(0.127579 2.76616e-05 0.000209753)
(0.127415 0.000506264 0.000618397)
(0.125531 0.000335541 0.000488975)
(0.124995 -0.000566522 -9.548e-05)
(0.127182 -0.000120674 0.000271117)
(0.128532 -0.000164189 0.000737673)
(0.125078 0.0002449 0.000339908)
(0.128078 0.000411471 -0.000297906)
(0.12767 -0.000447679 -0.000470634)
(0.120055 -0.000322053 -0.000516929)
(0.127457 -0.000100748 0.000313258)
(0.121017 -0.000313336 0.000505054)
(0.12488 0.000738472 -0.000239927)
(0.124007 -0.000977708 0.000160938)
(0.123565 -0.000555404 0.00039687)
(0.123325 0.000817959 0.000175688)
(0.12642 0.000389108 5.34982e-05)
(0.123944 -0.000273832 -0.000855659)
(0.124769 0.000527882 -0.000741238)
(0.123649 0.00128982 -0.000677239)
(0.117232 0.00158921 -0.00112481)
(0.12886 0.000602859 -0.000276003)
(0.126568 0.000715994 -0.000124365)
(0.123393 4.2406e-05 0.000915421)
(0.117788 -0.000195638 -3.31581e-06)
(0.126638 -0.000362471 -6.33602e-06)
(0.117594 -0.000595998 -0.000492548)
(0.127688 -0.000309219 0.000228902)
(0.127601 -8.58685e-05 0.000240979)
(0.122083 0.00133988 -0.000649645)
(0.124402 -0.00134156 -0.000439676)
(0.128253 0.000107015 -0.000398689)
(0.125027 -0.000507762 -0.000391851)
(0.1168 4.77187e-05 0.000298521)
(0.124108 0.00024674 0.000580981)
(0.120903 0.000447628 -0.000261541)
(0.123003 -0.00022058 -0.000956363)
(0.117498 -0.000557955 -0.000965109)
(0.126658 0.000114338 -0.000465111)
(0.126929 -0.000427697 0.000706526)
(0.12202 0.00123973 -0.00080869)
(0.123597 0.000191363 7.44414e-05)
(0.120831 0.000467142 -0.000744879)
(0.127111 2.53581e-05 -0.000438007)
(0.12351 -0.000792221 4.1765e-05)
(0.124228 0.00068174 0.000536695)
(0.117838 -0.000155343 0.000159155)
(0.127142 1.00716e-05 7.31898e-05)
(0.125538 -0.000374604 -0.000149266)
(0.127315 -9.07005e-05 -0.000212235)
(0.120836 0.000360761 -0.000270989)
(0.123431 -5.05775e-05 -0.000295963)
(0.124698 8.39689e-05 -0.000241578)
(0.122396 -0.000299353 0.000360722)
(0.12523 -8.03541e-05 0.000479085)
(0.125222 -0.000355485 0.000450305)
(0.126669 -0.000370768 0.000155155)
(0.123837 -0.000110057 -0.000109702)
(0.118472 -9.44283e-05 -0.000171684)
(0.11625 -0.000165345 -0.000793492)
(0.125309 -0.000790399 0.000258635)
(0.117141 0.000467106 -0.00148561)
(0.12219 -0.000737399 -0.0016168)
(0.123823 5.32987e-05 -0.000166624)
(0.124065 0.000283896 0.000152738)
(0.128372 0.000283478 -0.000451674)
(0.117061 0.000141341 0.000110867)
(0.122567 -0.000119845 -0.000701201)
(0.128924 0.000131666 -0.000465535)
(0.119177 0.000747965 -0.00297837)
(0.119294 0.00134463 8.66107e-05)
(0.123363 0.000443991 -0.000879734)
(0.118992 0.000322976 1.24352e-06)
(0.126099 0.00102645 -0.00118615)
(0.119561 -0.000520246 -1.72548e-05)
(0.128481 -0.00092673 -0.000543055)
(0.121432 -0.000335339 0.000219247)
(0.122968 0.000758792 0.000506987)
(0.129554 0.000536022 0.000979067)
(0.116332 -3.15543e-05 0.000633642)
(0.121446 5.34413e-05 0.000429128)
(0.121668 6.74376e-05 0.000678118)
(0.127296 -5.22852e-05 -0.000791176)
(0.127435 -2.82488e-05 0.000516804)
(0.127969 -4.72522e-06 -6.85793e-05)
(0.118166 0.000870778 0.000349821)
(0.126383 0.000166402 -0.000100471)
(0.127019 8.05684e-05 0.0010625)
(0.121997 0.0010172 -7.99662e-05)
(0.127304 0.000367723 -0.000120197)
(0.12698 0.00061948 0.000223545)
(0.126681 0.000405236 5.58483e-05)
(0.127868 0.00020914 -0.000639709)
(0.123566 0.000119617 -9.70799e-05)
(0.128677 -3.10586e-05 0.00052548)
(0.128522 0.00075229 0.000995309)
(0.127508 9.65627e-05 -0.000974743)
(0.125008 0.000424912 0.000322157)
(0.123061 -0.000232803 -0.000146685)
(0.123689 0.000499528 0.000201495)
(0.123415 0.000222468 -0.000238566)
(0.116284 -0.000968048 -0.00030366)
(0.122733 1.42089e-05 0.000335102)
(0.125316 -0.000330681 0.000215186)
(0.127187 -0.000419446 -0.000250086)
(0.128005 -0.000351532 -0.000694039)
(0.122849 -0.000550427 -0.000116321)
(0.128758 0.00119945 -0.000304765)
(0.126292 -0.000126951 -0.000111515)
(0.121967 -0.000667672 0.000403641)
(0.127476 -0.000278478 -0.000444009)
(0.127703 -3.78097e-05 -0.000213041)
(0.126546 0.000170295 -0.000683601)
(0.126351 0.000344162 -0.000107666)