/*--------------------------------*- C++ -*----------------------------------*\
| =========                 |                                                 |
| \\      /  F ield         | OpenFOAM: The Open Source CFD Toolbox           |
|  \\    /   O peration     | Version:  2212                                  |
|   \\  /    A nd           | Website:  www.openfoam.com                      |
|    \\/     M anipulation  |                                                 |
\*---------------------------------------------------------------------------*/
FoamFile
{
    version     2.0;
    format      ascii;
    arch        "LSB;label=32;scalar=64";
    class       surfaceVectorField;
    location    "0.068";
    object      Uf;
}
// * * * * * * * * * * * * * * * * * * * * * * * * * * * * * * * * * * * * * //

dimensions      [0 1 -1 0 0 0 0];

internalField   nonuniform List<vector> 
68568
(
(0.125766 0.000171952 -0.000110746)
(0.124896 0.000550036 -0.00025503)
(0.124526 0.000334996 -3.67257e-05)
(0.127556 0.000795677 -0.000419208)
(0.124776 -0.000527471 -0.000207592)
(0.124809 -0.000537215 -0.000501051)
(0.12328 -0.000552793 6.91539e-05)
(0.115788 -0.000313388 -0.00027162)
(0.126592 0.000412628 -2.59731e-06)
(0.126572 -0.000255033 0.000325419)
(0.125048 0.00114902 -0.000904502)
(0.119469 -0.000377507 -0.000427475)
(0.12915 -0.000198261 -0.000164771)
(0.127827 -0.000103597 -0.000493232)
(0.128808 -0.000165509 -0.000353876)
(0.129288 -0.000264171 -0.000376616)
(0.123002 -0.000224308 -0.000269834)
(0.126472 -0.000535486 -0.000304923)
(0.122225 -0.000255506 -0.000299155)
(0.126068 -0.000545403 -0.00037411)
(0.125506 -0.000295581 -5.55017e-05)
(0.123645 -0.000171485 0.000118656)
(0.125803 -0.000182103 0.000143575)
(0.117222 -0.000188248 -0.00034141)
(0.124896 -8.19434e-05 -0.00018193)
(0.119477 -0.000270259 0.000212886)
(0.121652 1.3583e-05 -0.000518056)
(0.125043 -0.000123658 -0.000249847)
(0.124625 0.000217837 0.000497565)
(0.1273 8.36506e-05 8.14612e-05)
(0.125834 -8.50441e-05 2.57075e-05)
(0.126348 -0.000162891 -0.000391298)
(0.124827 0.000163793 -0.000254847)
(0.124955 0.000402224 -0.000666116)
(0.127177 -0.000262825 -5.73331e-05)
(0.125406 -0.000671509 -0.000311814)
(0.127637 -0.00019194 -0.000541896)
(0.127847 -0.000624808 -0.000383095)
(0.128076 0.000490092 5.41454e-05)
(0.126416 0.000339686 -9.73645e-05)
(0.12796 0.000356484 -0.000173606)
(0.12344 -0.000115879 -0.000546662)
(0.128282 -0.00043548 -0.000775788)
(0.127797 -0.000611586 -0.00069946)
(0.124889 -0.00038737 0.000112353)
(0.123569 -0.000632621 -5.32513e-06)
(0.116263 -7.09041e-05 -0.00035036)
(0.127581 -0.000225864 -9.68139e-05)
(0.127369 -0.000179684 0.000340081)
(0.126343 -0.000272737 0.00026529)
(0.124183 -7.8473e-05 0.000218029)
(0.122324 -0.000425641 9.29253e-05)
(0.124396 -0.00034781 -4.87271e-05)
(0.123456 -0.000317166 4.88423e-05)
(0.116056 -0.000354167 2.51785e-05)
(0.125328 -0.000531877 0.000888476)
(0.119703 -0.000508162 0.000597833)
(0.121762 -0.000484362 0.000856623)
(0.125859 -0.000530319 0.000247964)
(0.124402 9.83186e-05 -0.000314968)
(0.125701 -0.000520569 -0.000408981)
(0.124974 0.000397794 -0.000369553)
(0.127488 0.000222935 -0.000963045)
(0.119414 0.000428148 0.000221223)
(0.119495 -0.000451376 0.000372145)
(0.124265 -7.06865e-05 -3.67787e-05)
(0.1248 -0.000153896 -0.000614048)
(0.121449 -0.000605077 -3.72964e-05)
(0.120197 -3.71501e-05 -0.000735441)
(0.125317 -0.00035013 -0.000343242)
(0.12448 1.04159e-05 -0.000243904)
(0.126413 -0.000331513 -0.000106427)
(0.125883 -0.000510234 -7.12726e-06)
(0.118894 -0.000110505 -0.000200375)
(0.118657 -0.000288517 -0.000374063)
(0.120745 4.40195e-05 -0.000320717)
(0.119139 0.000220827 -0.000355048)
(0.10622 -0.000228756 -0.000469284)
(0.126715 -0.000471158 -0.00058095)
(0.128449 -0.000218264 -0.000679379)
(0.127401 -0.000364647 -0.000669773)
(0.127944 -0.000395727 -0.000790331)
(0.127032 0.000309145 -0.000216154)
(0.127162 0.000456944 -9.75296e-05)
(0.124457 0.000445812 3.07207e-05)
(0.128057 0.000496451 -0.000225624)
(0.120734 0.000376255 -0.000345732)
(0.121212 -8.78701e-05 -0.000353879)
(0.124525 0.000170955 -0.000519813)
(0.124991 0.000102805 -0.000139566)
(0.118291 -8.86875e-05 3.09046e-05)
(0.123502 -0.000228615 -0.000159197)
(0.120519 0.000142669 -0.000596664)
(0.123503 -0.000256898 0.000247905)
(0.124176 -7.06331e-05 -5.0837e-05)
(0.12415 -0.000570107 0.000210885)
(0.12661 -0.000383514 0.000888051)
(0.124058 -0.00016893 -0.000406004)
(0.125821 -0.000234226 -0.000277415)
(0.118322 -0.000188751 0.000231605)
(0.126421 0.00177987 0.000407633)
(0.123643 0.00207562 -0.00042201)
(0.125965 0.0020411 0.000262685)
(0.12389 0.0016221 -0.000617606)
(0.125829 3.85008e-05 0.000467997)
(0.118521 0.000366141 -0.000362164)
(0.120734 0.00048642 0.000170551)
(0.127885 -8.37857e-05 0.000397992)
(0.126868 -0.00029608 0.000262997)
(0.128016 -0.000266605 0.000384646)
(0.128429 -0.000325586 -0.000154954)
(0.126113 -7.44188e-05 6.43659e-05)
(0.128635 -0.000267603 -0.000162489)
(0.125508 -0.000148421 -0.000156277)
(0.124184 0.00019082 -0.000240285)
(0.124003 0.000737977 -0.00080976)
(0.119722 0.000641 -0.000228343)
(0.119309 6.93425e-05 0.000321481)
(0.127284 0.000377031 -0.000454475)
(0.126439 -6.36612e-06 -0.00023901)
(0.127654 -3.2373e-07 -0.000439763)
(0.128039 -3.42168e-05 -0.000201818)
(0.120851 -0.000123978 -0.000221966)
(0.11946 -0.0002171 0.000164425)
(0.124895 -0.00018444 7.54617e-05)
(0.125177 3.36934e-05 0.00017204)
(0.121124 0.000496748 0.000822815)
(0.118499 0.000538077 0.000812481)
(0.118533 0.00042347 0.00038596)
(0.107372 0.000291537 0.000772512)
(0.127777 0.000439616 -5.84215e-06)
(0.118166 -0.00015575 -0.000149121)
(0.118533 -0.000652119 -0.000315775)
(0.115504 -0.000354808 6.86524e-05)
(0.10641 -0.000402117 -8.05851e-05)
(0.128303 -0.000514041 0.000270844)
(0.128343 -0.000653715 0.000150834)
(0.128592 -0.000253809 0.000447536)
(0.127783 -0.000706642 0.000242664)
(0.125626 -0.000239174 0.000345307)
(0.12576 -0.000354205 0.000602476)
(0.127611 -0.000409486 0.000651677)
(0.116881 0.000676986 -0.000617669)
(0.118344 -0.000377272 -0.000157141)
(0.107671 3.67095e-05 -0.00016178)
(0.12251 -0.000162681 -7.44453e-05)
(0.119317 -0.000130581 -0.000376722)
(0.107625 0.000102534 -0.00053349)
(0.120689 -0.000305503 1.92276e-05)
(0.1207 -0.000594164 -0.000211905)
(0.12192 -0.000549832 -0.000207705)
(0.106957 -0.000382517 5.01213e-05)
(0.12738 -0.000342706 0.000224414)
(0.12478 -0.000336344 0.000121562)
(0.126886 -0.000377734 -0.000635366)
(0.128069 -0.000877619 -0.000442869)
(0.126429 -0.000754671 -0.000903614)
(0.128378 -0.000510931 -0.000894453)
(0.127726 -0.000570988 0.000471948)
(0.127942 -0.000860816 0.000165854)
(0.127226 -0.000421231 0.000293726)
(0.128532 -0.00071898 -0.00018056)
(0.126731 -0.000801797 1.579e-05)
(0.12599 -0.000462216 -0.000294804)
(0.128404 -0.000325923 -0.000514469)
(0.123527 6.68572e-05 -0.000354615)
(0.121182 0.000721853 -0.000509577)
(0.114641 -1.70896e-05 -0.000410368)
(0.125608 0.000443987 -0.000427577)
(0.126 7.94458e-06 -0.000340098)
(0.122714 0.00029741 -0.000731012)
(0.121052 0.000161546 -0.000192784)
(0.123798 -0.000165324 0.00030436)
(0.123524 9.47685e-05 7.2543e-05)
(0.12615 8.28597e-05 -0.000270873)
(0.12479 -0.000155487 0.00014658)
(0.127724 -0.000133746 -0.000290207)
(0.125834 -0.000392195 -0.000605229)
(0.126134 -3.54077e-05 -0.000512421)
(0.128329 3.79835e-05 -0.000948873)
(0.128828 -0.000188218 -0.000449258)
(0.121286 -0.000451841 -0.00060259)
(0.118385 -2.18156e-05 -0.000293685)
(0.119406 -3.33634e-05 -0.000176725)
(0.105696 -4.95551e-05 -0.000404848)
(0.126423 0.000935463 0.000291129)
(0.125372 0.00074586 0.000340933)
(0.127218 0.00103238 0.000170987)
(0.12668 0.000744803 7.27561e-05)
(0.117901 -0.000636254 0.000103585)
(0.10739 -0.000227838 0.000422454)
(0.122199 -0.00024434 -0.00029221)
(0.1221 -0.000535554 -1.53158e-05)
(0.126074 -0.000321655 -0.000360143)
(0.126141 -0.000421225 -7.76653e-05)
(0.123228 -0.000991471 -0.000237326)
(0.123573 -0.000670391 -0.000643125)
(0.126636 -0.00151528 -0.000327138)
(0.120696 -0.000122867 -0.000672429)
(0.119067 -0.000103424 -0.000261581)
(0.120942 0.000159944 -1.65569e-06)
(0.106971 0.000380596 -0.000121094)
(0.126484 0.000138211 0.000534539)
(0.125889 -0.000264669 0.000155567)
(0.124498 -1.56444e-05 0.000480382)
(0.118989 -3.49105e-06 0.000405789)
(0.125946 -0.000238402 0.000226188)
(0.124322 9.6133e-05 0.000528823)
(0.125932 -8.06432e-05 -1.10736e-05)
(0.117621 0.000108335 0.000306982)
(0.118012 8.2167e-05 -0.000193723)
(0.11827 0.000577001 -0.000185601)
(0.107907 0.000256545 -0.000141014)
(0.124891 -0.00060905 -0.000572746)
(0.124514 -6.65444e-05 -0.000402545)
(0.124785 -0.000200313 -0.000209817)
(0.12722 0.000369562 -6.62717e-06)
(0.125535 0.000455627 1.26549e-05)
(0.128029 0.000152764 -0.000272898)
(0.126301 0.000210351 -0.000351131)
(0.124651 -0.000315511 -0.000408538)
(0.121274 -0.000396448 -0.000533065)
(0.121254 -0.00037747 -0.000290339)
(0.108001 -0.000420265 -0.000191083)
(0.125736 -0.000205515 -0.000203701)
(0.125799 -9.49732e-05 6.59534e-05)
(0.116624 -0.000120513 -0.00031839)
(0.124642 0.000388451 0.000321675)
(0.124934 0.000582996 0.000527726)
(0.126677 0.000652191 0.000585116)
(0.125069 0.000704751 0.000676581)
(0.128307 -0.000214494 -0.000632988)
(0.128691 -0.000249796 -0.000518484)
(0.12851 -0.00039721 -0.000463157)
(0.127936 -0.00031739 -0.000389348)
(0.123956 0.000136116 -0.00113943)
(0.12663 -1.54163e-05 -0.000957147)
(0.127405 -0.000491943 -0.000750346)
(0.124049 -0.000520743 1.21922e-05)
(0.125744 -0.000264572 3.96222e-05)
(0.123957 -0.000111462 0.000301492)
(0.117973 -1.08016e-05 -0.000253521)
(0.121046 -0.00106492 -0.000622102)
(0.121905 0.000317938 -0.000537408)
(0.10713 -0.000122443 -0.000469883)
(0.128176 0.000306589 8.668e-05)
(0.128634 0.000267181 -0.000315656)
(0.128243 4.21513e-05 -7.60913e-05)
(0.128915 7.19881e-05 -0.000503963)
(0.127106 0.000240035 0.00018539)
(0.124531 0.000289099 0.00032116)
(0.126053 9.7817e-05 0.000345745)
(0.126139 0.000153389 -8.49031e-06)
(0.121643 0.000552456 -0.00134639)
(0.120837 0.000539691 -0.000665552)
(0.122834 0.000417759 -0.000905388)
(0.110854 -0.000381908 -0.000938915)
(0.12492 -0.000260032 -0.000669145)
(0.125021 -0.00026297 -0.000886245)
(0.127576 -0.000309684 -0.000434812)
(0.127083 -0.000241413 -0.000615624)
(0.126539 -0.000327258 -0.000181719)
(0.124457 -0.000509887 -0.000370609)
(0.124515 -5.72969e-05 -3.86726e-05)
(0.118377 1.90611e-05 -0.000655279)
(0.126618 0.000929105 0.000507252)
(0.126237 0.000987173 0.000293035)
(0.125301 0.000835232 0.00016014)
(0.118776 0.000155391 -0.000693287)
(0.118043 0.000353152 -0.000381299)
(0.120095 0.00040075 -0.000577104)
(0.106257 0.000541599 -8.82679e-05)
(0.127138 -0.000652662 -8.70399e-05)
(0.126703 -0.000611606 0.000212606)
(0.128629 -0.000492196 9.04585e-05)
(0.12184 0.00112312 -0.000572926)
(0.125996 -3.74361e-05 -0.000429533)
(0.125242 0.000147311 -0.000425576)
(0.123933 -0.000386487 0.000579894)
(0.124472 -7.97193e-05 0.000318068)
(0.124935 -8.46246e-05 0.000443999)
(0.116811 -0.000210468 0.00039471)
(0.120973 -0.000304367 -0.000159693)
(0.126995 -0.000103765 0.000158517)
(0.124291 0.000134798 0.000150204)
(0.12694 0.000395194 -3.22879e-05)
(0.119087 0.000285931 -0.00038809)
(0.123908 -0.000166204 -0.000174783)
(0.124203 -0.000109412 -6.57852e-05)
(0.115319 -0.00025035 -0.000373174)
(0.116662 -0.000252519 0.000265411)
(0.116336 -0.000511152 0.000132009)
(0.107254 -0.000375079 0.000169154)
(0.128623 -0.000136952 0.000198489)
(0.12627 -0.00023168 -0.000116116)
(0.128486 -0.000468981 0.000200394)
(0.127449 -0.000629489 0.000265189)
(0.126933 -0.000520913 -0.000362179)
(0.126371 -3.75652e-05 -0.000204023)
(0.126144 -5.36798e-05 -0.000339212)
(0.117258 -0.000133857 2.46163e-06)
(0.123809 -0.000428436 -5.67655e-05)
(0.126206 -0.000446139 -9.52556e-05)
(0.126931 -0.000260947 -0.00016288)
(0.123717 -7.65182e-05 0.000194057)
(0.128378 -0.000377889 -0.000184373)
(0.125947 -0.000301116 -0.000330116)
(0.126117 -6.75066e-05 -1.33101e-05)
(0.128309 -0.000434949 -8.31019e-05)
(0.128366 -0.000100659 0.00021017)
(0.127871 -0.000384433 2.80273e-05)
(0.128784 -0.000330148 -0.000158987)
(0.126084 -0.000198372 -0.00026459)
(0.125734 -0.000320778 -0.000511629)
(0.12814 -0.000149595 -0.000633902)
(0.118345 0.00148084 -0.000995905)
(0.122454 3.25255e-05 -0.00145089)
(0.120927 0.000540626 -0.00091122)
(0.104367 -3.98847e-05 -0.000266019)
(0.126792 -0.000115067 -0.00029647)
(0.126678 -0.00023585 -0.00036594)
(0.128346 -0.000118398 -0.000588629)
(0.124822 -0.000346271 0.000217695)
(0.126893 -0.000268173 2.24464e-05)
(0.117239 -0.000117724 -0.000124813)
(0.121363 -0.000388236 -0.000187102)
(0.120863 -2.42966e-05 -0.000226318)
(0.125048 -0.000392223 0.000109109)
(0.124823 -0.00040723 -0.000415673)
(0.120157 -0.000409986 -0.00117787)
(0.120832 -0.000601697 -0.000251898)
(0.105848 -0.000368054 -0.000251662)
(0.121597 0.000650086 -0.00089877)
(0.12385 0.000466167 -0.00104455)
(0.115675 -0.000240518 -0.00050336)
(0.12024 -0.000662723 -0.000101819)
(0.124324 -0.00075467 -0.000192285)
(0.119804 -0.000489302 -0.000532858)
(0.124072 -0.000474151 -0.000276652)
(0.125772 0.000245899 0.000238259)
(0.125546 0.000707487 7.82794e-05)
(0.123089 0.00100676 0.000781358)
(0.118928 0.000451769 0.000534389)
(0.123266 0.000209978 -0.000341594)
(0.124359 -0.000110181 -0.000295881)
(0.126829 0.000178438 -0.000180778)
(0.127019 -0.000345406 -7.7446e-05)
(0.12646 -0.000319003 -1.09284e-05)
(0.117031 -0.000277098 7.17201e-06)
(0.123773 3.40371e-05 0.000493781)
(0.123134 0.000359268 0.000419077)
(0.124959 2.513e-05 0.000388092)
(0.11659 3.60995e-06 -8.64976e-05)
(0.119769 -0.00126481 7.16819e-05)
(0.120213 -0.000582558 -0.00012363)
(0.118976 -0.00140827 -0.000557673)
(0.106342 -0.000988554 9.43509e-05)
(0.125914 -0.000232967 -0.000721717)
(0.126362 0.00012841 -6.31366e-05)
(0.123295 0.000857164 -0.00117654)
(0.126298 9.56106e-05 -0.000891476)
(0.125344 0.000192049 0.000228042)
(0.124595 -0.000126035 -0.00116454)
(0.123785 0.000490886 -0.000995031)
(0.122 -0.000621475 -0.000414777)
(0.116372 -0.000116131 -0.000120691)
(0.11823 -1.20212e-05 -0.000226123)
(0.120509 -0.000413638 -0.000426274)
(0.119421 0.00018187 -0.000434805)
(0.106785 -4.89503e-05 6.27177e-05)
(0.121022 -2.74558e-05 -0.000325935)
(0.1061 4.86367e-06 -0.00033551)
(0.126257 -0.000491619 -5.54685e-05)
(0.12859 -0.000277406 0.000255246)
(0.128676 -0.000334589 -0.000157973)
(0.108447 -3.81467e-05 0.000284935)
(0.119207 -0.00079207 -0.000757629)
(0.120694 -0.00060518 -0.00027006)
(0.120095 -0.00110755 -0.000738424)
(0.105465 -0.000409518 -0.00109019)
(0.119081 0.000633658 -0.000279998)
(0.123341 0.000322391 -0.000125058)
(0.118341 -0.000769944 0.00076991)
(0.116826 -0.000387879 0.000343892)
(0.119172 -0.000164197 0.000765509)
(0.106527 -0.000667237 0.000318326)
(0.126823 -0.00147064 0.000486924)
(0.123783 -0.00153002 0.000787813)
(0.124313 -0.0014747 0.00062969)
(0.126622 -0.00143184 0.000287448)
(0.12273 -0.000518174 -0.000747037)
(0.121291 -0.000419435 -0.000252689)
(0.120125 -0.000197371 -0.000305)
(0.105955 0.00014387 -0.000391011)
(0.125685 0.000539578 -3.79897e-05)
(0.124355 0.000374263 -0.000112024)
(0.125152 -0.000316613 -2.99671e-06)
(0.118832 0.000298607 -0.000346138)
(0.121264 -0.000569577 -0.00047715)
(0.121253 -0.000572127 -0.000651866)
(0.124809 -0.000636673 -0.000602057)
(0.125687 -4.56857e-05 -0.000832267)
(0.125459 4.40719e-05 -0.000866986)
(0.123997 -7.7637e-05 -0.00091149)
(0.116292 0.000329019 -0.000952501)
(0.120143 -4.0337e-05 8.64876e-05)
(0.118048 -0.000396051 7.76951e-05)
(0.11917 -0.000601391 0.000480195)
(0.106281 -0.000416143 -8.34177e-05)
(0.125152 0.000783726 0.00187328)
(0.120994 0.000358909 -0.000203452)
(0.120836 -0.000332676 -3.27152e-05)
(0.125365 -0.000852896 -0.00013614)
(0.120955 -0.000546957 -6.3652e-05)
(0.125143 -0.000824041 0.000192173)
(0.125526 0.000286597 0.000391454)
(0.124695 0.000254444 0.000182279)
(0.125273 0.000225583 2.79967e-05)
(0.125523 4.1086e-05 0.000180891)
(0.125763 -0.000358791 -0.000123002)
(0.117798 -0.000350898 3.86437e-05)
(0.124651 -8.766e-05 -0.000573792)
(0.125446 0.000242963 -0.000727058)
(0.127022 0.000559083 -0.000329588)
(0.124097 -0.000174121 -0.000173292)
(0.124791 -0.000287335 0.00028338)
(0.126994 -0.000124265 7.91912e-05)
(0.12789 -0.000303802 3.98368e-05)
(0.125619 -0.000109729 -0.000615541)
(0.125489 -0.000100069 -0.000483482)
(0.128356 -7.6569e-05 -0.000608464)
(0.124509 0.000282925 -0.000512298)
(0.126752 0.00025343 -0.000372783)
(0.127247 -0.000375739 -0.000798314)
(0.122497 -0.000916731 -0.000270976)
(0.12811 -8.68213e-05 -0.000701491)
(0.125422 -0.00065079 0.000323208)
(0.127337 5.98074e-05 0.000562477)
(0.127134 -0.000187826 0.000257405)
(0.12736 -0.000425588 0.000281692)
(0.12499 4.66987e-05 0.000308704)
(0.125881 -0.000223704 0.000415841)
(0.11653 -6.46893e-05 0.00021471)
(0.119158 -0.000110034 -0.000636056)
(0.119199 -0.000412406 -0.000241479)
(0.120022 -0.000878377 -0.000455249)
(0.123986 -0.000804415 -0.000505955)
(0.124767 -0.000615132 -0.000523754)
(0.125234 -0.000452291 0.000371184)
(0.124959 -0.000359864 0.000127986)
(0.127894 -0.000308602 -0.00018774)
(0.12781 -0.000258082 0.000162919)
(0.126966 0.000225605 -7.32152e-05)
(0.125474 -5.76192e-05 -0.000169703)
(0.124858 0.000386909 0.000231655)
(0.126994 0.000570141 0.000317762)
(0.126208 0.000195869 -0.00045035)
(0.128047 -0.000219311 -0.000813822)
(0.126931 -7.71821e-05 -0.000339351)
(0.12789 -0.000364253 -0.000660151)
(0.126153 -0.000588135 -0.000101427)
(0.124797 -0.000515496 -3.90928e-05)
(0.123319 -0.00120156 0.000198416)
(0.126686 -0.000914034 7.24266e-05)
(0.126367 -0.000117948 0.00010135)
(0.122003 -0.000135899 -0.000355865)
(0.127271 -0.000205665 6.84201e-05)
(0.12189 0.00013963 -0.000767302)
(0.127546 3.64871e-05 2.49461e-05)
(0.128404 -0.000188988 -0.000426415)
(0.127057 -2.78748e-05 -0.000204912)
(0.126274 -8.86862e-05 0.000402507)
(0.116643 -2.63021e-05 -5.04519e-05)
(0.118386 -0.000259674 -0.000436728)
(0.107775 -0.0001257 -0.000258864)
(0.119151 -0.000783681 -0.001122)
(0.106125 -0.000308521 -0.000330767)
(0.128282 0.000211006 0.000779593)
(0.12574 0.000224866 0.000250429)
(0.124041 -0.000663648 -0.000486243)
(0.116594 -0.000410905 -0.000372457)
(0.125832 -0.000303981 -0.000809075)
(0.125483 -0.000265768 -0.000647594)
(0.123896 -0.000439588 -0.00027659)
(0.116121 -0.00043301 -0.000435024)
(0.127849 0.000262681 0.000792799)
(0.127886 9.68596e-05 0.000868426)
(0.128073 0.000177057 0.000714861)
(0.126869 0.000367913 0.000797519)
(0.125639 0.000591063 0.000369696)
(0.125879 0.000243365 0.000245569)
(0.127436 0.000285714 0.000299619)
(0.118088 -0.000267506 -0.000434328)
(0.120319 -7.78318e-05 -0.000204347)
(0.105657 -0.000369624 -0.000407512)
(0.121514 0.00015483 -0.000349051)
(0.119864 -0.000196156 -0.000229784)
(0.11918 0.000293981 -0.000312941)
(0.106928 -0.000102645 -0.00074716)
(0.127531 -0.000203567 0.000138564)
(0.125802 -0.000380044 -0.000409412)
(0.127515 -0.000526544 -0.000100017)
(0.124738 0.000307052 -0.000149517)
(0.126413 5.29779e-05 -0.000478642)
(0.119604 -0.000388249 -0.000478092)
(0.120517 -0.000185247 -0.0006163)
(0.106591 -0.000443297 -0.000372098)
(0.121434 -0.000399142 -0.000142591)
(0.118674 -0.000122167 2.66826e-05)
(0.118147 5.23674e-05 0.000314246)
(0.107841 -0.000106083 0.000176491)
(0.128472 -0.000792067 0.000312866)
(0.125981 -0.000432447 0.000634459)
(0.12585 -0.000528498 0.00023882)
(0.128219 -0.00054559 1.11047e-05)
(0.120818 -4.18776e-05 -0.00140526)
(0.120454 -1.2849e-05 -0.000927825)
(0.124178 -0.000262748 -0.000905638)
(0.106776 -0.000342949 -0.00123598)
(0.124157 -5.70806e-05 -5.87827e-05)
(0.124688 -0.000231096 3.84132e-05)
(0.125794 -5.71405e-05 0.000148876)
(0.117364 -0.000622324 7.46888e-05)
(0.121335 -0.000944914 -0.000454712)
(0.125521 -0.000549791 -0.00065293)
(0.125303 -0.000293732 -0.000888539)
(0.125929 -2.54219e-05 -8.64376e-05)
(0.127993 -9.4441e-05 0.000151447)
(0.126878 0.000195318 0.00045011)
(0.122425 0.000108512 -0.00127108)
(0.119424 0.000410663 -0.000920707)
(0.12169 0.000833551 -0.000895374)
(0.104969 -0.000496567 -0.000910045)
(0.129512 -6.7731e-05 7.52791e-05)
(0.129048 -0.000322756 -3.24198e-05)
(0.127399 7.70722e-05 -8.24138e-05)
(0.129175 3.63106e-05 -4.24427e-05)
(0.127194 -0.00031699 -0.000477711)
(0.123765 -0.000242689 -0.000340002)
(0.122974 -0.000205512 -0.000830446)
(0.126758 -0.000401954 -0.000241583)
(0.122293 -0.00105751 -0.00040655)
(0.122693 -0.00101111 -9.06381e-05)
(0.106627 -0.00029967 -0.000626127)
(0.120975 -0.000656179 0.000956338)
(0.119606 -0.000270668 0.00106505)
(0.121732 -0.000533617 0.00071806)
(0.105082 0.000170761 0.000128659)
(0.125042 -0.000353827 0.000100602)
(0.1189 -0.000300039 0.000121151)
(0.121701 -0.000278167 -0.000686072)
(0.12916 -0.000219135 -0.000206923)
(0.127171 -0.000191808 -0.000361003)
(0.119227 0.00056783 -6.76723e-05)
(0.118066 0.000445068 0.00021735)
(0.120618 0.000518958 -0.000338806)
(0.105296 -3.41229e-05 7.71955e-05)
(0.12202 -6.64366e-05 -0.000719433)
(0.121791 0.000561117 -0.00044977)
(0.106742 -0.000383595 -0.000821894)
(0.118867 -0.000178524 0.00039422)
(0.121837 -0.000130756 0.000329014)
(0.119275 -0.000625458 0.000204736)
(0.107628 -0.000355092 0.0001234)
(0.118831 -0.00101511 -0.000332416)
(0.121674 -0.00104576 0.000252151)
(0.119979 -0.000822855 -0.000242892)
(0.104759 -0.000170714 -0.000391139)
(0.122721 0.000880773 -0.000662703)
(0.124802 0.000436631 0.000152556)
(0.124787 0.00057196 -0.000362018)
(0.116617 0.000670853 -0.000307507)
(0.12018 0.000253722 0.00033907)
(0.119201 0.000299459 0.000471172)
(0.107579 -4.57387e-05 0.00039622)
(0.12786 -0.000155766 -0.000215838)
(0.127378 -5.42399e-05 -3.733e-05)
(0.128518 -0.000203822 -0.0003636)
(0.128263 0.000333852 -0.000740751)
(0.125643 -0.000383603 0.000224604)
(0.125937 -0.000294413 -2.20898e-05)
(0.12833 -0.000344488 0.000324555)
(0.128597 -0.00036728 0.000234697)
(0.117583 0.000154876 -0.00125775)
(0.117659 0.00014705 -0.000541557)
(0.120212 0.000263345 -0.000998689)
(0.108606 -0.000267328 -0.000631361)
(0.121429 -0.000575383 0.000494952)
(0.120938 -0.00158937 -0.000400263)
(0.121688 -0.000898071 0.000111204)
(0.11251 -0.000709445 -0.000328742)
(0.122822 0.000982094 2.5271e-05)
(0.125157 0.000675386 -0.000299978)
(0.125189 0.000637959 -0.000546941)
(0.117836 0.000239181 -0.000562288)
(0.121491 4.82769e-05 -0.000228499)
(0.118402 -0.00014823 -0.00029667)
(0.117673 -0.000539925 -0.000480099)
(0.107532 0.000118656 -0.000434297)
(0.126134 -8.36701e-05 0.000515688)
(0.118096 3.47792e-05 -6.04309e-05)
(0.12651 -0.000594052 -0.000422447)
(0.127845 -0.000221475 -0.000333862)
(0.126584 -0.000256718 -0.000222469)
(0.126589 -0.000279572 -0.000331931)
(0.124223 0.000420467 0.000115834)
(0.122838 0.000272282 0.000238864)
(0.117709 0.000387863 0.000308416)
(0.127392 0.000446845 -0.000146462)
(0.126117 0.000594984 0.00037748)
(0.126835 0.000544856 0.000159593)
(0.127018 0.000623738 0.000305395)
(0.126468 -0.000198886 -6.09817e-05)
(0.126527 -0.00055481 -0.000172352)
(0.117105 -0.000295034 -0.000132992)
(0.124407 -0.00043251 -9.19749e-05)
(0.122854 -0.000557928 0.000174672)
(0.124337 -0.000571488 0.00028005)
(0.114938 -0.000324261 -0.000194552)
(0.124317 -5.04822e-05 3.17057e-05)
(0.124765 0.000197515 0.000149378)
(0.116564 0.000164842 0.000337092)
(0.120216 -0.000432626 0.000653121)
(0.124715 -0.000500589 0.000310086)
(0.125116 -0.00073507 0.00063993)
(0.122157 -0.000106252 0.00033596)
(0.123871 -0.000280868 -4.10712e-05)
(0.124163 -0.000411646 0.000142508)
(0.116642 -0.000251585 0.000202571)
(0.120674 0.000292632 -0.00030579)
(0.117677 0.000140414 -0.000698902)
(0.106185 0.000795993 -0.000670952)
(0.126605 -0.000386089 -0.000122542)
(0.128319 -0.000500362 -9.664e-05)
(0.129026 0.000117713 -0.000184086)
(0.125183 0.000247063 0.000530413)
(0.126156 0.000191445 0.000650163)
(0.117794 -0.000150647 0.000903375)
(0.126943 0.000185429 5.61567e-05)
(0.127637 -0.000194698 7.56603e-05)
(0.12745 0.000151689 -0.000112011)
(0.127744 0.000167406 -8.66394e-05)
(0.121086 -0.000131882 -0.000102015)
(0.121988 -0.000169818 0.000216613)
(0.121172 -0.000411762 3.28147e-05)
(0.106102 7.77844e-05 0.000165272)
(0.118224 7.71498e-05 0.000438892)
(0.117966 -0.000148697 0.000485189)
(0.119605 -1.51912e-05 0.000674046)
(0.106162 -0.000226643 0.000421255)
(0.126446 -0.000223201 -0.000222964)
(0.127267 -4.11293e-05 0.000284693)
(0.128235 -0.000431323 5.67602e-06)
(0.127871 -3.81589e-05 0.000210352)
(0.126282 -0.00037044 -0.000360181)
(0.12761 0.000156489 -0.000502359)
(0.125808 0.000286813 -0.000318178)
(0.122939 -0.00025504 0.000654913)
(0.125351 -0.000291978 7.15558e-05)
(0.125003 -0.000115384 0.000115941)
(0.123544 -0.000186448 0.000794968)
(0.123212 -7.77898e-05 0.000186892)
(0.125371 -0.000429254 0.000114338)
(0.117057 -0.000131653 0.000335101)
(0.125909 -0.000480147 -0.000716121)
(0.126077 -0.000176288 -0.000679324)
(0.123433 -0.000270717 -0.000356438)
(0.116576 8.75919e-05 -0.000679686)
(0.125973 -0.000294182 -0.000869589)
(0.12156 -0.000359479 -0.000803909)
(0.125828 -6.38243e-05 -0.000746023)
(0.121242 0.000472713 0.00030205)
(0.125606 0.000641709 0.000456649)
(0.122498 0.000338425 0.000680207)
(0.126135 0.000430135 0.000216596)
(0.127548 0.000385714 -0.000557729)
(0.124145 0.000483342 -0.000535428)
(0.124902 7.57222e-05 -0.000795037)
(0.121471 -4.52467e-05 -5.69528e-05)
(0.1068 -0.000213152 -0.000371039)
(0.120447 -3.7014e-05 -7.28005e-05)
(0.124379 -0.00030368 -7.21462e-05)
(0.12819 9.30419e-05 0.000252638)
(0.127931 -0.000271666 0.000137434)
(0.127635 -2.62218e-05 0.000487212)
(0.12799 -0.000201315 0.000551091)
(0.126424 -0.000458271 0.000298986)
(0.126651 -0.000555901 0.000237803)
(0.12631 -0.000315468 0.000216032)
(0.126554 -0.000431007 0.000107005)
(0.127322 -0.000120789 0.000306662)
(0.12668 -0.000544446 0.000245715)
(0.125238 -0.000282177 0.000705185)
(0.122071 -0.00136101 -0.000311091)
(0.125176 -0.00157199 -0.000671386)
(0.124094 -0.000954504 -0.000781332)
(0.122175 -6.48415e-05 -0.000276596)
(0.121784 0.000415829 -0.000476579)
(0.116495 0.000151495 0.000371915)
(0.126281 -3.82046e-05 -0.000420611)
(0.117942 -0.000304592 -0.000310266)
(0.122309 0.000532809 -0.000589359)
(0.122569 0.000666536 -0.00085984)
(0.12402 0.000193148 -0.000656175)
(0.11599 -0.000162697 -0.000596306)
(0.12804 0.000279797 -0.000535024)
(0.126449 0.000406332 -0.00061464)
(0.126936 0.000222596 -0.000857996)
(0.106834 0.00015714 -0.000202184)
(0.123916 0.000138475 -0.000342038)
(0.117475 -0.000141497 -0.000223578)
(0.121493 0.000144352 3.29886e-05)
(0.124879 7.33082e-06 0.000365681)
(0.121012 7.16783e-05 -0.000164981)
(0.125162 0.000413331 0.000114572)
(0.125928 0.000327344 -0.00030305)
(0.125144 0.000113657 -0.000604899)
(0.121385 -0.000807531 -0.000941831)
(0.118282 -0.000594998 -0.005118)
(0.128317 -0.000241964 -0.000456373)
(0.1263 -0.000314445 -0.000627785)
(0.127781 -0.000401753 -0.00060562)
(0.126064 -0.00046943 -0.000375048)
(0.12567 -0.000695337 -0.000479896)
(0.127997 -0.000583609 -0.000285888)
(0.126997 -0.000593396 -0.00012256)
(0.127766 4.98556e-05 -0.000424229)
(0.128044 -0.000203387 -0.000263402)
(0.119826 -0.000783134 -0.000469379)
(0.121043 -0.000936432 -0.00046036)
(0.105769 3.02844e-05 -0.000461746)
(0.123955 -0.00105016 0.000282127)
(0.12477 -0.00121866 0.00079275)
(0.128622 -0.00112092 0.000817287)
(0.125132 -0.00177716 0.000962485)
(0.128891 -0.00176468 0.000831282)
(0.127227 -0.000119558 0.000345341)
(0.126997 5.00078e-06 -4.9068e-05)
(0.126223 0.00028353 0.000317095)
(0.122235 -0.000387388 -0.000587284)
(0.126825 -0.000466425 -0.000677973)
(0.115357 -1.37907e-05 6.06719e-05)
(0.117942 -0.000470234 0.000703113)
(0.117389 -0.000708122 0.000191249)
(0.103659 -0.000725461 0.000284712)
(0.127571 0.000287979 -0.00120457)
(0.125127 -9.93719e-05 2.83144e-05)
(0.118805 -0.0123404 0.00700282)
(0.118658 -0.0012861 -0.000500728)
(0.108017 -0.000802294 -0.000284591)
(0.123924 0.000287901 -0.000105586)
(0.124296 0.000415484 0.000313607)
(0.102875 0.000102835 -0.000268498)
(0.125832 -0.000237114 0.00026419)
(0.129029 -0.000274972 3.71063e-05)
(0.119441 -0.000473269 0.000548167)
(0.122725 0.000384321 0.000513333)
(0.123698 -0.000487868 0.000278609)
(0.120125 0.000577559 -0.000192945)
(0.120328 0.000240687 -0.000192337)
(0.120893 0.00051965 -0.00061427)
(0.105771 -1.11213e-06 -6.42802e-05)
(0.125168 0.00019424 0.000112612)
(0.124344 0.000330405 0.000125459)
(0.123784 0.000227584 0.00023143)
(0.126689 0.000938455 -0.000343845)
(0.127729 0.00102262 -0.000300186)
(0.124418 0.000230091 -0.000242233)
(0.125385 0.000215991 -0.000435817)
(0.127748 -0.000841038 -0.00014257)
(0.126933 -8.97483e-05 0.000276042)
(0.121118 -0.000631507 -2.18673e-05)
(0.120973 -0.000381822 -0.000210273)
(0.104756 -0.000454339 6.83863e-05)
(0.119613 -0.000932036 0.000470963)
(0.117963 -0.000614126 0.00093441)
(0.107313 -0.000575508 0.000373819)
(0.126867 -0.000469324 0.000417475)
(0.12482 2.16813e-05 0.000598054)
(0.126067 -0.000351578 0.000723652)
(0.124381 -0.000113893 5.23402e-07)
(0.127517 -3.44083e-06 -0.000631209)
(0.128309 -0.000132698 -0.000575853)
(0.125746 1.09644e-05 -0.000360793)
(0.120055 0.000536852 0.000153153)
(0.121126 -1.01211e-05 7.2125e-05)
(0.104468 0.000256821 -0.000622295)
(0.127599 -0.000301735 4.37824e-05)
(0.127606 -0.000386914 0.000426121)
(0.127588 -0.000131199 0.000280032)
(0.123743 -0.000195023 -0.000240063)
(0.1211 -8.40559e-05 -0.000601459)
(0.107766 -0.000195086 -0.00041783)
(0.118342 -0.000285399 0.000284091)
(0.118385 -0.000589249 6.80587e-05)
(0.107806 -0.000359289 -3.41574e-05)
(0.123461 0.000303305 -0.000510835)
(0.122994 0.000300497 -0.000339875)
(0.124882 0.000363599 -0.000213321)
(0.117079 -0.000239124 -0.000391663)
(0.124447 -0.000433329 -0.000359436)
(0.126488 -0.000654623 0.00011207)
(0.124054 -0.000282993 0.0005208)
(0.126013 -0.000485783 0.000103239)
(0.121885 -0.00108475 2.42678e-05)
(0.123809 -0.000763288 -0.000148047)
(0.124266 -0.000360768 -6.03532e-05)
(0.115535 -0.000678356 -0.000445134)
(0.118525 -0.000393582 0.000652581)
(0.123236 2.5626e-05 0.00061737)
(0.121801 0.000153982 0.000229265)