/*--------------------------------*- C++ -*----------------------------------*\
| =========                 |                                                 |
| \\      /  F ield         | OpenFOAM: The Open Source CFD Toolbox           |
|  \\    /   O peration     | Version:  2212                                  |
|   \\  /    A nd           | Website:  www.openfoam.com                      |
|    \\/     M anipulation  |                                                 |
\*---------------------------------------------------------------------------*/
FoamFile
{
    version     2.0;
    format      ascii;
    arch        "LSB;label=32;scalar=64";
    class       volScalarField;
    location    "0.048";
    object      epsilon;
}
// * * * * * * * * * * * * * * * * * * * * * * * * * * * * * * * * * * * * * //

dimensions      [0 2 -3 0 0 0 0];

internalField   nonuniform List<scalar> 
31639
(
0.338523
0.337932
0.339917
0.333426
0.346419
0.342972
0.352767
0.34115
0.341213
0.334086
0.337217
0.334602
0.335745
0.332864
0.337103
0.355248
0.340402
0.348636
0.349278
0.340645
0.370295
0.337481
0.333956
0.349523
0.35457
0.341824
0.33886
0.278351
0.350214
0.336212
0.33364
0.351312
0.332485
0.354476
0.366487
0.336021
0.372159
0.335371
0.334735
0.383239
0.361769
0.367902
0.332091
0.338712
0.339423
0.334302
0.339902
0.346251
0.339022
0.333924
0.334321
0.375663
0.336472
0.376903
0.347545
0.343116
0.371607
0.339497
0.337337
0.369508
0.341596
0.341296
0.358369
0.340025
0.339468
0.332876
0.3395
0.337635
0.364229
0.333423
0.334473
0.340494
0.333841
0.338095
0.336057
0.368547
0.333111
0.347608
0.337137
0.338559
0.354446
0.383849
0.333603
0.33735
0.332905
0.334046
0.333349
0.333395
0.360471
0.333355
0.337913
0.343572
0.366454
0.338193
0.353604
0.340143
0.34297
0.338115
0.337755
0.369188
0.335044
0.335143
0.3362
0.369913
0.367477
0.334249
0.371451
0.376869
0.355151
0.375595
0.33191
0.367965
0.341337
0.349304
0.336454
0.374664
0.349866
0.350055
0.340602
0.338573
0.339352
0.335213
0.334137
0.340668
0.34426
0.335935
0.339588
0.354249
0.35509
0.333041
0.332326
0.332315
0.332958
0.350744
0.337961
0.337112
0.367332
0.372202
0.334619
0.338312
0.338592
0.334622
0.334535
0.372223
0.379314
0.333482
0.337032
0.367377
0.365131
0.33441
0.362481
0.343892
0.34982
0.338882
0.367694
0.333679
0.343272
0.365173
0.363688
0.35119
0.33378
0.369563
0.36172
0.372233
0.372556
0.339085
0.36916
0.335122
0.334966
0.367709
0.339771
0.340492
0.367279
0.336417
0.333207
0.336604
0.33773
0.335629
0.336493
0.334747
0.338109
0.345634
0.336597
0.379847
0.344243
0.334368
0.33708
0.33483
0.371768
0.371783
0.340114
0.338804
0.339322
0.338917
0.338044
0.349059
0.351251
0.33337
0.368722
0.347468
0.335973
0.335399
0.332178
0.332401
0.346773
0.339208
0.339229
0.336733
0.336904
0.381448
0.339409
0.349058
0.338625
0.3372
0.344008
0.332672
0.365386
0.35305
0.339338
0.33589
0.333885
0.346325
0.369495
0.345584
0.37062
0.349189
0.336993
0.356575
0.367708
0.340522
0.338415
0.335076
0.363445
0.375114
0.339117
0.337905
0.367115
0.333085
0.362035
0.371248
0.338202
0.338744
0.33937
0.356977
0.360513
0.341469
0.336951
0.339457
0.365906
0.338329
0.337414
0.370161
0.357306
0.335599
0.337333
0.351257
0.366214
0.334156
0.335207
0.352249
0.333307
0.333776
0.343161
0.334342
0.339001
0.347288
0.36747
0.352475
0.33108
0.337185
0.325807
0.351424
0.346126
0.343104
0.333578
0.343458
0.369498
0.348286
0.358725
0.334435
0.347546
0.336414
0.334602
0.351109
0.36527
0.364906
0.365457
0.376946
0.333246
0.36177
0.340359
0.337678
0.350884
0.36293
0.336704
0.351044
0.363745
0.337447
0.346021
0.363565
0.339805
0.361341
0.338547
0.337911
0.368081
0.347848
0.338815
0.378306
0.375289
0.334359
0.333338
0.325125
0.370836
0.368064
0.334784
0.360056
0.354056
0.335595
0.338283
0.339936
0.335578
0.333391
0.366147
0.332151
0.376327
0.376822
0.338051
0.334859
0.333954
0.333752
0.338835
0.362365
0.336575
0.337667
0.33588
0.337738
0.333913
0.339092
0.338837
0.340497
0.333676
0.336999
0.339114
0.343069
0.337195
0.34505
0.337298
0.33691
0.367171
0.344249
0.333959
0.347862
0.338847
0.332193
0.338726
0.368506
0.338682
0.33894
0.371161
0.337694
0.364824
0.343774
0.329034
0.376597
0.338876
0.33977
0.367573
0.341872
0.365028
0.344437
0.337025
0.343083
0.376065
0.339583
0.364389
0.339707
0.334547
0.336703
0.338738
0.365689
0.33332
0.368882
0.338581
0.375662
0.33342
0.333118
0.333492
0.333126
0.351368
0.339685
0.338406
0.339599
0.338979
0.372208
0.343127
0.337003
0.335232
0.335469
0.342656
0.33791
0.345925
0.369136
0.348101
0.337923
0.334985
0.376743
0.334772
0.334413
0.340038
0.332817
0.333499
0.346487
0.333304
0.357272
0.33957
0.335662
0.374304
0.342457
0.338555
0.36553
0.368881
0.36844
0.35358
0.373405
0.340664
0.328939
0.353118
0.338934
0.367856
0.334231
0.333496
0.338995
0.337051
0.347071
0.336286
0.341395
0.349079
0.333192
0.337001
0.368743
0.338607
0.336128
0.333941
0.339458
0.334129
0.339228
0.338973
0.338148
0.335701
0.338748
0.366436
0.341143
0.378078
0.355794
0.338635
0.370676
0.379343
0.350083
0.337153
0.336364
0.368851
0.339121
0.355314
0.338031
0.339612
0.301023
0.338435
0.3776
0.338515
0.333611
0.334749
0.335064
0.347471
0.367153
0.340677
0.336525
0.333721
0.373829
0.370538
0.338898
0.370132
0.363547
0.340445
0.373955
0.347668
0.359256
0.341497
0.367365
0.333396
0.334809
0.334091
0.334223
0.362238
0.333677
0.334811
0.341549
0.338547
0.337288
0.332978
0.34039
0.353726
0.336307
0.333753
0.337583
0.351174
0.333944
0.338216
0.376631
0.378985
0.339693
0.338932
0.333365
0.342018
0.340533
0.342676
0.333881
0.339917
0.349905
0.343283
0.364817
0.339326
0.343673
0.335242
0.365371
0.359542
0.361447
0.340945
0.337833
0.375053
0.340131
0.354862
0.338691
0.344647
0.333649
0.34694
0.3678
0.336996
0.331987
0.361116
0.33604
0.329582
0.329156
0.339853
0.279276
0.36213
0.337963
0.338669
0.365627
0.3668
0.338636
0.338297
0.3389
0.362387
0.34686
0.334473
0.338789
0.366491
0.359861
0.338692
0.333963
0.370995
0.377352
0.336804
0.371229
0.337058
0.336135
0.370546
0.337225
0.340961
0.348724
0.376354
0.333693
0.349188
0.363457
0.332894
0.337131
0.340287
0.33486
0.375822
0.351132
0.342795
0.349474
0.365052
0.352362
0.343521
0.332435
0.335386
0.336685
0.333004
0.33581
0.355996
0.334097
0.337297
0.338216
0.359636
0.338275
0.343102
0.336389
0.366319
0.376457
0.333119
0.356883
0.333954
0.34081
0.365013
0.342741
0.334164
0.347867
0.340043
0.367204
0.334453
0.339133
0.377085
0.334605
0.335991
0.285549
0.367223
0.369501
0.351483
0.33749
0.339707
0.341136
0.337592
0.334929
0.339411
0.341014
0.368731
0.332655
0.375011
0.337809
0.348378
0.343593
0.333571
0.337636
0.358961
0.371393
0.372181
0.347237
0.33377
0.356663
0.333928
0.35099
0.333648
0.368302
0.339836
0.33702
0.333071
0.334588
0.332343
0.336833
0.34578
0.334945
0.335727
0.336326
0.360992
0.334499
0.365618
0.335451
0.346384
0.340437
0.364389
0.339799
0.37489
0.333816
0.34698
0.33691
0.340521
0.339679
0.363459
0.32277
0.369106
0.383663
0.368591
0.366708
0.366666
0.342371
0.376164
0.331519
0.342154
0.379459
0.336265
0.367944
0.349488
0.337891
0.34821
0.339691
0.332882
0.331508
0.336809
0.345074
0.335862
0.351132
0.34781
0.371285
0.319431
0.334537
0.339121
0.33831
0.334767
0.368864
0.335163
0.336394
0.334891
0.333807
0.334145
0.337394
0.334331
0.334284
0.341281
0.336356
0.336494
0.365035
0.335175
0.34969
0.340397
0.33748
0.336775
0.352604
0.336674
0.34152
0.340089
0.349338
0.368904
0.334007
0.342318
0.352967
0.371788
0.333985
0.370134
0.331065
0.340747
0.338974
0.341503
0.334338
0.33927
0.371321
0.337794
0.352043
0.344798
0.363171
0.333923
0.335077
0.341217
0.340384
0.33922
0.341152
0.351564
0.343521
0.374319
0.333216
0.340352
0.331531
0.363069
0.336827
0.336575
0.340285
0.354827
0.33779
0.333809
0.341023
0.371649
0.373485
0.33886
0.370889
0.357336
0.340881
0.338485
0.332189
0.372734
0.336877
0.333791
0.36242
0.367624
0.335553
0.363208
0.345146
0.36462
0.338005
0.357231
0.351865
0.335009
0.371931
0.339392
0.339423
0.334912
0.336781
0.332175
0.367903
0.333232
0.338485
0.351491
0.333643
0.336486
0.3412
0.329304
0.337151
0.337209
0.335269
0.336965
0.335372
0.347908
0.338912
0.337141
0.364511
0.337316
0.341352
0.334033
0.340267
0.342681
0.333735
0.336118
0.33615
0.339174
0.335003
0.33777
0.341076
0.367983
0.345652
0.333937
0.379599
0.344142
0.340446
0.349117
0.340886
0.333815
0.335948
0.332782
0.342095
0.338241
0.339806
0.338534
0.3385
0.350945
0.368361
0.335206
0.37313
0.342473
0.347596
0.341524
0.340425
0.33338
0.369929
0.336152
0.365169
0.337325
0.353665
0.339367
0.340061
0.333139
0.367733
0.33484
0.335127
0.342589
0.342204
0.343588
0.375861
0.334964
0.337097
0.337973
0.33247
0.333514
0.336667
0.347932
0.335656
0.361808
0.347535
0.334323
0.366767
0.359469
0.33773
0.333336
0.351988
0.347948
0.344337
0.353382
0.338797
0.357845
0.335775
0.33868
0.380458
0.342967
0.331574
0.340385
0.343214
0.336912
0.334351
0.364212
0.364802
0.333283
0.335227
0.335844
0.360596
0.335167
0.335082
0.362444
0.337052
0.334335
0.334441
0.34116
0.333992
0.342221
0.33517
0.335889
0.34897
0.366952
0.339439
0.337278
0.360564
0.333127
0.373494
0.340743
0.345083
0.368018
0.342214
0.349616
0.336163
0.344263
0.338504
0.372029
0.372769
0.346257
0.366797
0.339584
0.333527
0.339674
0.334507
0.351673
0.338487
0.33847
0.350171
0.347047
0.336659
0.339467
0.342409
0.366614
0.340509
0.337815
0.331837
0.334255
0.374887
0.368024
0.340303
0.333053
0.356793
0.341077
0.344996
0.337977
0.33665
0.345682
0.339102
0.343965
0.367371
0.334275
0.342807
0.365838
0.35522
0.337255
0.351207
0.336175
0.337136
0.345869
0.367195
0.333914
0.367445
0.343853
0.342419
0.358129
0.339693
0.371673
0.339639
0.33998
0.341528
0.377894
0.368049
0.331903
0.336261
0.350351
0.332919
0.340761
0.337707
0.371049
0.365262
0.342472
0.342699
0.340901
0.335961
0.332101
0.339148
0.332924
0.342109
0.344215
0.334233
0.373717
0.339479
0.335862
0.337821
0.341639
0.338366
0.350462
0.333429
0.341203
0.37486
0.33506
0.358638
0.334863
0.34894
0.332429
0.36881
0.335005
0.335121
0.34242
0.337816
0.373184
0.33304
0.335842
0.333589
0.368276
0.333215
0.343284
0.332122
0.338843
0.336982
0.335633
0.338859
0.35166
0.339277
0.368229
0.369169
0.369254
0.358036
0.338919
0.371937
0.334686
0.335173
0.342378
0.342188
0.340533
0.339616
0.335256
0.339782
0.350592
0.335436
0.344228
0.353827
0.332797
0.337302
0.340186
0.335589
0.352642
0.338354
0.336605
0.333076
0.337993
0.336753
0.352499
0.335902
0.34463
0.341727
0.338086
0.338443
0.332962
0.3382
0.335285
0.348293
0.340673
0.338936
0.367018
0.375717
0.335715
0.354444
0.340877
0.351517
0.370735
0.342494
0.336343
0.361086
0.350753
0.337829
0.33433
0.335053
0.339781
0.365077
0.33984
0.343903
0.349281
0.340827
0.340778
0.37677
0.355319
0.355074
0.34208
0.338774
0.340729
0.33885
0.341471
0.338765
0.342114
0.359598
0.354282
0.380641
0.343071
0.340268
0.338788
0.337665
0.335063
0.368871
0.33984
0.349347
0.342873
0.340205
0.334517
0.371745
0.333339
0.368061
0.337292
0.341715
0.345593
0.339148
0.346233
0.340887
0.360006
0.341739
0.348116
0.342857
0.349192
0.369287
0.332728
0.337352
0.341882
0.334572
0.336453
0.366735
0.352227
0.344034
0.363786
0.334311
0.33907
0.33406
0.332551
0.334099
0.367706
0.372065
0.365811
0.335366
0.374192
0.333937
0.339786
0.364088
0.349789
0.336027
0.336157
0.355171
0.351315
0.339621
0.33901
0.337677
0.342488
0.36123
0.33977
0.340179
0.338048
0.341446
0.334696
0.336496
0.334844
0.341712
0.369255
0.37369
0.340424
0.352859
0.340425
0.37674
0.337478
0.343495
0.333415
0.367814
0.34357
0.336247
0.341885
0.352839
0.368745
0.337098
0.35968
0.3414
0.34429
0.332584
0.333262
0.338806
0.375233
0.370976
0.340262
0.347054
0.350199
0.339346
0.373604
0.326549
0.335465
0.353364
0.335646
0.331659
0.337873
0.333628
0.336657
0.339814
0.339556
0.373446
0.349557
0.334876
0.369536
0.339179
0.341769
0.359715
0.337928
0.307211
0.339243
0.3344
0.335266
0.372991
0.340506
0.340443
0.369898
0.349289
0.339178
0.350933
0.338211
0.365553
0.366021
0.340712
0.349034
0.333196
0.335218
0.333472
0.336907
0.339089
0.337273
0.337251
0.3364
0.361965
0.338412
0.346031
0.335653
0.341672
0.352298
0.347666
0.338831
0.370425
0.342247
0.337254
0.343175
0.384726
0.342868
0.374121
0.339531
0.37821
0.337729
0.336727
0.341168
0.338027
0.362397
0.366336
0.336436
0.338771
0.341141
0.339702
0.351244
0.332674
0.337938
0.335251
0.368478
0.355126
0.335628
0.33535
0.345097
0.343125
0.36723
0.337856
0.334752
0.337276
0.338219
0.339006
0.338751
0.334476
0.336473
0.365569
0.3386
0.339116
0.338871
0.34161
0.340298
0.378342
0.3572
0.335433
0.339405
0.338149
0.338668
0.337019
0.333495
0.33966
0.341458
0.335182
0.334867
0.352092
0.348144
0.337877
0.338404
0.336129
0.374522
0.341474
0.368098
0.335021
0.369202
0.365859
0.336681
0.372838
0.353614
0.338727
0.333987
0.334547
0.351889
0.342767
0.335026
0.362489
0.366918
0.352628
0.355267
0.335132
0.339706
0.342051
0.372129
0.339453
0.334454
0.334343
0.366981
0.364641
0.342721
0.339663
0.340275
0.356322
0.367818
0.346721
0.352221
0.334528
0.336487
0.372457
0.340197
0.337772
0.364151
0.376566
0.33456
0.356547
0.358177
0.332275
0.339494
0.333183
0.335344
0.33587
0.350869
0.336094
0.352976
0.333543
0.35246
0.33535
0.337142
0.337817
0.364771
0.33195
0.330709
0.344513
0.339389
0.341717
0.360495
0.296459
0.339413
0.34819
0.333709
0.348436
0.329414
0.368661
0.335717
0.336674
0.372883
0.337747
0.341102
0.378929
0.366219
0.33884
0.337605
0.336265
0.351789
0.365736
0.334001
0.33772
0.33669
0.34073
0.332607
0.369708
0.336259
0.339744
0.367887
0.366598
0.384288
0.360293
0.332953
0.35125
0.340486
0.336467
0.351967
0.350444
0.374178
0.375347
0.336363
0.336346
0.366815
0.337525
0.342462
0.369045
0.342572
0.346918
0.36424
0.34565
0.331008
0.365068
0.37686
0.33328
0.336555
0.358462
0.338434
0.354565
0.359956
0.36734
0.3394
0.363853
0.371294
0.340302
0.331811
0.341921
0.342812
0.336727
0.341149
0.333124
0.287902
0.34061
0.365531
0.332702
0.338391
0.337617
0.350811
0.337126
0.361947
0.336044
0.339112
0.347473
0.370882
0.370212
0.378944
0.350661
0.368141
0.344997
0.361208
0.348074
0.33395
0.338962
0.348872
0.33878
0.34089
0.341334
0.333887
0.373275
0.340814
0.333772
0.33361
0.33869
0.334693
0.3597
0.342401
0.340234
0.369572
0.342388
0.332891
0.334668
0.329049
0.338045
0.342336
0.37627
0.368285
0.339277
0.334716
0.342453
0.333384
0.351955
0.347803
0.36231
0.37242
0.371596
0.376327
0.336478
0.338432
0.330826
0.33869
0.348737
0.337482
0.379648
0.335604
0.339666
0.336479
0.33852
0.341447
0.334648
0.33459
0.337402
0.299347
0.347258
0.337827
0.33558
0.33592
0.336917
0.339388
0.334446
0.336779
0.354429
0.336178
0.339593
0.334325
0.335451
0.371922
0.333405
0.336914
0.340089
0.332962
0.365732
0.377224
0.338981
0.337666
0.353027
0.334477
0.332872
0.332367
0.331254
0.350398
0.339519
0.341954
0.337133
0.376128
0.376509
0.342684
0.342778
0.363127
0.334349
0.366994
0.346185
0.339877
0.342199
0.349028
0.331759
0.343835
0.339872
0.339249
0.340605
0.337827
0.351019
0.376069
0.335402
0.382755
0.382714
0.300745
0.365028
0.37329
0.34494
0.340514
0.366229
0.35079
0.38154
0.365742
0.335931
0.338486
0.37177
0.372401
0.333867
0.371686
0.339674
0.336158
0.34693
0.334168
0.364414
0.367483
0.344744
0.337945
0.362653
0.366256
0.34696
0.353756
0.339388
0.338104
0.371216
0.336682
0.37171
0.374475
0.349465
0.339715
0.354305
0.349314
0.349628
0.334665
0.374982
0.363029
0.340594
0.328578
0.337088
0.375969
0.378726
0.34753
0.331892
0.337495
0.341207
0.344269
0.336482
0.336636
0.364216
0.333708
0.352695
0.365875
0.378182
0.332762
0.338166
0.335178
0.337621
0.335202
0.368755
0.347533
0.375032
0.387121
0.344001
0.36841
0.353396
0.338573
0.309774
0.367239
0.334368
0.335306
0.334004
0.339281
0.390377
0.337922
0.367794
0.336591
0.371185
0.33474
0.378696
0.340179
0.345879
0.354505
0.349458
0.37785
0.354878
0.337321
0.334969
0.338037
0.336897
0.336842
0.369788
0.335303
0.292561
0.338051
0.338668
0.336091
0.340901
0.324832
0.338549
0.347472
0.351505
0.351449
0.33601
0.336539
0.351359
0.357572
0.339954
0.345692
0.335776
0.33035
0.337915
0.345102
0.343824
0.332638
0.336894
0.334024
0.341385
0.337107
0.341262
0.315198
0.336973
0.351202
0.337709
0.341581
0.332314
0.363926
0.361007
0.339533
0.329055
0.332423
0.326127
0.334296
0.339618
0.337175
0.363191
0.353427
0.335004
0.336301
0.335266
0.333665
0.352488
0.332053
0.368257
0.33354
0.350059
0.337151
0.347588
0.339305
0.336604
0.334214
0.366303
0.335574
0.332783
0.345167
0.363072
0.335915
0.333872
0.335533
0.337903
0.337973
0.339963
0.367232
0.333059
0.350442
0.339723
0.355109
0.353052
0.363162
0.372099
0.351327
0.335617
0.341785
0.362113
0.345762
0.368701
0.343431
0.340882
0.377265
0.364954
0.355759
0.341914
0.339811
0.349174
0.313036
0.346829
0.307905
0.357891
0.332744
0.334148
0.336673
0.320524
0.341787
0.374392
0.362379
0.339208
0.354282
0.34875
0.335363
0.334846
0.339048
0.329381
0.372841
0.326286
0.334103
0.347677
0.332976
0.330493
0.339028
0.327331
0.335454
0.351608
0.363833
0.340687
0.372873
0.376487
0.347251
0.34122
0.343023
0.341562
0.339455
0.341303
0.378672
0.35025
0.332943
0.338205
0.372137
0.348679
0.356952
0.336291
0.333804
0.349524
0.338166
0.337431
0.338513
0.370382
0.334916
0.371308
0.331754
0.332544
0.335462
0.331399
0.337518
0.331686
0.366409
0.32881
0.333753
0.357112
0.335629
0.340449
0.349901
0.337272
0.345997
0.33528
0.335945
0.331241
0.338171
0.334273
0.341685
0.33361
0.363737
0.337835
0.369697
0.366208
0.34232
0.339346
0.338948
0.33702
0.324762
0.334734
0.370739
0.339132
0.334568
0.340312
0.332966
0.367538
0.374196
0.3392
0.37732
0.333259
0.338087
0.377741
0.344241
0.338738
0.343756
0.368984
0.358252
0.373812
0.336589
0.374678
0.337199
0.336474
0.375303
0.338841
0.336661
0.334662
0.33225
0.358156
0.335582
0.337119
0.36047
0.339134
0.334837
0.341862
0.363235
0.328771
0.342637
0.335333
0.350508
0.335459
0.346959
0.348729
0.351414
0.348602
0.325755
0.334659
0.335844
0.358448
0.339699
0.337674
0.332663
0.33947
0.379534
0.33208
0.359738
0.336159
0.333263
0.332548
0.350725
0.340064
0.338157
0.341424
0.335806
0.34506
0.367836
0.364541
0.340269
0.334518
0.312337
0.351374
0.334299
0.365102
0.337529
0.371066
0.336973
0.334969
0.336445
0.368679
0.334916
0.366758
0.338968
0.342072
0.355585
0.340991
0.359764
0.351978
0.339316
0.367821
0.353271
0.338052
0.380249
0.341962
0.336132
0.379044
0.352936
0.326152
0.344646
0.341297
0.3352
0.337197
0.330574
0.353079
0.371609
0.376026
0.280932
0.334139
0.323128
0.335081
0.336503
0.363825
0.363286
0.337813
0.340318
0.37432
0.338338
0.335512
0.352054
0.332302
0.339384
0.330847
0.361732
0.346291
0.337314
0.383307
0.331328
0.323618
0.33494
0.333872
0.33506
0.339891
0.371327
0.336426
0.342083
0.336568
0.333786
0.323603
0.330618
0.336321
0.342016
0.332246
0.339162
0.334958
0.366618
0.345665
0.333346
0.321057
0.336221
0.339741
0.343418
0.33566
0.366902
0.335203
0.365933
0.338606
0.338244
0.346364
0.339376
0.348545
0.345035
0.335318
0.346195
0.324415
0.315204
0.33611
0.372496
0.338815
0.337997
0.355254
0.333317
0.335629
0.332984
0.335106
0.37041
0.334776
0.33469
0.334003
0.344033
0.340521
0.374058
0.363334
0.329225
0.367307
0.335617
0.33677
0.361687
0.344227
0.331966
0.352777
0.355297
0.356535
0.349479
0.344061
0.32872
0.350732
0.333605
0.322929
0.336131
0.37186
0.335999
0.336184
0.331236
0.365225
0.355293
0.343043
0.278949
0.363246
0.337769
0.341629
0.336144
0.323386
0.334907
0.337752
0.345048
0.33533
0.343646
0.347088
0.345902
0.333281
0.334703
0.337802
0.328188
0.331051
0.360152
0.369583
0.343057
0.297381
0.341049
0.333069
0.33557
0.331228
0.336427
0.325126
0.33931
0.330696
0.361091
0.342421
0.347336
0.331409
0.334936
0.330483
0.33787
0.343189
0.346506
0.336367
0.340835
0.340524
0.336033
0.34239
0.352841
0.352509
0.363793
0.347533
0.338573
0.364867
0.335272
0.340023
0.333165
0.336517
0.335663
0.335675
0.325628
0.321106
0.340234
0.337971
0.332202
0.347683
0.372366
0.33622
0.347498
0.337258
0.339486
0.338538
0.334047
0.341039
0.373856
0.353011
0.369164
0.338355
0.341183
0.364237
0.336662
0.342436
0.349651
0.339645
0.356673
0.36284
0.333396
0.360881
0.365186
0.289988
0.300112
0.33353
0.358117
0.337386
0.335512
0.355492
0.336471
0.330974
0.325089
0.334469
0.370741
0.33406
0.292015
0.331008
0.3585
0.360085
0.331761
0.371391
0.351731
0.345216
0.334587
0.330007
0.331299
0.347631
0.34031
0.312276
0.34247
0.340571
0.33497
0.343897
0.36297
0.324488
0.338811
0.331535
0.28582
0.363599
0.337087
0.369958
0.366676
0.337732
0.334827
0.350236
0.346064
0.337402
0.330313
0.340091
0.307707
0.376007
0.332435
0.370648
0.337656
0.365575
0.339551
0.332972
0.334264
0.365057
0.347647
0.335179
0.335456
0.341809
0.330719
0.341697
0.337533
0.33875
0.364292
0.340108
0.353812
0.323476
0.327866
0.33267
0.34218
0.332137
0.345569
0.349197
0.367255
0.331418
0.331057
0.376862
0.335724
0.338792
0.340131
0.365675
0.33888
0.347735
0.343579
0.298612
0.35002
0.337789
0.383675
0.33807
0.373898
0.365056
0.34251
0.336256
0.375037
0.33822
0.336597
0.29391
0.376258
0.329631
0.333725
0.383649
0.340464
0.383635
0.376696
0.337198
0.335598
0.34396
0.325864
0.336621
0.337532
0.349853
0.322653
0.345621
0.341684
0.344953
0.328621
0.363214
0.315965
0.347741
0.349041
0.335381
0.330296
0.342038
0.33699
0.341782
0.330471
0.335993
0.343994
0.34224
0.334499
0.340951
0.33794
0.332654
0.337334
0.33916
0.310402
0.314801
0.329646
0.344814
0.352929
0.322306
0.326294
0.353798
0.3396
0.313867
0.365482
0.362135
0.329656
0.327256
0.341248
0.336301
0.335874
0.360302
0.338806
0.343203
0.360037
0.34803
0.368976
0.327576
0.33794
0.337519
0.332909
0.368127
0.342297
0.33755
0.335595
0.333419
0.285478
0.339454
0.338764
0.337367
0.322691
0.336387
0.2927
0.33107
0.332035
0.355189
0.377154
0.353075
0.328818
0.333981
0.358841
0.356611
0.335681
0.336961
0.339093
0.353712
0.380344
0.354706
0.354615
0.338829
0.341871
0.343258
0.336393
0.331938
0.305079
0.336174
0.332492
0.340701
0.350487
0.335781
0.319136
0.3643
0.350746
0.339411
0.305221
0.307556
0.337962
0.342552
0.330727
0.373679
0.340118
0.334939
0.323776
0.323306
0.325816
0.33297
0.336684
0.333408
0.337101
0.345664
0.328675
0.333619
0.334783
0.337041
0.330016
0.330196
0.364071
0.353521
0.373495
0.344233
0.313752
0.344953
0.363886
0.337773
0.35257
0.356304
0.344778
0.331599
0.339001
0.32469
0.337863
0.342099
0.329534
0.364854
0.331168
0.36056
0.33843
0.325421
0.340361
0.338632
0.332072
0.323972
0.35789
0.358762
0.348563
0.350795
0.343228
0.294416
0.336841
0.347087
0.330412
0.343467
0.351611
0.352359
0.296455
0.335011
0.339724
0.354252
0.365883
0.352741
0.327196
0.332395
0.361221
0.286919
0.33095
0.370373
0.334578
0.338193
0.335849
0.37065
0.334472
0.361395
0.356689
0.36437
0.329601
0.339544
0.343845
0.33722
0.338414
0.339227
0.36679
0.381301
0.337852
0.34162
0.339042
0.328614
0.363529
0.329896
0.34982
0.307329
0.339632
0.351899
0.35582
0.338597
0.330905
0.357953
0.362164
0.320134
0.324444
0.33143
0.348095
0.359942
0.366489
0.333609
0.34007
0.317434
0.328381
0.346641
0.337528
0.328945
0.315639
0.331722
0.330555
0.349071
0.338772
0.326311
0.332607
0.346899
0.309442
0.328573
0.324125
0.307319
0.328355
0.330131
0.345066
0.32527
0.332612
0.304869
0.335569
0.365489
0.334491
0.33302
0.351323
0.341041
0.317649
0.335218
0.310964
0.36539
0.364237
0.335346
0.289522
0.337065
0.370095
0.347065
0.336981
0.363701
0.33729
0.334011
0.376769
0.342875
0.333024
0.335446
0.336613
0.332065
0.331925
0.331912
0.331472
0.33336
0.340055
0.325636
0.339774
0.33185
0.324954
0.334109
0.336064
0.341604
0.315414
0.334234
0.335934
0.34072
0.350263
0.343332
0.37207
0.32911
0.340287
0.33627
0.335105
0.320068
0.340057
0.371162
0.338874
0.349734
0.353735
0.309808
0.365706
0.324102
0.341576
0.33569
0.336052
0.318116
0.366163
0.340038
0.321954
0.360322
0.326456
0.327494
0.300271
0.331087
0.351641
0.353113
0.318359
0.308028
0.312974
0.361519
0.338024
0.311964
0.332566
0.366868
0.342038
0.321019
0.329235
0.31286
0.337526
0.324319
0.343309
0.341205
0.323203
0.319413
0.353618
0.356412
0.33658
0.348919
0.371716
0.299726
0.333753
0.359663
0.346632
0.363916
0.334322
0.330302
0.336167
0.285984
0.335203
0.33771
0.338548
0.331458
0.337127
0.336528
0.325978
0.346835
0.341397
0.331987
0.340491
0.34966
0.349731
0.338998
0.303104
0.354848
0.308861
0.322055
0.330359
0.313077
0.335799
0.34017
0.337795
0.341397
0.334443
0.31501
0.312751
0.2811
0.339515
0.32643
0.348141
0.349024
0.366815
0.327282
0.335412
0.327083
0.317579
0.318469
0.318434
0.333217
0.349131
0.338268
0.337245
0.315721
0.366856
0.355991
0.366422
0.309668
0.33149
0.293465
0.281996
0.343027
0.305609
0.371972
0.338003
0.369498
0.361095
0.315993
0.357541
0.355268
0.31257
0.298099
0.334152
0.36933
0.334201
0.340425
0.336373
0.329607
0.328478
0.312446
0.314019
0.365538
0.350428
0.336846
0.345986
0.331918
0.345024
0.322223
0.346523
0.338129
0.342161
0.324863
0.279452
0.277087
0.31513
0.331922
0.328734
0.340088
0.317223
0.366968
0.336106
0.345394
0.314756
0.371456
0.324647
0.319039
0.344151
0.372308
0.310823
0.336671
0.28235
0.310825
0.290231
0.334404
0.364699
0.354586
0.326716
0.355179
0.319616
0.362293
0.289598
0.335092
0.347109
0.337175
0.305408
0.378226
0.308473
0.333174
0.303103
0.327696
0.337051
0.318326
0.378347
0.321243
0.341595
0.327034
0.333405
0.339051
0.313096
0.353585
0.369247
0.32519
0.370197
0.296418
0.369491
0.355208
0.316868
0.335241
0.335793
0.341635
0.305853
0.360361
0.332612
0.306219
0.328965
0.360867
0.326319
0.332608
0.295882
0.330879
0.34208
0.334486
0.32792
0.330763
0.333288
0.362213
0.333511
0.338564
0.355095
0.288443
0.318935
0.327855
0.347416
0.34
0.29942
0.330533
0.315218
0.314894
0.29048
0.276398
0.279355
0.339907
0.339898
0.340004
0.330919
0.352266
0.343679
0.337394
0.334228
0.307548
0.324166
0.336926
0.324137
0.335946
0.341931
0.367594
0.321508
0.336341
0.334767
0.317613
0.333636
0.33161
0.348558
0.314205
0.34073
0.319145
0.319624
0.313969
0.360038
0.306181
0.327415
0.310215
0.326227
0.304726
0.302296
0.324213
0.360594
0.303757
0.371703
0.346321
0.354427
0.292392
0.33848
0.322545
0.312698
0.321716
0.341755
0.33304
0.276964
0.32709
0.302626
0.337698
0.350953
0.342051
0.312292
0.338135
0.33518
0.330516
0.306148
0.314606
0.332392
0.326213
0.291719
0.287414
0.335821
0.297861
0.297382
0.314062
0.32092
0.335209
0.313864
0.303594
0.306984
0.337336
0.316687
0.301168
0.284692
0.329132
0.311263
0.349594
0.352615
0.335991
0.343413
0.318243
0.311229
0.309417
0.283952
0.282409
0.336712
0.348308
0.321857
0.338502
0.330879
0.330627
0.324176
0.29479
0.308796
0.364974
0.327675
0.350756
0.295819
0.339738
0.336825
0.361886
0.362056
0.320876
0.303451
0.305689
0.335907
0.328599
0.33732
0.336482
0.305456
0.302476
0.374401
0.305139
0.280515
0.301549
0.324285
0.309323
0.324645
0.305199
0.321401
0.323012
0.284622
0.355657
0.351667
0.319044
0.33115
0.308986
0.318879
0.333908
0.306506
0.365788
0.313588
0.327441
0.347594
0.311005
0.311772
0.337765
0.322311
0.314338
0.333688
0.344757
0.322765
0.332223
0.308261
0.319667
0.29856
0.314755
0.333103
0.321056
0.317982
0.326112
0.335712
0.30315
0.295361
0.294573
0.335959
0.35212
0.290516
0.326245
0.348469
0.331812
0.332462
0.360024
0.294014
0.314523
0.303915
0.300922
0.340653
0.34248
0.351437
0.350281
0.321288
0.325385
0.320322
0.331578
0.305756
0.30097
0.321611
0.293669
0.363661
0.314773
0.323221
0.307231
0.314648
0.355358
0.304228
0.293448
0.3082
0.299679
0.338616
0.330949
0.310982
0.289144
0.308079
0.293054
0.335301
0.344503
0.346022
0.337613
0.318401
0.341032
0.337518
0.363572
0.324373
0.335697
0.304405
0.33373
0.319173
0.30979
0.294833
0.36276
0.309807
0.333232
0.30712
0.331593
0.274062
0.285903
0.302063
0.329615
0.306607
0.299294
0.319623
0.33648
0.338148
0.315735
0.325535
0.344645
0.334689
0.333649
0.283171
0.307947
0.338229
0.300345
0.339572
0.305424
0.290455
0.332154
0.306965
0.319882
0.310578
0.305114
0.298994
0.295566
0.346908
0.342834
0.335809
0.316763
0.305128
0.307681
0.304666
0.325776
0.308552
0.332885
0.302267
0.333491
0.290748
0.341757
0.304706
0.302114
0.340547
0.335773
0.31297
0.321918
0.278215
0.304013
0.310051
0.291827
0.312262
0.33018
0.349711
0.33937
0.342784
0.320809
0.315345
0.30611
0.299991
0.317097
0.319593
0.359055
0.315823
0.32403
0.330899
0.298682
0.30917
0.356363
0.351514
0.366676
0.338899
0.276762
0.295242
0.367907
0.327729
0.303804
0.335511
0.357153
0.363149
0.312629
0.308418
0.3275
0.288078
0.275612
0.33465
0.280671
0.335357
0.305807
0.29265
0.318802
0.305105
0.33464
0.340687
0.287301
0.286059
0.323341
0.296269
0.310879
0.290199
0.301606
0.310938
0.337163
0.297077
0.318969
0.346402
0.320521
0.314393
0.297461
0.325508
0.316967
0.316524
0.296289
0.309827
0.323468
0.330811
0.310005
0.346813
0.3073
0.334413
0.283725
0.308693
0.29892
0.343367
0.31967
0.337572
0.357453
0.314457
0.338787
0.336985
0.319372
0.326228
0.296484
0.303926
0.323048
0.312088
0.33347
0.314747
0.29155
0.324065
0.304696
0.298468
0.281441
0.309627
0.311349
0.341236
0.288198
0.319465
0.332267
0.286182
0.294118
0.340722
0.295596
0.313379
0.310411
0.312752
0.277084
0.286322
0.308987
0.301067
0.319216
0.306406
0.316234
0.288402
0.322553
0.326116
0.308501
0.295069
0.315286
0.34376
0.314079
0.315376
0.33951
0.278403
0.284732
0.317183
0.274895
0.3555
0.323666
0.307379
0.321261
0.316119
0.291532
0.350406
0.335446
0.283286
0.338906
0.327462
0.309945
0.301998
0.300105
0.294457
0.306302
0.332089
0.353115
0.291959
0.317884
0.315529
0.293603
0.361842
0.298822
0.288831
0.284335
0.304621
0.307049
0.307367
0.318984
0.322351
0.323798
0.29879
0.300603
0.291565
0.342067
0.300722
0.274206
0.299592
0.298709
0.289693
0.32349
0.301229
0.331765
0.328155
0.318118
0.341686
0.316615
0.32603
0.318823
0.313896
0.351863
0.327467
0.295528
0.288763
0.320597
0.282633
0.273643
0.286101
0.326067
0.279439
0.277914
0.31166
0.328007
0.325394
0.330227
0.292906
0.281076
0.307624
0.305399
0.293355
0.332294
0.297872
0.335689
0.284489
0.277815
0.293571
0.291226
0.352617
0.305367
0.324014
0.322345
0.314999
0.307252
0.297744
0.325994
0.291673
0.302478
0.334059
0.293943
0.331105
0.278133
0.278207
0.314042
0.300967
0.304105
0.297857
0.318569
0.32437
0.35041
0.363918
0.3425
0.282122
0.27815
0.300087
0.305534
0.279207
0.276818
0.2866
0.291584
0.320794
0.337115
0.31577
0.313167
0.334013
0.276855
0.300636
0.304491
0.323081
0.325753
0.287384
0.308261
0.309121
0.327319
0.3405
0.296173
0.297155
0.331669
0.352182
0.334904
0.293991
0.334131
0.323519
0.32019
0.338806