/*--------------------------------*- C++ -*----------------------------------*\
| =========                 |                                                 |
| \\      /  F ield         | OpenFOAM: The Open Source CFD Toolbox           |
|  \\    /   O peration     | Version:  2212                                  |
|   \\  /    A nd           | Website:  www.openfoam.com                      |
|    \\/     M anipulation  |                                                 |
\*---------------------------------------------------------------------------*/
FoamFile
{
    version     2.0;
    format      ascii;
    arch        "LSB;label=32;scalar=64";
    class       volScalarField;
    location    "0.048";
    object      k;
}
// * * * * * * * * * * * * * * * * * * * * * * * * * * * * * * * * * * * * * //

dimensions      [0 2 -2 0 0 0 0];

internalField   nonuniform List<scalar> 
31639
(
0.0118553
0.0116279
0.0117751
0.0121794
0.0117581
0.0115493
0.0115717
0.0119471
0.0118181
0.0120157
0.0120039
0.0120003
0.0117072
0.0120751
0.0114596
0.0114003
0.0119256
0.011607
0.0113032
0.0117306
0.0107714
0.0120803
0.0120896
0.0113329
0.0112748
0.0117657
0.0116819
0.00978965
0.0115547
0.0121554
0.0120218
0.0114898
0.0120825
0.01128
0.0110441
0.0121256
0.0104999
0.0122811
0.0120768
0.0104422
0.0109533
0.0110139
0.0119427
0.0120534
0.0120251
0.0120294
0.011506
0.0115849
0.0119057
0.0121421
0.0120096
0.0104967
0.0121752
0.0107444
0.0114915
0.011849
0.0108236
0.0117209
0.0115892
0.0108183
0.0117345
0.0120514
0.0113472
0.0116684
0.0118171
0.0121548
0.0116854
0.0116865
0.01121
0.0121295
0.012041
0.0112346
0.0119082
0.0117125
0.0120831
0.0110693
0.0119633
0.0115882
0.0114622
0.0119369
0.0113157
0.0103798
0.0120781
0.0118051
0.0117733
0.0119879
0.0121076
0.0120582
0.0111208
0.012174
0.0117659
0.0118069
0.0108727
0.0115303
0.0111276
0.0115577
0.011578
0.0116899
0.0117416
0.0108672
0.0121184
0.0119822
0.011501
0.0107358
0.0108212
0.0120588
0.0107569
0.0106177
0.0111578
0.0107557
0.011878
0.0108981
0.0115856
0.0114553
0.0116804
0.0107112
0.0116772
0.0117133
0.0119551
0.0115993
0.0119992
0.0119793
0.0119378
0.0118103
0.0118039
0.0120892
0.0116949
0.0112111
0.0110659
0.0119119
0.0119953
0.0119434
0.0120162
0.0115697
0.0119862
0.0116787
0.0108194
0.0106466
0.0119529
0.0116916
0.0116773
0.0119927
0.0120239
0.0106736
0.0105263
0.0120846
0.0119345
0.0109566
0.0109145
0.0120028
0.011303
0.0119238
0.0113354
0.0119225
0.0111388
0.012148
0.0117184
0.0111501
0.0110611
0.0113351
0.0120586
0.0112039
0.0113164
0.0108035
0.010967
0.0115568
0.011105
0.0121631
0.0119907
0.0106827
0.011377
0.0113777
0.0110102
0.0116809
0.0121734
0.0119053
0.0117577
0.0121739
0.0117039
0.0116554
0.0114975
0.011599
0.0113812
0.010517
0.0118284
0.0122263
0.0115722
0.0121323
0.0109608
0.0109177
0.0124241
0.0119982
0.0119304
0.0116141
0.0117044
0.0115687
0.0115557
0.0119126
0.0107703
0.0115279
0.0120919
0.012206
0.0118688
0.0118424
0.0117494
0.0116163
0.0115563
0.0113905
0.0120487
0.0105392
0.0116332
0.0115923
0.0118602
0.0120225
0.012067
0.0120647
0.0110257
0.0113699
0.0120653
0.0119396
0.0118234
0.0116771
0.0107721
0.0116656
0.0108194
0.0116296
0.011975
0.011418
0.0109897
0.0119254
0.011835
0.0122165
0.011118
0.0109483
0.0118846
0.0119138
0.0107812
0.0120987
0.0113435
0.0107505
0.01151
0.0118735
0.0116469
0.0114709
0.0114169
0.0119661
0.0114793
0.011413
0.0109847
0.0115909
0.0114278
0.0110867
0.0114802
0.0121651
0.0119964
0.0114989
0.011072
0.0118981
0.0119113
0.0118659
0.0121553
0.0120389
0.0117847
0.0120568
0.0114924
0.0116413
0.0106304
0.0113003
0.0120056
0.0114146
0.0116396
0.0114634
0.0117814
0.0123214
0.0121752
0.0118591
0.0108802
0.011623
0.0112703
0.0120326
0.0116716
0.0121484
0.0121583
0.0115547
0.0109509
0.0113558
0.0110987
0.0108801
0.0120035
0.0111538
0.0120659
0.0115426
0.0114019
0.0110845
0.012271
0.0115122
0.0116225
0.0120755
0.0118295
0.0113941
0.0115796
0.011174
0.0116742
0.0115275
0.0110176
0.0114992
0.0114277
0.0103049
0.0106242
0.0120115
0.0120907
0.0116926
0.0107721
0.0111695
0.0119041
0.0111634
0.0110537
0.012108
0.0122819
0.0115169
0.0120304
0.0121251
0.0110354
0.0120095
0.0107344
0.0107822
0.0121423
0.0120079
0.0120286
0.0121576
0.0119698
0.0110878
0.0115936
0.0115509
0.0120956
0.0122396
0.0122235
0.0115604
0.0113905
0.0119349
0.0118932
0.0118009
0.0114755
0.0116105
0.0114758
0.0116922
0.0118516
0.0114968
0.0110313
0.011881
0.0121864
0.011512
0.012102
0.0120818
0.011619
0.0110237
0.0115994
0.0115875
0.0107599
0.0123006
0.0111677
0.0118393
0.0118706
0.0106789
0.0116512
0.0116257
0.0108592
0.0117578
0.0110782
0.0116932
0.0121645
0.0119413
0.0106208
0.0118027
0.0110906
0.0118196
0.0120265
0.0121212
0.0121
0.0111739
0.0119401
0.0107713
0.0114964
0.0107745
0.0120974
0.0119357
0.0120398
0.0119795
0.0111741
0.0122277
0.0116055
0.0119164
0.0115743
0.0113285
0.0116539
0.0118987
0.011826
0.011911
0.0117778
0.0119525
0.0116169
0.0110616
0.0117119
0.0118729
0.0118604
0.0106552
0.0120635
0.0120048
0.0116049
0.0117615
0.0118416
0.0118122
0.0121185
0.0106381
0.0118363
0.0120679
0.0106586
0.0117144
0.0118256
0.0111031
0.0108477
0.0108525
0.0115076
0.0108792
0.0115956
0.0113697
0.0114787
0.0121779
0.0109575
0.011963
0.0120926
0.0116428
0.0119868
0.0115185
0.0120877
0.0116365
0.0118604
0.0121548
0.0115927
0.0109194
0.0116745
0.0120824
0.0120034
0.0119332
0.0121064
0.0114907
0.0118039
0.0120098
0.0121926
0.0121201
0.0110446
0.0115867
0.0104787
0.0117774
0.0115301
0.0109893
0.010893
0.0114982
0.0119436
0.012004
0.0108676
0.0119401
0.0114346
0.0115845
0.0119849
0.00954617
0.0115442
0.0107799
0.0114493
0.0120167
0.0121776
0.0119311
0.01169
0.0106163
0.0119272
0.0116591
0.0118534
0.0108184
0.0110541
0.0115869
0.0109145
0.0110649
0.0117726
0.010775
0.011533
0.0106201
0.0119376
0.0109616
0.0121359
0.0119938
0.0119638
0.0120562
0.0114251
0.0119455
0.01205
0.0117495
0.0120191
0.0116643
0.0119528
0.012249
0.0114595
0.0120537
0.0120927
0.0115901
0.0112625
0.0121635
0.0116646
0.0106116
0.0107649
0.0116697
0.0121742
0.0120936
0.011635
0.0123596
0.0123143
0.0118801
0.0117355
0.0115969
0.0115311
0.0110732
0.011619
0.0118983
0.0121414
0.011349
0.0111951
0.0111553
0.0114374
0.0115511
0.0105176
0.011918
0.0114248
0.0118832
0.0116889
0.0119916
0.0116977
0.0110745
0.011832
0.0120598
0.0112368
0.0119976
0.0120685
0.0114005
0.0115909
0.00979779
0.0112027
0.0115998
0.0116651
0.0110974
0.0110187
0.0116867
0.0109417
0.0118936
0.0113539
0.0116002
0.0120464
0.011623
0.0107506
0.0114897
0.0116885
0.0120869
0.0109489
0.0104371
0.0120288
0.010821
0.0117348
0.0122287
0.0109973
0.0116106
0.0121218
0.0117724
0.010942
0.0120099
0.0117735
0.0108454
0.0119466
0.0117262
0.0115519
0.0118619
0.0106429
0.0113136
0.0118044
0.0115165
0.011669
0.0117882
0.0122384
0.0119779
0.0118386
0.012066
0.0120457
0.0119489
0.0112709
0.0119237
0.012119
0.0122449
0.0112175
0.0116913
0.0117733
0.0123843
0.0111193
0.0106002
0.0121009
0.0110938
0.0122635
0.0114843
0.0110127
0.0117514
0.0120272
0.0118827
0.0118507
0.0106648
0.0119024
0.0117059
0.0107227
0.0120983
0.0119998
0.00977944
0.0109845
0.011241
0.0115017
0.0117473
0.01172
0.0116346
0.011654
0.0120197
0.0116567
0.0116256
0.0110393
0.0121598
0.0108141
0.0116131
0.0116162
0.0113462
0.0121816
0.0116142
0.0112625
0.0107846
0.0110128
0.0115848
0.0120441
0.0111363
0.0121666
0.0117888
0.0119827
0.0110187
0.0114669
0.0119272
0.012185
0.0120911
0.0119046
0.0116694
0.0117277
0.012167
0.0121721
0.0120818
0.0113206
0.0120168
0.0110028
0.0121087
0.0119895
0.011609
0.0111429
0.011516
0.0103892
0.0120817
0.011843
0.0122497
0.0115755
0.0113209
0.0108983
0.0118109
0.0107797
0.0106411
0.0111215
0.0114451
0.0109925
0.0116376
0.0108978
0.0119021
0.0118668
0.01061
0.0121699
0.0111048
0.0112282
0.011446
0.0113903
0.0119487
0.0120937
0.0121679
0.0120446
0.0116552
0.0117013
0.0115545
0.0115332
0.0108057
0.00874229
0.0121278
0.0115439
0.0119455
0.0120137
0.010893
0.0120635
0.0121034
0.0119271
0.0119497
0.0118884
0.0117641
0.0121657
0.0122024
0.0117263
0.012031
0.0120258
0.0111375
0.0120392
0.0113998
0.0118709
0.0113388
0.0115533
0.0113111
0.0122374
0.0115671
0.0117025
0.0116779
0.0111629
0.0121723
0.0117957
0.0115012
0.0110912
0.0119007
0.0107108
0.0119925
0.0119644
0.011334
0.0121535
0.012239
0.0121313
0.0108481
0.0117047
0.011719
0.0117882
0.0110986
0.0119736
0.0120303
0.0114073
0.0116729
0.0113762
0.0119393
0.0114727
0.0115945
0.0107302
0.0119233
0.011828
0.0119316
0.0114459
0.011617
0.0117885
0.0116569
0.0114306
0.0118921
0.0119443
0.0115501
0.0107135
0.0107119
0.011568
0.0104932
0.01088
0.0117733
0.0117677
0.0119742
0.0106752
0.0115262
0.0120897
0.0111807
0.0107842
0.0116865
0.0110651
0.0119589
0.0112627
0.0120682
0.0113135
0.0114319
0.0121729
0.0106995
0.011439
0.0115183
0.0119875
0.0121363
0.0120544
0.0111437
0.011844
0.0121188
0.0114274
0.0121421
0.0120119
0.0118678
0.0119138
0.0116808
0.0122268
0.0122417
0.0122169
0.0118599
0.0114198
0.0118174
0.0116235
0.0107628
0.0114667
0.0119755
0.0120305
0.0122053
0.0116174
0.0121214
0.0120375
0.0113903
0.0120496
0.0120103
0.01188
0.0120361
0.01095
0.0114867
0.011915
0.0106265
0.0117386
0.011573
0.0116579
0.0115316
0.0121656
0.0119169
0.011988
0.0115404
0.0119285
0.0117119
0.0121148
0.0117446
0.0115891
0.0110753
0.0120378
0.0112241
0.0114998
0.0116712
0.0114824
0.011799
0.0121345
0.0110061
0.0121094
0.0110439
0.0117905
0.011584
0.011499
0.0115896
0.0120917
0.0108901
0.0118728
0.0120463
0.0121758
0.0117983
0.011708
0.0105114
0.0120029
0.0120158
0.0118255
0.0119001
0.0120115
0.0117264
0.0119917
0.011649
0.011124
0.011622
0.0121313
0.0107001
0.0111686
0.0123574
0.0119725
0.0113637
0.011562
0.0117839
0.0113355
0.0115749
0.0112043
0.0119938
0.0121533
0.0106106
0.0117917
0.0120518
0.0120598
0.012322
0.0114972
0.012016
0.0111576
0.0111301
0.0121058
0.0120089
0.0116088
0.0111475
0.0119624
0.0120055
0.0113622
0.0121463
0.0120423
0.0120705
0.0118982
0.0119668
0.0117917
0.0117443
0.0115104
0.0113735
0.010861
0.0117596
0.0116987
0.0110977
0.012062
0.0108361
0.0114775
0.0116336
0.0110456
0.0115783
0.0114408
0.011789
0.01173
0.0120173
0.0110276
0.0110368
0.0115546
0.0108962
0.0113441
0.012001
0.0115653
0.0120493
0.0118387
0.0115542
0.0121554
0.01147
0.0118199
0.0115463
0.0115627
0.0118328
0.0111823
0.0117043
0.0119797
0.0120781
0.0121907
0.0110835
0.0108726
0.0116702
0.0120221
0.0111542
0.0114586
0.0119783
0.0115887
0.0123687
0.0116023
0.0114849
0.0120216
0.0109587
0.0120233
0.0122623
0.0110959
0.0113529
0.0115896
0.0114832
0.0121696
0.0121651
0.0119721
0.011195
0.0119792
0.0109281
0.0115445
0.0121198
0.0115297
0.0123511
0.0107075
0.0116734
0.0118643
0.0117429
0.0108274
0.0108363
0.011975
0.0121695
0.0114961
0.0121222
0.0118701
0.0116004
0.0109839
0.0113481
0.0118622
0.011646
0.0116494
0.0122051
0.0120713
0.012309
0.0121231
0.011851
0.011855
0.0119027
0.0111686
0.0120704
0.011877
0.0117465
0.0118196
0.0121797
0.0116713
0.0121207
0.0115394
0.0105766
0.0122234
0.011409
0.0120254
0.0114135
0.0120182
0.0111804
0.011871
0.012283
0.0116133
0.0116486
0.0108318
0.0119436
0.0120511
0.0117833
0.0109098
0.0123238
0.0116437
0.0117463
0.0121081
0.012098
0.0119682
0.0115862
0.0117668
0.0123032
0.0111656
0.0112533
0.0110959
0.0112715
0.0117841
0.0108697
0.0121527
0.0120687
0.0123116
0.0115329
0.0115278
0.0116956
0.0119997
0.0116985
0.0118201
0.0120945
0.0122045
0.0117768
0.01203
0.0117388
0.0114854
0.0118327
0.0114365
0.0121954
0.0121402
0.0121821
0.0122707
0.0120545
0.0113699
0.0122748
0.0118095
0.0117671
0.01149
0.0118188
0.0121422
0.0116307
0.011982
0.0115211
0.0116659
0.0118908
0.0112325
0.010904
0.0114918
0.0116321
0.0122145
0.0114058
0.0108406
0.0118126
0.0120326
0.0113525
0.0114202
0.0116925
0.0121591
0.0120436
0.0115038
0.0114568
0.0116813
0.0120859
0.0114779
0.0116824
0.0117099
0.0108536
0.0115284
0.0115599
0.0119532
0.0120507
0.0116579
0.0121118
0.0119707
0.0116251
0.0117399
0.0109837
0.0112139
0.0108804
0.0121564
0.0118273
0.0122521
0.0125234
0.0118926
0.0108556
0.0120578
0.0115015
0.0119006
0.0118753
0.0119908
0.0109014
0.0121364
0.0110558
0.0117027
0.0117316
0.0116901
0.0123488
0.0115881
0.0119697
0.0111636
0.0115696
0.0117146
0.0121327
0.0113041
0.0113945
0.0118925
0.0120222
0.0119334
0.0119072
0.0121339
0.0111024
0.01174
0.0115611
0.0113762
0.0119443
0.0122355
0.0121664
0.0120051
0.0122297
0.0111131
0.0110785
0.011131
0.0121588
0.0109092
0.0119867
0.0118598
0.0110091
0.0114823
0.0119811
0.0121057
0.0113474
0.0114569
0.0114293
0.011762
0.0122002
0.0116918
0.0110385
0.0117292
0.0122929
0.0120547
0.0123241
0.0121501
0.0124295
0.0121826
0.0121154
0.0112336
0.0108927
0.0117236
0.0113536
0.012204
0.0110824
0.0118087
0.0116199
0.0121938
0.0112731
0.0119962
0.0119598
0.0118535
0.0116326
0.0110551
0.0120728
0.0115155
0.0122935
0.0117119
0.0122312
0.0121711
0.0117274
0.0109016
0.0110198
0.0115775
0.0119468
0.0113611
0.0124013
0.011153
0.0119681
0.0119278
0.0114992
0.011862
0.0119632
0.0121608
0.0121376
0.0121497
0.0117794
0.0118474
0.0108686
0.0113985
0.0121891
0.0112431
0.0119348
0.0115896
0.0111217
0.0116045
0.0113358
0.0116015
0.0118749
0.0120066
0.0111648
0.0115723
0.011746
0.0110909
0.0113974
0.0116139
0.0117364
0.0119372
0.0110639
0.0110252
0.0116404
0.0115503
0.012201
0.0123014
0.0121405
0.011409
0.0115085
0.0117549
0.0113632
0.0120221
0.0109947
0.0116888
0.0116598
0.0122232
0.012033
0.0117366
0.0118458
0.0121454
0.0110664
0.0118006
0.0122016
0.0114528
0.0103937
0.0116864
0.0111674
0.0117935
0.0107884
0.0121563
0.0122894
0.012194
0.0117479
0.0110161
0.0109949
0.0120538
0.0121977
0.0121717
0.0117761
0.0118078
0.0118838
0.0122029
0.0120327
0.0107845
0.0117255
0.0118633
0.0118528
0.0114378
0.0119092
0.0107506
0.0122053
0.0120472
0.0117075
0.0117758
0.011926
0.0116439
0.0122137
0.0119141
0.0111549
0.0115727
0.0120212
0.01153
0.0117171
0.0118937
0.0108136
0.0110982
0.0121457
0.0122698
0.0120998
0.0122754
0.0118815
0.0120569
0.011824
0.011786
0.011852
0.0120767
0.0114702
0.0116936
0.0113697
0.0116508
0.0120471
0.0106943
0.0117907
0.0108167
0.012056
0.0108562
0.0108215
0.0115483
0.0107158
0.0118597
0.0118247
0.0120385
0.012078
0.0114239
0.0112782
0.0122878
0.0114686
0.0111297
0.0117601
0.011317
0.0121514
0.0119304
0.0118138
0.0111169
0.0120534
0.0120004
0.0121449
0.0108991
0.0114115
0.0118033
0.011968
0.0123596
0.0110188
0.0109453
0.0120987
0.011903
0.0121904
0.011679
0.0106831
0.0118969
0.0120501
0.0109117
0.0107859
0.0120849
0.0111169
0.0111222
0.012075
0.0122716
0.0119396
0.01235
0.0115981
0.0115713
0.0121383
0.0113138
0.0121185
0.0114476
0.011769
0.0120818
0.011558
0.0109156
0.0119722
0.0119991
0.0114708
0.0116248
0.0117271
0.0113568
0.0106304
0.0117633
0.0118912
0.0120631
0.0114746
0.0117937
0.0109137
0.01196
0.0122501
0.0108
0.0120223
0.011794
0.010526
0.010923
0.01174
0.0116403
0.0120222
0.011557
0.011143
0.0120017
0.0122086
0.0121217
0.0119051
0.0121374
0.0109844
0.0121459
0.0116707
0.0110515
0.0110013
0.0104066
0.0110376
0.0118245
0.0115994
0.0118691
0.0116634
0.0111821
0.0113466
0.0107597
0.0107347
0.0123064
0.0122489
0.0111786
0.0121803
0.0121668
0.0111492
0.0116531
0.0118197
0.011374
0.0114443
0.0121116
0.0113038
0.0107092
0.0121385
0.0122111
0.0114707
0.012194
0.0115467
0.0112559
0.0111112
0.0115779
0.0108542
0.0110988
0.0118107
0.0118059
0.0115831
0.0121522
0.0121609
0.011636
0.0120381
0.00835384
0.0115968
0.0109637
0.0115889
0.0121115
0.0115851
0.0113533
0.0115572
0.0111185
0.0118226
0.011612
0.0113496
0.0109955
0.0106048
0.0106285
0.0115418
0.0110254
0.0116463
0.010996
0.0115397
0.0120909
0.0117954
0.0115626
0.0117278
0.0119486
0.0116415
0.0119586
0.0108219
0.0117642
0.012133
0.0121589
0.0115027
0.0123309
0.0112754
0.0119853
0.0115805
0.0108912
0.0121002
0.0121409
0.0118588
0.0118031
0.0120631
0.0118381
0.0106247
0.0107051
0.0115172
0.0122285
0.0117555
0.012046
0.0114344
0.0115615
0.0112053
0.0109214
0.0109318
0.0109027
0.0119076
0.0117875
0.0120545
0.0114363
0.0114712
0.0123365
0.0110545
0.0116406
0.0122478
0.0120897
0.0112657
0.0115346
0.0119496
0.0121293
0.0121294
0.0100139
0.0118828
0.0120399
0.0117808
0.0116452
0.0122522
0.0120059
0.0121366
0.0117977
0.0113356
0.0117304
0.0121482
0.0118688
0.011564
0.0110094
0.012082
0.0120932
0.0120621
0.0119933
0.010751
0.010446
0.011525
0.011957
0.0116203
0.0117808
0.0119441
0.011985
0.0119881
0.0114803
0.0119943
0.0117022
0.0120562
0.0111245
0.0111122
0.0115055
0.0122642
0.011091
0.012008
0.0110184
0.0116069
0.011681
0.0122944
0.0116675
0.0120437
0.0122439
0.0120435
0.0117773
0.0120251
0.0116664
0.0114656
0.0106807
0.0122528
0.0103493
0.010964
0.0101863
0.0106497
0.0107989
0.0115697
0.0117884
0.0110513
0.011425
0.0104863
0.0111181
0.0113386
0.0121706
0.0108312
0.010937
0.0119624
0.0108468
0.0114974
0.0118729
0.0119731
0.0115169
0.0109951
0.0107114
0.0113848
0.0122792
0.0112975
0.0108754
0.0119148
0.0114457
0.011772
0.0116186
0.0111145
0.0121002
0.0106576
0.010929
0.0115809
0.0121265
0.0114829
0.0116108
0.0116633
0.01166
0.010607
0.0111708
0.0114947
0.0120254
0.0119455
0.0109255
0.0105149
0.0115703
0.0122078
0.0115687
0.0116782
0.0112669
0.0114945
0.0116096
0.0109216
0.0121252
0.0113985
0.0108976
0.010509
0.0118947
0.011655
0.0121481
0.0117286
0.0120284
0.0109799
0.0115569
0.0106717
0.0105271
0.0121004
0.0111222
0.0116876
0.0116859
0.0113026
0.0109134
0.0121482
0.0120068
0.0121773
0.0118343
0.0102759
0.0116179
0.0106228
0.0121642
0.0110672
0.0121064
0.0104891
0.0118657
0.0119867
0.0114073
0.0114509
0.0106426
0.011324
0.011621
0.0119538
0.0118846
0.0121768
0.0120531
0.0110423
0.0121692
0.0106164
0.0117653
0.0118731
0.0120733
0.0120749
0.0114084
0.0122278
0.0116117
0.0113969
0.0113651
0.0117427
0.0120444
0.0113087
0.0110365
0.0121539
0.0119399
0.011529
0.0121822
0.0118157
0.0118776
0.0119736
0.0120005
0.0120574
0.0115486
0.0114946
0.0120658
0.0119908
0.010529
0.0116071
0.0112083
0.0121984
0.0118396
0.0120589
0.010951
0.0109018
0.0117142
0.0118263
0.0118744
0.0119829
0.0120214
0.0116729
0.0119149
0.0110438
0.0118668
0.0115592
0.0121307
0.0120605
0.0121026
0.0118021
0.0121302
0.0113095
0.0121019
0.0112318
0.0114997
0.0114827
0.0117199
0.0115033
0.0119084
0.0108164
0.0120683
0.0119308
0.0115903
0.0109649
0.0121608
0.0118492
0.0120401
0.0115616
0.0116618
0.0120328
0.0108904
0.0120979
0.0116858
0.0117317
0.0112348
0.0113316
0.011409
0.0108757
0.0114639
0.0122791
0.0117735
0.0105272
0.0118211
0.0108154
0.011836
0.011847
0.0107028
0.0107519
0.0113877
0.0117578
0.0120303
0.0114459
0.0115502
0.0116522
0.0105773
0.0114928
0.0121057
0.0120663
0.0121045
0.0116737
0.0119116
0.0110375
0.0110475
0.0122683
0.0116748
0.0118735
0.0119392
0.0122569
0.0117298
0.0117292
0.0106755
0.0118149
0.0120521
0.0113953
0.0120892
0.0119826
0.011815
0.011107
0.0118738
0.011526
0.0104636
0.0117579
0.011214
0.0109436
0.0118526
0.0117006
0.012055
0.0120333
0.0117873
0.0122643
0.0104409
0.0114347
0.0121065
0.0121817
0.010688
0.0118798
0.0110848
0.0112557
0.0121321
0.0112947
0.011857
0.0122852
0.0119379
0.0106015
0.0119478
0.0110255
0.0120367
0.0118685
0.0117952
0.0120567
0.0117544
0.0120156
0.0109297
0.0119289
0.0120784
0.0110412
0.0118068
0.011668
0.0115117
0.012023
0.0115289
0.0120424
0.0121822
0.0121489
0.0116009
0.0120458
0.0117154
0.0118864
0.0113076
0.0112276
0.0108729
0.0107059
0.0118517
0.0119261
0.0116388
0.012198
0.0112241
0.0121628
0.0107094
0.0122689
0.0122038
0.0119452
0.0121571
0.0112918
0.0106689
0.011569
0.010974
0.0120586
0.0116605
0.0107355
0.011533
0.012306
0.0119122
0.0108629
0.0112813
0.0106427
0.0123134
0.0108961
0.0120348
0.0111644
0.0111167
0.0121506
0.0121377
0.0120996
0.0118885
0.0107642
0.0117664
0.0121667
0.0110844
0.0122038
0.0116982
0.0122887
0.0104944
0.0118326
0.0113126
0.0117837
0.0114276
0.0114768
0.0114678
0.0113436
0.0115798
0.0116034
0.0117018
0.0114943
0.0122229
0.0110534
0.0116016
0.0116377
0.0118942
0.0122066
0.0111123
0.0119606
0.0109932
0.0115272
0.012074
0.0120389
0.0116094
0.0118597
0.0119014
0.0113101
0.0116035
0.0115696
0.0108426
0.0107994
0.011875
0.0119746
0.0111266
0.0115358
0.0119822
0.0110039
0.0117685
0.0111204
0.0119106
0.0121713
0.0116398
0.0109103
0.0119938
0.0107665
0.0118325
0.0122282
0.0104309
0.0123708
0.0110481
0.0114841
0.0114016
0.0109133
0.0114874
0.0113374
0.0106862
0.012144
0.0121107
0.0103498
0.0114526
0.0117137
0.0117393
0.0118592
0.0122419
0.0120477
0.0113572
0.0112465
0.0107166
0.0105812
0.00995932
0.0121881
0.0117888
0.0118724
0.011925
0.0108993
0.0108177
0.0115464
0.0120819
0.0106795
0.0119108
0.0116035
0.0116649
0.0118351
0.0113123
0.0118714
0.0114583
0.0116802
0.0121886
0.0102882
0.0116698
0.0117937
0.0120399
0.0118184
0.0120203
0.0117205
0.0109638
0.0122395
0.0124984
0.0116527
0.0115687
0.0110055
0.011453
0.0118589
0.0120869
0.0115622
0.0115267
0.0114186
0.0106703
0.0114239
0.0121477
0.0115637
0.0123803
0.0116906
0.0115343
0.0121755
0.0109405
0.0119367
0.0108783
0.0121813
0.0118876
0.0114462
0.0123849
0.0114027
0.0116695
0.0121677
0.0115359
0.0119645
0.0115539
0.0119346
0.0109298
0.0116436
0.0115828
0.0111261
0.0119781
0.0113731
0.0113263
0.0121593
0.0110156
0.0121279
0.0115725
0.0120581
0.0113021
0.0117984
0.0109777
0.0110143
0.0121324
0.0110121
0.0115615
0.0119799
0.0107076
0.0115869
0.0119502
0.0114319
0.0108934
0.0113317
0.0115981
0.0114573
0.0118342
0.0116405
0.0120045
0.0114612
0.0120477
0.0105586
0.0108459
0.0121801
0.0113963
0.0107028
0.010903
0.0116827
0.00962997
0.0108248
0.0116365
0.0116003
0.0122759
0.0111108
0.0120301
0.012069
0.0121483
0.0120507
0.0122094
0.0114935
0.0113289
0.0119908
0.0114468
0.0113473
0.0119588
0.0114816
0.0105697
0.0108381
0.0115473
0.0101239
0.0119253
0.011939
0.0113752
0.0119791
0.0120286
0.0117487
0.0124154
0.0113364
0.0108101
0.0114335
0.0115335
0.0119095
0.0113626
0.011766
0.0121514
0.0115301
0.011367
0.0116653
0.0122563
0.011981
0.0124076
0.0120605
0.0116427
0.0117689
0.0111968
0.0113818
0.0122226
0.0113035
0.0122126
0.011362
0.01198
0.0103561
0.0118821
0.0116076
0.0118045
0.0112518
0.0118956
0.0115799
0.0119883
0.0103942
0.0112707
0.0116188
0.0114232
0.0117265
0.0116615
0.0116836
0.0120822
0.0117469
0.010718
0.0112777
0.0108993
0.0117264
0.0116371
0.0109578
0.0123797
0.0117243
0.0117088
0.0120428
0.0112157
0.0109908
0.0121728
0.0109616
0.0107473
0.0106545
0.0106965
0.0105506
0.0114014
0.0122004
0.0120506
0.0115931
0.011694
0.0119197
0.0113802
0.0119084
0.0107239
0.0120674
0.00846066
0.0119135
0.0108212
0.0107276
0.0119551
0.0108534
0.0117801
0.0118974
0.0119972
0.0110838
0.0117812
0.0115731
0.0116157
0.0108763
0.0120096
0.0117955
0.0120534
0.0117661
0.0109513
0.0116938
0.0116075
0.0114103
0.0106494
0.0112002
0.0111338
0.0107109
0.0108478
0.0116305
0.011365
0.0108989
0.011369
0.0120249
0.0120691
0.0121953
0.00859214
0.01077
0.012053
0.0108578
0.0119177
0.0106778
0.0121711
0.0119393
0.0119878
0.0109405
0.0116263
0.0121483
0.0121332
0.0118247
0.0120533
0.0116461
0.0117055
0.0115833
0.0108387
0.0117428
0.0113684
0.0113585
0.0113808
0.0107019
0.0115825
0.0120692
0.0111358
0.0112698
0.0108503
0.0119096
0.011872
0.0106169
0.0115182
0.0116318
0.011856
0.0109206
0.0116678
0.0117435
0.0124434
0.0096855
0.0117278
0.0115177
0.0107813
0.0121119
0.0111779
0.011076
0.0118366
0.0121879
0.0107772
0.0120837
0.0117956
0.0108703
0.0107466
0.0120428
0.0121444
0.0108388
0.0116972
0.0106994
0.0112528
0.0121794
0.0112671
0.0118337
0.0118045
0.0122341
0.0114183
0.0114191
0.0112311
0.0115737
0.0117587
0.0113408
0.0119919
0.0109417
0.0109159
0.0117559
0.0115605
0.0119321
0.0113798
0.0119652
0.0118989
0.0117309
0.0120639
0.0118809
0.0114703
0.0110976
0.0119118
0.0115062
0.011299
0.0117735
0.012224
0.011967
0.0114575
0.0108286
0.0117744
0.0111882
0.010653
0.0112959
0.0115648
0.0106202
0.0118539
0.0110816
0.0102068
0.010785
0.0117909
0.0101947
0.0114746
0.011945
0.0117453
0.0107464
0.0117721
0.0124392
0.0109371
0.0105941
0.0110294
0.0119406
0.0116016
0.0114732
0.0119965
0.0108411
0.0119892
0.0116557
0.0121788
0.0121498
0.0086295
0.0116921
0.0118715
0.0119339
0.011376
0.0115096
0.00994577
0.0116257
0.0121421
0.0113719
0.0107211
0.0115597
0.0119384
0.0118055
0.010625
0.01176
0.0119867
0.0121372
0.0115636
0.0117447
0.0106553
0.0107452
0.0107132
0.0116491
0.0114959
0.0118321
0.012249
0.0120047
0.0104169
0.0120576
0.0120348
0.0119416
0.0114372
0.012051
0.0110915
0.0110702
0.0114272
0.0116243
0.0111909
0.0105932
0.0118343
0.011345
0.0119638
0.0111606
0.0101633
0.011349
0.0119257
0.0116862
0.0110098
0.0112554
0.0119702
0.012045
0.0112557
0.0115046
0.0119216
0.0121786
0.0118809
0.012211
0.0118403
0.0118344
0.010609
0.0116571
0.0109859
0.0119928
0.0116782
0.0113096
0.0108051
0.0122146
0.0105941
0.0113796
0.0107678
0.0114101
0.0103033
0.0115894
0.0115796
0.0115991
0.0114499
0.011222
0.0120425
0.0109031
0.0118824
0.0113723
0.0115178
0.0103849
0.0119156
0.0115839
0.0110086
0.0112321
0.0115946
0.0115452
0.0116773
0.00966932
0.0117345
0.0114636
0.0115341
0.0111797
0.0113163
0.0112958
0.00978485
0.01197
0.0116235
0.00702714
0.0110422
0.0119443
0.0119409
0.0118979
0.0110949
0.00981746
0.0120174
0.0109772
0.0119685
0.0122152
0.0116633
0.0111218
0.0120684
0.0106995
0.0103438
0.0104425
0.0117171
0.0115391
0.0112722
0.0122199
0.0119296
0.0117339
0.0111163
0.010502
0.0122834
0.0117188
0.0123231
0.0119472
0.0108085
0.0113489
0.0116153
0.010855
0.0115923
0.0114004
0.0116834
0.0124905
0.011559
0.0116257
0.0108958
0.0114436
0.0112691
0.0117666
0.0114696
0.0107037
0.011004
0.0117218
0.0119093
0.0108461
0.0118086
0.0112002
0.0118972
0.0109605
0.0109371
0.00975338
0.0120893
0.0120228
0.0118243
0.0119385
0.0113855
0.0108974
0.010633
0.00993153
0.0115836
0.0106756
0.0114625
0.0113291
0.0119582
0.0113843
0.0119266
0.0110578
0.00731521
0.0109396
0.011968
0.00789174
0.0116631
0.0122898
0.0115409
0.0122086
0.0107771
0.0109934
0.0110705
0.0121742
0.00952062
0.0121326
0.0109538
0.0100638
0.0119765
0.0110252
0.0120566
0.007694
0.0104665
0.0116757
0.0119377
0.0121585
0.011862
0.0120789
0.0118453
0.0118397
0.0120352
0.0118945
0.0115661
0.0112369
0.00970821
0.0119221
0.0112163
0.0112946
0.0120631
0.0120736
0.0116366
0.0106555
0.0121399
0.0118983
0.0114881
0.0108588
0.0107053
0.0118395
0.0120445
0.012051
0.0120006
0.0115816
0.0117119
0.0107847
0.0119349
0.0115999
0.0118323
0.0113002
0.010722
0.0100725
0.0114183
0.012378
0.0118569
0.0114598
0.0110483
0.0113831
0.0109381
0.0107481
0.0119193
0.0112853
0.00907329
0.00953808
0.0102014
0.0108199
0.0116768
0.0113607
0.011496
0.0113557
0.0103265
0.0115322
0.011984
0.0103723
0.012377
0.0105471
0.0120432
0.011014
0.0119956
0.0118281
0.0117301
0.0118616
0.0112488
0.0108593
0.0111056
0.0112566
0.0118488
0.0116377
0.0110726
0.0110494
0.0116491
0.0106414
0.0115882
0.0110966
0.0119213
0.0111671
0.0114538
0.00911944
0.0120382
0.0121933
0.0116646
0.0119119
0.0114468
0.0114882
0.011786
0.0118054
0.0117869
0.0121141
0.0117524
0.0106207
0.0105289
0.0124065
0.0107832
0.0106078
0.0105132
0.0116493
0.0120953
0.0114984
0.0122328
0.0123773
0.0120571
0.0118975
0.0113533
0.010744
0.0114613
0.0101444
0.0117816
0.0115376
0.0113931
0.0113986
0.011118
0.0114562
0.0121595
0.0103627
0.0111139
0.0114831
0.0104504
0.0119799
0.0100094
0.0103038
0.0106201
0.0117538
0.0110035
0.010699
0.0110405
0.0106301
0.0115276
0.00967086
0.00969279
0.0114911
0.0107474
0.0103836
0.0115067
0.0107969
0.0112258
0.0114263
0.0111087
0.0106616
0.0115386
0.0109401
0.0111349
0.0106485
0.0112522
0.0112174
0.0099794
0.0120138
0.0114222
0.0115197
0.011057
0.0108966
0.0106305
0.0115004
0.0114668
0.0120511
0.0116509
0.0117818
0.0112835
0.0116424
0.0119671
0.0118348
0.00940411
0.00966068
0.010475
0.0119098
0.0105638
0.0116713
0.00952765
0.0111668
0.0116488
0.0111279
0.0113248
0.0112037
0.0112295
0.0112651
0.0121892
0.0109782
0.0112188
0.0121675
0.0104492
0.0112834
0.0107666
0.0119179
0.0110899
0.0105615
0.0114539
0.0107098
0.00978043
0.0100141
0.0107582
0.0110562
0.00995294
0.0121246
0.0110285
0.0104618
0.0112084
0.0119359
0.0112415
0.0101944
0.0121836
0.0115311
0.0106724
0.0111712
0.0115417
0.0106819
0.0114216
0.0115213
0.0112257
0.0106112
0.0104173
0.0113957
0.0109561
0.0101531
0.0103127
0.0103169
0.0113969
0.0104318
0.011946
0.011466
0.011377
0.0111546
0.0119701
0.0107134
0.0114498
0.011171
0.00764605
0.011999
0.0102281
0.0114398
0.0118472
0.0119712
0.00982251
0.0116917
0.0121006
0.0108148
0.0115406
0.0112391
0.0109946
0.0097373
0.0113785
0.0108476
0.0120035
0.0123231
0.0110929
0.0120416
0.0107908
0.0108554
0.0105191
0.00946578
0.00984293
0.0120678
0.0100636
0.0118402
0.0107981
0.0101828
0.0112349
0.0121484
0.00990907
0.0079845
0.0107544
0.011718
0.0117888
0.0116456
0.00738429
0.0112222
0.0117047
0.0117094
0.0121038
0.0110987
0.00999818
0.0119575
0.00998387
0.0114449
0.0111551
0.0109878
0.0109714
0.0115382
0.0107438
0.0107193
0.00993402
0.010799
0.0117179
0.0113087
0.0112869
0.0104264
0.0110168
0.0110351
0.0107852
0.0117691
0.0103275
0.0106731
0.0116002
0.0118196
0.0103989
0.011769
0.0109035
0.012276
0.0100536
0.0119471
0.0111978
0.0116234
0.0115813
0.0109347
0.0106794
0.0122221
0.0113319
0.0114691
0.0112345
0.0105732
0.0117103
0.0118606
0.010521
0.0106995
0.0109558
0.0102258
0.0110124
0.0114283
0.00995645
0.0121614
0.00996337
0.0110398
0.0113355
0.0100277
0.0109366
0.011187
0.0106269
0.0112435
0.0107174
0.0114244
0.0101136
0.0116696
0.0101578
0.0109931
0.0091143
0.0112957
0.010263
0.010505
0.0116283
0.010474
0.0108475
0.0121809
0.0115812
0.0115735
0.0118954
0.0100791
0.0113728
0.0109477
0.0114071
0.0114817
0.0110811
0.0120295
0.0116296
0.0105258
0.0104425
0.0116621
0.0113252
0.0113532
0.0097727
0.0119014
0.0121991
0.0117801
0.0112931
0.0106758
0.0108293
0.0111556
0.0103476
0.0107079
0.0116369
0.011122
0.0108973
0.0111212
0.0110291
0.0112261
0.0101328
0.0108734
0.0105432
0.00985982
0.0120184
0.0112306
0.0106367
0.0118987
0.0112042
0.0111179
0.0114447
0.00991762
0.0104799
0.01031
0.0102692
0.012205
0.0115133
0.00966935
0.0119605
0.0100611
0.0112185
0.0114743
0.0111734
0.0117723
0.0110438
0.0113191
0.0110499
0.0109528
0.0109131
0.0117448
0.0102503
0.0105205
0.010988
0.00988259
0.0109436
0.00992662
0.0107961
0.0118758
0.011406
0.00965941
0.00972309
0.0105038
0.0102935
0.0108196
0.0106352
0.0110812
0.0115871
0.0096278
0.0115322
0.01128
0.0109367
0.0101682
0.0111497
0.0100824
0.00925199
0.0106596
0.0103757
0.0105059
0.0108887
0.0108432
0.0110661
0.0103902
0.011628
0.01043
0.011104
0.01063
0.0111735
0.0109214
0.0101821
0.0113699