/*--------------------------------*- C++ -*----------------------------------*\
| =========                 |                                                 |
| \\      /  F ield         | OpenFOAM: The Open Source CFD Toolbox           |
|  \\    /   O peration     | Version:  2212                                  |
|   \\  /    A nd           | Website:  www.openfoam.com                      |
|    \\/     M anipulation  |                                                 |
\*---------------------------------------------------------------------------*/
FoamFile
{
    version     2.0;
    format      ascii;
    arch        "LSB;label=32;scalar=64";
    class       volScalarField;
    location    "0.048";
    object      nut;
}
// * * * * * * * * * * * * * * * * * * * * * * * * * * * * * * * * * * * * * //

dimensions      [0 2 -1 0 0 0 0];

internalField   nonuniform List<scalar> 
31639
(
3.73665e-05
3.60092e-05
3.67113e-05
4.00401e-05
3.59184e-05
3.50021e-05
3.41626e-05
3.76549e-05
3.68396e-05
3.88937e-05
3.84571e-05
3.87347e-05
3.67399e-05
3.94236e-05
3.50608e-05
3.29263e-05
3.76021e-05
3.47786e-05
3.29209e-05
3.63566e-05
2.81996e-05
3.8918e-05
3.93891e-05
3.30708e-05
3.22671e-05
3.64478e-05
3.62448e-05
3.09873e-05
3.43106e-05
3.9552e-05
3.89854e-05
3.38202e-05
3.95167e-05
3.23055e-05
2.99531e-05
3.93805e-05
2.66613e-05
4.04753e-05
3.92145e-05
2.56067e-05
2.98471e-05
2.96752e-05
3.86538e-05
3.86039e-05
3.83421e-05
3.89577e-05
3.5054e-05
3.48846e-05
3.76295e-05
3.97361e-05
3.88275e-05
2.63965e-05
3.965e-05
2.75662e-05
3.41967e-05
3.68268e-05
2.83728e-05
3.64192e-05
3.58334e-05
2.85062e-05
3.62791e-05
3.8299e-05
3.2336e-05
3.60375e-05
3.70224e-05
3.99445e-05
3.61987e-05
3.64053e-05
3.10512e-05
3.97128e-05
3.90125e-05
3.33615e-05
3.82295e-05
3.65175e-05
3.91012e-05
2.99218e-05
3.86685e-05
3.47686e-05
3.50728e-05
3.78786e-05
3.25129e-05
2.52615e-05
3.9356e-05
3.71795e-05
3.74728e-05
3.87188e-05
3.95785e-05
3.92507e-05
3.08774e-05
4.00131e-05
3.68711e-05
3.6517e-05
2.90336e-05
3.53801e-05
3.1516e-05
3.53449e-05
3.51765e-05
3.63746e-05
3.67362e-05
2.87895e-05
3.94483e-05
3.85556e-05
3.5409e-05
2.80424e-05
2.86788e-05
3.91545e-05
2.80358e-05
2.69224e-05
3.15492e-05
2.77206e-05
3.82568e-05
2.90493e-05
3.53912e-05
3.38104e-05
3.64949e-05
2.75597e-05
3.50768e-05
3.52748e-05
3.77662e-05
3.57649e-05
3.81852e-05
3.8529e-05
3.83855e-05
3.68495e-05
3.64257e-05
3.91544e-05
3.62479e-05
3.19323e-05
3.10369e-05
3.83445e-05
3.89674e-05
3.86321e-05
3.90289e-05
3.43478e-05
3.82593e-05
3.64131e-05
2.86805e-05
2.74086e-05
3.84271e-05
3.63641e-05
3.62451e-05
3.86835e-05
3.88946e-05
2.7546e-05
2.62902e-05
3.94126e-05
3.8035e-05
2.94092e-05
2.93633e-05
3.87728e-05
3.17207e-05
3.72095e-05
3.30579e-05
3.77509e-05
3.03693e-05
3.9804e-05
3.60034e-05
3.06407e-05
3.02767e-05
3.29266e-05
3.92081e-05
3.05698e-05
3.18628e-05
2.82201e-05
2.90553e-05
3.54493e-05
3.00655e-05
3.97307e-05
3.86306e-05
2.79316e-05
3.42857e-05
3.42171e-05
2.97057e-05
3.65023e-05
4.00271e-05
3.78972e-05
3.68401e-05
3.97411e-05
3.66376e-05
3.65238e-05
3.51881e-05
3.50324e-05
3.46347e-05
2.62071e-05
3.65789e-05
4.02351e-05
3.57553e-05
3.95644e-05
2.90841e-05
2.88544e-05
4.08459e-05
3.82404e-05
3.77521e-05
3.58199e-05
3.64726e-05
3.45077e-05
3.42149e-05
3.83115e-05
2.8314e-05
3.44215e-05
3.91676e-05
3.99787e-05
3.81671e-05
3.79715e-05
3.58285e-05
3.58022e-05
3.54316e-05
3.4677e-05
3.87807e-05
2.62074e-05
3.58856e-05
3.46487e-05
3.7386e-05
3.85783e-05
3.80951e-05
3.93786e-05
2.99438e-05
3.29546e-05
3.86085e-05
3.81968e-05
3.76814e-05
3.54349e-05
2.82642e-05
3.54406e-05
2.84261e-05
3.48585e-05
3.82974e-05
3.29059e-05
2.95603e-05
3.75875e-05
3.72501e-05
4.00858e-05
3.06094e-05
2.87591e-05
3.74855e-05
3.7805e-05
2.84955e-05
3.95518e-05
3.19877e-05
2.8018e-05
3.52547e-05
3.74567e-05
3.59742e-05
3.31739e-05
3.25401e-05
3.77396e-05
3.51969e-05
3.45347e-05
2.96792e-05
3.57388e-05
3.48341e-05
2.98853e-05
3.31974e-05
3.96874e-05
3.83962e-05
3.38789e-05
3.01271e-05
3.81284e-05
3.80932e-05
3.59743e-05
3.9896e-05
3.90804e-05
3.64234e-05
3.91304e-05
3.5064e-05
3.51204e-05
2.76773e-05
3.26056e-05
3.91814e-05
3.47775e-05
3.74246e-05
3.36541e-05
3.60911e-05
3.98234e-05
3.99941e-05
3.68531e-05
2.88337e-05
3.49095e-05
3.18677e-05
3.89626e-05
3.52772e-05
3.94829e-05
3.97613e-05
3.42231e-05
2.9548e-05
3.18048e-05
3.03353e-05
2.82638e-05
3.89129e-05
3.09494e-05
3.84971e-05
3.55097e-05
3.3345e-05
3.04684e-05
4.0249e-05
3.39781e-05
3.34227e-05
3.8891e-05
3.63977e-05
3.2138e-05
3.55142e-05
3.10986e-05
3.62309e-05
3.53928e-05
2.96807e-05
3.42131e-05
3.46893e-05
2.52631e-05
2.70688e-05
3.88352e-05
3.94696e-05
3.78454e-05
2.8162e-05
3.05063e-05
3.80955e-05
3.11507e-05
3.10588e-05
3.93161e-05
4.01321e-05
3.51168e-05
3.88157e-05
3.96883e-05
2.99336e-05
3.90804e-05
2.75571e-05
2.77663e-05
3.92522e-05
3.87537e-05
3.89929e-05
3.98577e-05
3.80565e-05
3.05344e-05
3.59414e-05
3.55619e-05
3.92025e-05
3.99209e-05
4.02715e-05
3.5471e-05
3.44619e-05
3.76505e-05
3.81516e-05
3.71916e-05
3.49495e-05
3.53643e-05
3.51503e-05
3.56576e-05
3.74783e-05
3.53088e-05
2.98284e-05
3.69043e-05
4.00218e-05
3.42878e-05
3.89005e-05
3.95473e-05
3.587e-05
2.96794e-05
3.57539e-05
3.56532e-05
2.80737e-05
4.03248e-05
3.07669e-05
3.66962e-05
3.85433e-05
2.72535e-05
3.60533e-05
3.58008e-05
2.88732e-05
3.6394e-05
3.0259e-05
3.57274e-05
3.95153e-05
3.74065e-05
2.69955e-05
3.69196e-05
3.03801e-05
3.7012e-05
3.89105e-05
3.92721e-05
3.88997e-05
3.07283e-05
3.84944e-05
2.83067e-05
3.5132e-05
2.78123e-05
3.95036e-05
3.8489e-05
3.91199e-05
3.87713e-05
3.19817e-05
3.96146e-05
3.58208e-05
3.76325e-05
3.55679e-05
3.10316e-05
3.5623e-05
3.78099e-05
3.75465e-05
3.80616e-05
3.64345e-05
3.80503e-05
3.51106e-05
2.98325e-05
3.54641e-05
3.75437e-05
3.77935e-05
2.71221e-05
3.91238e-05
3.87856e-05
3.5645e-05
3.74076e-05
3.78413e-05
3.62421e-05
3.96553e-05
2.85083e-05
3.7132e-05
3.90482e-05
2.73159e-05
3.6064e-05
3.71757e-05
3.03535e-05
2.87098e-05
2.87698e-05
3.3707e-05
2.85272e-05
3.55227e-05
3.53689e-05
3.35824e-05
3.938e-05
2.93757e-05
3.85368e-05
3.9463e-05
3.59885e-05
3.83668e-05
3.44043e-05
3.91036e-05
3.5697e-05
3.62676e-05
3.99068e-05
3.58905e-05
2.91013e-05
3.62261e-05
3.90882e-05
3.8831e-05
3.77548e-05
3.94783e-05
3.50305e-05
3.69935e-05
3.83894e-05
3.98553e-05
3.9028e-05
2.99601e-05
3.5418e-05
2.61381e-05
3.50867e-05
3.53328e-05
2.93219e-05
2.81519e-05
3.39884e-05
3.80791e-05
3.85551e-05
2.88175e-05
3.78359e-05
3.31186e-05
3.57304e-05
3.80651e-05
2.72459e-05
3.54402e-05
2.76973e-05
3.48515e-05
3.89561e-05
3.98703e-05
3.8236e-05
3.53961e-05
2.76273e-05
3.75816e-05
3.63541e-05
3.78915e-05
2.81771e-05
2.96797e-05
3.56538e-05
2.89664e-05
3.03094e-05
3.66388e-05
2.79419e-05
3.44319e-05
2.8255e-05
3.75572e-05
2.94372e-05
3.97581e-05
3.86684e-05
3.85582e-05
3.91409e-05
3.24317e-05
3.84877e-05
3.90317e-05
3.63771e-05
3.84034e-05
3.63045e-05
3.86161e-05
3.96702e-05
3.34121e-05
3.8882e-05
3.94335e-05
3.58128e-05
3.25078e-05
3.98739e-05
3.62065e-05
2.69086e-05
2.75193e-05
3.60809e-05
3.93559e-05
3.94855e-05
3.56229e-05
4.03729e-05
3.98273e-05
3.80443e-05
3.64647e-05
3.4592e-05
3.48604e-05
3.02489e-05
3.58067e-05
3.70741e-05
3.95752e-05
3.17265e-05
3.13723e-05
3.09855e-05
3.45312e-05
3.55458e-05
2.65452e-05
3.75838e-05
3.31037e-05
3.75238e-05
3.56794e-05
3.87892e-05
3.54971e-05
3.00111e-05
3.73883e-05
3.94276e-05
3.14688e-05
3.85516e-05
3.97726e-05
3.55377e-05
3.55785e-05
3.09361e-05
3.11903e-05
3.5832e-05
3.61615e-05
3.03145e-05
2.97903e-05
3.6299e-05
3.18502e-05
3.75665e-05
3.20156e-05
3.49156e-05
3.90475e-05
3.58881e-05
2.8382e-05
3.3016e-05
3.6304e-05
3.93709e-05
2.90814e-05
2.59811e-05
3.86644e-05
2.8388e-05
3.67697e-05
4.00397e-05
2.93747e-05
3.59779e-05
3.87854e-05
3.57677e-05
2.86313e-05
3.89021e-05
3.57266e-05
2.91258e-05
3.85859e-05
3.67077e-05
3.52941e-05
3.78167e-05
2.71254e-05
3.28074e-05
3.65845e-05
3.41564e-05
3.357e-05
3.54935e-05
3.92409e-05
3.88415e-05
3.76097e-05
3.89175e-05
3.92156e-05
3.82653e-05
3.21156e-05
3.82993e-05
3.91892e-05
3.98986e-05
3.14899e-05
3.63663e-05
3.63592e-05
4.10343e-05
3.03766e-05
2.68629e-05
3.95619e-05
3.10371e-05
4.05305e-05
3.48286e-05
2.99035e-05
3.62621e-05
3.89591e-05
3.6531e-05
3.71701e-05
2.78765e-05
3.81221e-05
3.63648e-05
2.74415e-05
3.93693e-05
3.85715e-05
3.01432e-05
2.95716e-05
3.07776e-05
3.38734e-05
3.68009e-05
3.63911e-05
3.57121e-05
3.62076e-05
3.88219e-05
3.60304e-05
3.56699e-05
2.97453e-05
4.00036e-05
2.80658e-05
3.59307e-05
3.48592e-05
3.37206e-05
4.00372e-05
3.59558e-05
3.18028e-05
2.81848e-05
2.93281e-05
3.47851e-05
3.91148e-05
3.12944e-05
3.98959e-05
3.5636e-05
3.87316e-05
2.96688e-05
3.48232e-05
3.79897e-05
4.01196e-05
3.93244e-05
3.8378e-05
3.63853e-05
3.57988e-05
3.9777e-05
3.97181e-05
3.90614e-05
3.19508e-05
3.88528e-05
2.98002e-05
3.93378e-05
3.73498e-05
3.56282e-05
3.06673e-05
3.51255e-05
2.59121e-05
3.9354e-05
3.63799e-05
4.00847e-05
3.54144e-05
3.39572e-05
2.94109e-05
3.88969e-05
2.8334e-05
2.65624e-05
3.0201e-05
3.21484e-05
2.96596e-05
3.56017e-05
2.84147e-05
3.84574e-05
3.70416e-05
2.66999e-05
3.96398e-05
3.01636e-05
3.24662e-05
3.4896e-05
3.35333e-05
3.78271e-05
3.9543e-05
4.01958e-05
3.87656e-05
3.54301e-05
3.66899e-05
3.42197e-05
3.44188e-05
2.83036e-05
2.15336e-05
3.95693e-05
3.53664e-05
3.79612e-05
3.88021e-05
2.89514e-05
3.90784e-05
3.91932e-05
3.82305e-05
3.85002e-05
3.80673e-05
3.69165e-05
3.98417e-05
4.00884e-05
3.62622e-05
3.87299e-05
3.86803e-05
3.05831e-05
3.89195e-05
3.34469e-05
3.72584e-05
3.42871e-05
3.56708e-05
3.26564e-05
4.00323e-05
3.52596e-05
3.62418e-05
3.51337e-05
3.04008e-05
3.99239e-05
3.65812e-05
3.37283e-05
2.97787e-05
3.81643e-05
2.78952e-05
3.90972e-05
3.78087e-05
3.41069e-05
3.89271e-05
4.03224e-05
3.904e-05
2.85233e-05
3.65017e-05
3.51098e-05
3.62721e-05
3.05259e-05
3.8641e-05
3.8873e-05
3.43225e-05
3.6027e-05
3.43362e-05
3.76058e-05
3.36955e-05
3.52206e-05
2.76833e-05
3.83982e-05
3.69946e-05
3.86468e-05
3.24752e-05
3.60596e-05
3.716e-05
3.59393e-05
3.31408e-05
3.76799e-05
3.84648e-05
3.52073e-05
2.77952e-05
2.76507e-05
3.55415e-05
2.67189e-05
2.98141e-05
3.65962e-05
3.68203e-05
3.88465e-05
2.75167e-05
3.54928e-05
3.94094e-05
3.10434e-05
2.84717e-05
3.6631e-05
3.03388e-05
3.72925e-05
3.13104e-05
3.87798e-05
3.22471e-05
3.34272e-05
3.98081e-05
2.77016e-05
3.4699e-05
3.51787e-05
3.86161e-05
3.9361e-05
3.93699e-05
3.03784e-05
3.78871e-05
3.905e-05
3.34369e-05
3.97692e-05
3.85921e-05
3.71511e-05
3.87923e-05
3.64222e-05
3.98997e-05
4.02282e-05
3.9864e-05
3.77464e-05
3.37359e-05
3.70851e-05
3.60664e-05
2.86011e-05
3.50818e-05
3.78119e-05
3.89963e-05
3.94025e-05
3.54459e-05
3.96231e-05
3.87993e-05
3.47357e-05
3.85274e-05
3.87525e-05
3.76057e-05
3.82264e-05
2.93252e-05
3.43554e-05
3.82618e-05
2.67729e-05
3.60358e-05
3.54068e-05
3.50361e-05
3.51088e-05
3.99027e-05
3.80447e-05
3.88663e-05
3.50377e-05
3.78604e-05
3.63298e-05
3.90188e-05
3.66744e-05
3.44431e-05
2.99697e-05
3.89071e-05
3.03869e-05
3.47535e-05
3.52693e-05
3.47444e-05
3.68057e-05
3.9751e-05
2.94706e-05
3.92604e-05
3.00603e-05
3.70904e-05
3.41479e-05
3.50665e-05
3.55485e-05
3.94993e-05
2.90253e-05
3.78888e-05
3.89707e-05
3.89462e-05
3.66098e-05
3.59065e-05
2.64569e-05
3.87095e-05
3.85469e-05
3.72391e-05
3.83343e-05
3.89334e-05
3.676e-05
3.7197e-05
3.63851e-05
3.07812e-05
3.49786e-05
3.96181e-05
2.80948e-05
3.12304e-05
4.06937e-05
3.87016e-05
3.30179e-05
3.45778e-05
3.62941e-05
3.27247e-05
3.55908e-05
3.15731e-05
3.85571e-05
3.92503e-05
2.66327e-05
3.64871e-05
3.94245e-05
3.84546e-05
3.9814e-05
3.53108e-05
3.88652e-05
3.07631e-05
3.0562e-05
3.95746e-05
3.87177e-05
3.61145e-05
3.10156e-05
3.84255e-05
3.87127e-05
3.20571e-05
3.93941e-05
3.90374e-05
3.92081e-05
3.73463e-05
3.85888e-05
3.65669e-05
3.70369e-05
3.55e-05
3.33611e-05
2.89315e-05
3.6666e-05
3.65198e-05
3.07415e-05
3.93069e-05
2.82947e-05
3.47947e-05
3.52979e-05
2.98366e-05
3.52558e-05
3.36951e-05
3.72086e-05
3.59707e-05
3.83966e-05
2.94188e-05
2.94098e-05
3.47017e-05
2.91317e-05
3.41065e-05
3.88637e-05
3.54398e-05
3.90628e-05
3.58686e-05
3.54963e-05
3.92882e-05
3.38133e-05
3.62309e-05
3.56402e-05
3.54454e-05
3.68019e-05
3.06968e-05
3.6208e-05
3.82347e-05
3.95656e-05
4.0015e-05
2.94915e-05
2.8909e-05
3.6019e-05
3.90559e-05
3.13835e-05
3.4646e-05
3.74297e-05
3.57622e-05
4.08989e-05
3.50471e-05
3.5008e-05
3.78138e-05
2.94209e-05
3.89209e-05
3.94764e-05
3.02884e-05
3.26556e-05
3.58446e-05
3.37914e-05
3.9649e-05
3.95067e-05
3.72969e-05
3.07179e-05
3.86781e-05
2.9251e-05
3.48837e-05
3.86081e-05
3.34073e-05
4.04171e-05
2.77624e-05
3.61092e-05
3.72627e-05
3.63385e-05
2.79204e-05
2.87143e-05
3.88849e-05
3.96379e-05
3.39498e-05
3.97249e-05
3.72138e-05
3.58633e-05
2.92637e-05
3.17309e-05
3.69784e-05
3.5619e-05
3.58277e-05
3.99058e-05
3.94897e-05
4.02069e-05
3.97305e-05
3.69478e-05
3.67466e-05
3.81492e-05
3.00398e-05
3.86253e-05
3.78001e-05
3.67601e-05
3.68029e-05
3.94572e-05
3.49816e-05
3.96546e-05
3.51237e-05
2.68574e-05
4.01331e-05
3.26651e-05
3.88667e-05
3.35989e-05
3.91044e-05
3.0504e-05
3.78586e-05
4.05182e-05
3.54482e-05
3.61504e-05
2.82955e-05
3.85495e-05
3.89188e-05
3.74599e-05
2.9087e-05
4.10209e-05
3.55441e-05
3.73891e-05
3.89401e-05
3.90897e-05
3.84091e-05
3.56537e-05
3.54351e-05
4.01536e-05
3.04713e-05
3.08727e-05
3.00082e-05
3.19359e-05
3.68754e-05
2.85894e-05
3.97145e-05
3.91106e-05
3.98441e-05
3.49828e-05
3.51218e-05
3.62493e-05
3.8655e-05
3.62495e-05
3.58659e-05
3.92471e-05
3.89435e-05
3.52782e-05
3.91375e-05
3.67682e-05
3.48992e-05
3.75496e-05
3.33809e-05
3.95605e-05
3.94072e-05
4.01e-05
4.00937e-05
3.88358e-05
3.30063e-05
4.03699e-05
3.64213e-05
3.64671e-05
3.51441e-05
3.71452e-05
3.98516e-05
3.59979e-05
3.85379e-05
3.42993e-05
3.59537e-05
3.75444e-05
3.09392e-05
2.84806e-05
3.54034e-05
3.43565e-05
3.93909e-05
3.33078e-05
2.8529e-05
3.66672e-05
3.87417e-05
3.21227e-05
3.34647e-05
3.64217e-05
3.9799e-05
3.8962e-05
3.50528e-05
3.23583e-05
3.61368e-05
3.82265e-05
3.39463e-05
3.60393e-05
3.6214e-05
2.81391e-05
3.36639e-05
3.38716e-05
3.75907e-05
3.85792e-05
3.58981e-05
3.89629e-05
3.77685e-05
3.59035e-05
3.62576e-05
3.0194e-05
3.19454e-05
2.79911e-05
3.87678e-05
3.69991e-05
3.98779e-05
4.18022e-05
3.79901e-05
2.87524e-05
3.85041e-05
3.40798e-05
3.71749e-05
3.73073e-05
3.86831e-05
2.87713e-05
3.97681e-05
2.98883e-05
3.65435e-05
3.62488e-05
3.55888e-05
4.04669e-05
3.49059e-05
3.78266e-05
3.11558e-05
3.52518e-05
3.5479e-05
3.86406e-05
3.29345e-05
3.16422e-05
3.82559e-05
3.85591e-05
3.74882e-05
3.8139e-05
3.93838e-05
3.02499e-05
3.52174e-05
3.49652e-05
3.20178e-05
3.84074e-05
3.97369e-05
3.98791e-05
3.90048e-05
4.029e-05
3.02279e-05
2.96885e-05
3.04828e-05
3.96736e-05
2.86243e-05
3.87239e-05
3.72554e-05
2.99601e-05
3.39227e-05
3.84468e-05
3.92359e-05
3.26285e-05
3.36262e-05
3.46168e-05
3.67274e-05
3.96711e-05
3.59219e-05
3.03585e-05
3.64411e-05
3.99801e-05
3.86879e-05
4.00339e-05
3.96963e-05
4.1321e-05
3.98913e-05
3.86595e-05
3.07575e-05
2.8576e-05
3.63366e-05
3.28785e-05
3.93757e-05
2.93405e-05
3.71882e-05
3.53775e-05
4.01364e-05
3.10957e-05
3.76979e-05
3.82856e-05
3.69874e-05
3.4516e-05
2.98294e-05
3.89139e-05
3.31809e-05
3.98411e-05
3.58569e-05
4.04836e-05
4.00053e-05
3.65336e-05
2.85049e-05
2.94609e-05
3.54537e-05
3.70124e-05
3.31715e-05
4.07882e-05
2.9965e-05
3.94773e-05
3.81694e-05
3.36788e-05
3.77291e-05
3.8837e-05
3.93923e-05
3.97419e-05
3.94626e-05
3.67493e-05
3.7203e-05
2.84681e-05
3.3452e-05
3.99302e-05
3.07861e-05
3.77961e-05
3.53712e-05
3.09477e-05
3.5865e-05
3.76452e-05
3.57078e-05
3.79521e-05
3.86984e-05
3.00775e-05
3.53964e-05
3.64735e-05
2.99293e-05
3.3471e-05
3.57906e-05
3.53255e-05
3.79194e-05
3.01378e-05
2.98891e-05
3.57926e-05
3.44003e-05
4.02102e-05
4.06279e-05
3.97795e-05
3.4772e-05
3.51533e-05
3.68721e-05
3.44583e-05
3.86677e-05
3.00569e-05
3.63363e-05
3.53598e-05
4.00607e-05
3.81397e-05
3.51897e-05
3.63253e-05
3.91816e-05
2.97548e-05
3.66194e-05
3.97298e-05
3.43993e-05
2.52713e-05
3.58491e-05
3.00009e-05
3.68682e-05
2.76963e-05
3.93799e-05
4.03668e-05
3.92254e-05
3.67463e-05
3.0138e-05
2.96992e-05
3.88678e-05
3.95271e-05
3.9085e-05
3.67405e-05
3.5725e-05
3.82065e-05
3.96579e-05
3.88684e-05
2.84076e-05
3.48434e-05
3.77393e-05
3.77037e-05
3.41184e-05
3.72012e-05
2.83248e-05
3.9683e-05
3.90202e-05
3.6575e-05
3.69e-05
3.77594e-05
3.60212e-05
4.01398e-05
3.79679e-05
3.06339e-05
3.55979e-05
3.8352e-05
3.53078e-05
3.61707e-05
3.74125e-05
2.78163e-05
3.1034e-05
3.95807e-05
3.99207e-05
3.89664e-05
4.00444e-05
3.76991e-05
3.92302e-05
3.70447e-05
3.66135e-05
3.77178e-05
3.91979e-05
3.363e-05
3.53493e-05
3.44335e-05
3.61007e-05
3.88602e-05
2.74835e-05
3.66407e-05
2.8607e-05
3.90461e-05
2.873e-05
2.88074e-05
3.56498e-05
2.77186e-05
3.57984e-05
3.71513e-05
3.90531e-05
3.92443e-05
3.33785e-05
3.33984e-05
4.05613e-05
3.26566e-05
3.03835e-05
3.52979e-05
3.2445e-05
3.96534e-05
3.77095e-05
3.67223e-05
2.98895e-05
3.85193e-05
3.87525e-05
3.97045e-05
2.91325e-05
3.21412e-05
3.65854e-05
3.79523e-05
4.04039e-05
3.06667e-05
2.93133e-05
3.79962e-05
3.62024e-05
3.99803e-05
3.64826e-05
2.7578e-05
3.7444e-05
3.86903e-05
2.94269e-05
2.78046e-05
3.92873e-05
3.11955e-05
3.10831e-05
3.94927e-05
3.99222e-05
3.85067e-05
4.09341e-05
3.60451e-05
3.43451e-05
3.94545e-05
3.26376e-05
3.96267e-05
3.34625e-05
3.71724e-05
3.89668e-05
3.55899e-05
2.93977e-05
3.88614e-05
3.91824e-05
3.43734e-05
3.5836e-05
3.62209e-05
3.21997e-05
3.43065e-05
3.66919e-05
3.65492e-05
3.92456e-05
3.40093e-05
3.80013e-05
2.90775e-05
3.83473e-05
4.01154e-05
2.81527e-05
3.85147e-05
3.67011e-05
2.63154e-05
2.93217e-05
3.66087e-05
3.6121e-05
3.86836e-05
3.41707e-05
3.05548e-05
3.88132e-05
3.97208e-05
3.92772e-05
3.74366e-05
3.9862e-05
2.93722e-05
3.94846e-05
3.60813e-05
2.98793e-05
2.97126e-05
2.53632e-05
3.04325e-05
3.77941e-05
3.44743e-05
3.72376e-05
3.63873e-05
3.1973e-05
3.3064e-05
2.78459e-05
2.76306e-05
4.05227e-05
4.0147e-05
3.06598e-05
3.95596e-05
3.89032e-05
3.03145e-05
3.56758e-05
3.62433e-05
3.19658e-05
3.41021e-05
3.98844e-05
3.15007e-05
2.73892e-05
3.9789e-05
3.98746e-05
3.30356e-05
3.95421e-05
3.38426e-05
3.16776e-05
3.02477e-05
3.55458e-05
2.91415e-05
2.98593e-05
3.68919e-05
3.78053e-05
3.53155e-05
3.877e-05
3.95271e-05
3.57198e-05
3.91521e-05
2.18158e-05
3.55355e-05
2.95958e-05
3.63302e-05
3.90136e-05
3.57785e-05
3.30687e-05
3.56581e-05
3.0739e-05
3.74344e-05
3.57863e-05
3.33642e-05
2.93383e-05
2.73401e-05
2.68295e-05
3.41902e-05
2.9718e-05
3.5384e-05
3.01271e-05
3.44317e-05
3.93987e-05
3.69416e-05
3.44895e-05
3.65394e-05
3.76933e-05
3.57339e-05
3.8548e-05
2.82369e-05
3.65471e-05
3.96946e-05
3.98831e-05
3.51591e-05
4.08869e-05
3.18103e-05
3.77574e-05
3.54749e-05
2.88865e-05
3.84863e-05
3.98511e-05
3.78188e-05
3.81045e-05
3.87423e-05
3.68427e-05
2.70007e-05
2.80051e-05
3.51872e-05
4.02082e-05
3.63183e-05
3.91729e-05
3.34335e-05
3.45887e-05
3.11895e-05
2.88246e-05
2.89435e-05
2.84277e-05
3.79259e-05
3.69499e-05
3.95313e-05
3.47543e-05
3.39596e-05
4.05856e-05
2.89695e-05
3.63384e-05
3.97474e-05
3.90945e-05
3.37424e-05
3.50691e-05
3.84028e-05
3.95734e-05
3.92443e-05
3.01492e-05
3.65955e-05
3.86186e-05
3.7222e-05
3.63332e-05
4.01004e-05
3.82238e-05
3.96376e-05
3.71959e-05
3.26291e-05
3.6838e-05
3.9112e-05
3.79219e-05
3.58784e-05
2.93302e-05
3.94049e-05
3.90669e-05
3.85029e-05
3.88798e-05
2.84432e-05
2.60342e-05
3.52657e-05
3.81066e-05
3.44246e-05
3.73443e-05
3.85719e-05
3.88959e-05
3.90463e-05
3.3852e-05
3.81353e-05
3.60421e-05
3.88025e-05
2.96118e-05
2.95169e-05
3.47661e-05
3.94921e-05
3.04879e-05
3.88135e-05
2.97727e-05
3.50243e-05
3.61313e-05
3.97538e-05
3.51023e-05
3.93498e-05
3.92401e-05
3.84089e-05
3.67972e-05
3.82093e-05
3.62595e-05
3.3706e-05
2.7301e-05
4.02856e-05
2.51853e-05
2.82686e-05
3.10509e-05
2.79633e-05
2.81161e-05
3.49253e-05
3.67295e-05
3.00135e-05
3.34895e-05
2.59384e-05
3.04178e-05
3.44439e-05
3.93843e-05
2.84002e-05
2.89084e-05
3.85752e-05
2.84884e-05
3.50254e-05
3.77407e-05
3.71892e-05
3.57232e-05
2.98571e-05
2.80995e-05
3.38373e-05
4.01545e-05
3.1675e-05
2.90633e-05
3.68242e-05
3.3329e-05
3.67494e-05
3.59332e-05
2.995e-05
3.91387e-05
2.75017e-05
2.87065e-05
3.45401e-05
3.89583e-05
3.34943e-05
3.47339e-05
3.50171e-05
3.65619e-05
2.70034e-05
3.09365e-05
3.49142e-05
3.961e-05
3.80982e-05
2.85743e-05
2.62738e-05
3.46686e-05
4.0413e-05
3.56898e-05
3.59731e-05
3.31858e-05
3.53397e-05
3.60343e-05
2.9475e-05
3.96512e-05
3.31543e-05
2.92127e-05
2.62823e-05
3.82661e-05
3.61526e-05
3.96264e-05
3.66694e-05
3.88464e-05
2.94238e-05
3.45885e-05
2.73299e-05
2.57638e-05
3.83075e-05
3.02198e-05
3.47882e-05
3.63005e-05
3.71151e-05
2.91888e-05
3.97231e-05
3.86953e-05
3.99572e-05
3.7151e-05
2.43444e-05
3.59485e-05
2.76129e-05
3.95646e-05
2.96982e-05
3.94059e-05
2.61476e-05
3.72494e-05
3.73868e-05
3.30359e-05
3.37696e-05
2.69787e-05
3.25211e-05
3.60316e-05
3.83927e-05
3.76048e-05
3.96109e-05
3.8816e-05
2.96764e-05
3.97493e-05
3.46723e-05
3.68527e-05
3.74626e-05
3.90332e-05
3.84927e-05
3.60607e-05
3.97485e-05
3.49233e-05
3.3257e-05
3.30768e-05
3.69341e-05
3.87951e-05
3.27577e-05
3.06577e-05
3.91066e-05
3.71154e-05
3.56269e-05
4.04312e-05
3.71841e-05
3.6792e-05
3.75282e-05
3.89645e-05
3.88379e-05
3.59356e-05
3.48327e-05
3.88674e-05
3.79184e-05
3.16545e-05
3.59829e-05
3.21934e-05
3.96556e-05
3.6934e-05
3.93831e-05
2.96578e-05
2.96293e-05
3.63738e-05
3.82539e-05
3.81748e-05
3.96256e-05
3.89065e-05
3.61085e-05
3.7894e-05
3.02235e-05
3.586e-05
3.58961e-05
3.93807e-05
3.90469e-05
3.95081e-05
3.55645e-05
3.98814e-05
3.12593e-05
3.95185e-05
3.24338e-05
3.53011e-05
3.41401e-05
3.64335e-05
3.53811e-05
3.81876e-05
2.87451e-05
3.90613e-05
3.84962e-05
3.50268e-05
2.98028e-05
3.96222e-05
3.78478e-05
3.88838e-05
3.56032e-05
3.62154e-05
3.83303e-05
2.90662e-05
3.95498e-05
3.50706e-05
3.64617e-05
3.19899e-05
3.27331e-05
3.22578e-05
2.86085e-05
3.36665e-05
4.04322e-05
3.65006e-05
2.75436e-05
3.63731e-05
2.8553e-05
3.67126e-05
3.70556e-05
2.73268e-05
2.85085e-05
3.28062e-05
3.63893e-05
3.83316e-05
3.37673e-05
3.83556e-05
3.52327e-05
3.2702e-05
3.32154e-05
3.96382e-05
3.92148e-05
3.91675e-05
3.82646e-05
3.73621e-05
2.9286e-05
3.03113e-05
3.99341e-05
3.46251e-05
3.63818e-05
3.82538e-05
4.03794e-05
3.65226e-05
3.75907e-05
2.75101e-05
3.85037e-05
3.91281e-05
3.36141e-05
3.95027e-05
3.91008e-05
3.70576e-05
3.39192e-05
3.78256e-05
3.40047e-05
2.70833e-05
3.65216e-05
3.03531e-05
2.86295e-05
3.64102e-05
3.611e-05
3.81289e-05
3.81539e-05
3.68372e-05
3.96633e-05
2.59094e-05
3.3598e-05
3.96194e-05
3.94892e-05
2.76271e-05
3.6428e-05
3.09808e-05
3.39056e-05
3.96848e-05
3.28487e-05
3.74162e-05
4.0255e-05
3.78898e-05
2.73102e-05
3.83605e-05
2.94647e-05
3.93047e-05
3.8123e-05
3.73259e-05
3.94773e-05
3.68424e-05
3.91746e-05
2.93424e-05
3.89489e-05
3.93404e-05
3.07235e-05
3.73806e-05
3.59902e-05
3.40862e-05
3.85733e-05
3.45738e-05
3.89279e-05
3.97582e-05
4.01025e-05
3.58172e-05
3.90674e-05
3.61517e-05
3.8116e-05
3.1637e-05
3.35824e-05
2.87797e-05
2.81683e-05
3.69296e-05
3.77224e-05
3.59689e-05
3.97339e-05
3.49122e-05
3.97753e-05
2.78425e-05
3.99472e-05
4.00631e-05
3.77359e-05
3.99488e-05
3.12222e-05
2.73769e-05
3.55121e-05
2.87253e-05
3.92693e-05
3.61949e-05
2.74596e-05
3.4775e-05
4.02355e-05
3.71517e-05
2.87822e-05
3.19722e-05
2.72705e-05
4.05415e-05
2.85182e-05
3.86577e-05
3.33395e-05
2.96355e-05
3.92143e-05
3.9384e-05
3.9371e-05
3.82855e-05
2.91161e-05
3.71302e-05
3.95187e-05
3.06762e-05
3.95243e-05
3.67828e-05
3.97561e-05
2.72878e-05
3.83276e-05
3.36149e-05
3.72675e-05
3.35314e-05
3.53383e-05
3.41133e-05
3.32093e-05
3.43418e-05
3.47604e-05
3.78316e-05
3.55311e-05
4.00361e-05
3.06765e-05
3.56599e-05
3.60976e-05
3.82746e-05
3.95028e-05
2.92819e-05
3.87711e-05
3.02346e-05
3.5575e-05
3.93696e-05
3.92248e-05
3.45854e-05
3.72245e-05
3.76981e-05
3.37197e-05
3.60854e-05
3.4913e-05
2.87642e-05
2.87934e-05
3.7298e-05
3.85788e-05
3.56734e-05
3.40856e-05
3.86528e-05
2.98485e-05
3.69295e-05
2.99937e-05
3.78891e-05
3.98026e-05
3.62428e-05
2.90583e-05
3.86562e-05
2.84455e-05
3.71741e-05
3.93415e-05
2.75385e-05
4.03921e-05
3.05353e-05
3.37228e-05
3.44802e-05
2.91419e-05
3.36187e-05
3.42205e-05
2.70286e-05
3.88141e-05
3.9271e-05
2.54342e-05
3.3447e-05
3.78625e-05
3.59876e-05
3.70872e-05
4.02378e-05
3.87408e-05
3.51167e-05
3.22405e-05
2.78146e-05
2.67976e-05
3.17761e-05
4.00119e-05
3.87086e-05
3.7859e-05
3.80339e-05
2.93862e-05
2.89908e-05
3.55186e-05
3.86035e-05
2.74219e-05
3.77378e-05
3.6117e-05
3.4785e-05
3.79359e-05
3.39354e-05
3.8337e-05
3.26658e-05
3.54569e-05
3.96386e-05
2.48526e-05
3.69922e-05
3.8682e-05
3.8951e-05
3.76516e-05
3.88104e-05
3.63742e-05
2.91345e-05
4.00756e-05
4.10976e-05
3.63095e-05
3.60862e-05
3.36862e-05
3.57072e-05
3.76336e-05
3.84438e-05
3.62129e-05
3.52569e-05
3.50327e-05
2.79499e-05
3.39796e-05
3.98412e-05
3.7485e-05
4.1028e-05
3.62047e-05
3.48659e-05
3.97484e-05
2.93609e-05
3.82563e-05
2.91046e-05
3.944e-05
3.76008e-05
3.40434e-05
4.0677e-05
3.35737e-05
3.55207e-05
3.97374e-05
3.4596e-05
3.97132e-05
3.81162e-05
3.81397e-05
2.88634e-05
3.60128e-05
3.57235e-05
3.13611e-05
3.87401e-05
3.46849e-05
3.46735e-05
3.97077e-05
2.94834e-05
3.95422e-05
3.60128e-05
3.91788e-05
3.34166e-05
3.67914e-05
2.89951e-05
3.00506e-05
4.02385e-05
2.97136e-05
3.58447e-05
3.83546e-05
2.85295e-05
3.51022e-05
3.87169e-05
3.33411e-05
3.00594e-05
3.24139e-05
3.46415e-05
3.43376e-05
3.83437e-05
3.47707e-05
3.88773e-05
3.66096e-05
3.88637e-05
2.69821e-05
3.15089e-05
3.97164e-05
3.52888e-05
2.8228e-05
3.01125e-05
3.58079e-05
2.99205e-05
2.90324e-05
3.60801e-05
3.54506e-05
4.03485e-05
3.43568e-05
3.88915e-05
3.88139e-05
3.84939e-05
3.89756e-05
3.90408e-05
3.42539e-05
3.33938e-05
3.88266e-05
3.52331e-05
3.43058e-05
3.92186e-05
3.5839e-05
2.79179e-05
2.86047e-05
3.49812e-05
3.10187e-05
3.75287e-05
3.8516e-05
3.47041e-05
3.89911e-05
3.87064e-05
3.82097e-05
4.0885e-05
3.49754e-05
2.91265e-05
3.43589e-05
3.44676e-05
3.85179e-05
3.46926e-05
3.77007e-05
3.93317e-05
3.48641e-05
3.35604e-05
3.64102e-05
3.96657e-05
3.79385e-05
4.12323e-05
3.82339e-05
3.45756e-05
3.53625e-05
3.10153e-05
3.35484e-05
3.97115e-05
3.15162e-05
4.0037e-05
3.41697e-05
3.877e-05
2.86833e-05
3.78552e-05
3.61254e-05
3.85135e-05
3.54842e-05
3.74318e-05
3.57084e-05
3.89363e-05
2.79669e-05
3.07025e-05
3.61359e-05
3.37961e-05
3.66961e-05
3.6052e-05
3.62901e-05
3.93306e-05
3.64157e-05
2.76547e-05
3.24263e-05
2.89613e-05
3.65766e-05
3.57225e-05
2.96691e-05
4.09701e-05
3.61275e-05
3.52887e-05
3.84301e-05
3.17415e-05
2.9963e-05
4.00001e-05
2.99661e-05
2.84659e-05
3.52313e-05
3.43116e-05
3.00373e-05
3.26689e-05
3.9707e-05
3.89539e-05
3.4026e-05
3.65784e-05
3.86346e-05
3.58541e-05
3.8159e-05
2.79177e-05
3.92325e-05
2.2062e-05
3.85907e-05
2.93972e-05
2.87633e-05
3.87727e-05
2.8546e-05
3.55085e-05
3.69024e-05
3.87162e-05
3.35043e-05
3.77053e-05
3.46758e-05
3.56827e-05
3.40934e-05
3.7903e-05
3.67679e-05
3.90351e-05
3.62311e-05
2.97371e-05
3.79274e-05
3.57901e-05
3.53434e-05
3.57107e-05
3.10506e-05
3.3097e-05
2.79086e-05
2.8883e-05
3.60471e-05
3.47186e-05
3.05244e-05
3.36148e-05
3.8571e-05
3.96884e-05
3.93582e-05
2.15927e-05
2.77639e-05
3.93304e-05
2.86264e-05
3.78573e-05
2.80693e-05
3.92644e-05
3.85294e-05
3.8693e-05
2.95089e-05
3.49936e-05
3.96274e-05
3.94964e-05
3.68159e-05
3.95365e-05
3.57241e-05
3.65347e-05
3.56475e-05
2.90236e-05
3.64896e-05
3.28752e-05
3.58959e-05
3.55541e-05
3.09849e-05
3.52854e-05
3.94717e-05
3.22961e-05
3.27345e-05
2.88508e-05
3.85178e-05
3.83163e-05
2.69189e-05
3.55656e-05
3.59421e-05
3.71939e-05
2.93521e-05
3.61557e-05
3.56933e-05
4.05596e-05
2.82735e-05
3.53656e-05
3.53449e-05
2.72658e-05
3.90537e-05
3.00751e-05
3.02447e-05
3.68147e-05
3.97587e-05
2.7873e-05
3.88547e-05
3.72024e-05
3.61834e-05
2.76247e-05
3.95976e-05
3.97743e-05
2.75595e-05
3.61687e-05
2.68559e-05
3.02532e-05
3.95923e-05
3.40444e-05
3.66419e-05
3.84857e-05
4.00172e-05
3.47641e-05
3.35447e-05
3.51847e-05
3.48807e-05
3.64199e-05
3.35563e-05
3.93844e-05
2.96652e-05
3.39407e-05
3.57685e-05
3.44602e-05
3.82069e-05
3.52865e-05
3.76712e-05
3.78125e-05
3.62373e-05
3.96357e-05
3.78102e-05
3.44224e-05
3.23871e-05
3.81769e-05
3.49473e-05
3.40002e-05
3.75023e-05
3.98665e-05
3.80024e-05
3.80627e-05
3.35237e-05
3.78505e-05
3.26725e-05
2.89398e-05
3.56299e-05
3.68899e-05
2.86914e-05
3.72387e-05
3.52129e-05
2.5654e-05
2.89076e-05
3.79553e-05
2.85825e-05
3.47252e-05
3.81845e-05
3.69654e-05
2.88469e-05
3.6813e-05
4.0577e-05
2.99018e-05
2.90235e-05
2.96723e-05
3.91727e-05
3.58459e-05
3.51003e-05
3.89068e-05
2.87338e-05
3.77939e-05
3.62227e-05
3.97774e-05
3.98466e-05
2.34769e-05
3.62447e-05
3.74415e-05
3.79928e-05
3.60942e-05
3.54424e-05
3.04156e-05
3.67419e-05
3.9962e-05
3.27681e-05
2.74286e-05
3.40618e-05
3.90106e-05
3.75568e-05
2.83139e-05
3.49029e-05
3.85229e-05
3.93461e-05
3.54902e-05
3.50974e-05
2.68655e-05
2.92957e-05
2.91289e-05
3.60451e-05
3.47908e-05
3.67065e-05
4.01415e-05
3.90739e-05
3.20119e-05
3.89225e-05
3.9205e-05
3.76698e-05
3.35899e-05
3.89257e-05
3.46934e-05
3.02756e-05
3.35065e-05
3.58303e-05
3.69282e-05
3.28375e-05
3.72957e-05
3.3816e-05
3.89504e-05
3.00001e-05
2.73327e-05
3.46094e-05
3.95333e-05
3.80166e-05
3.34832e-05
3.42422e-05
3.83024e-05
3.91631e-05
3.38242e-05
3.44614e-05
3.89178e-05
4.00117e-05
3.79472e-05
3.98161e-05
3.82324e-05
3.81738e-05
2.78233e-05
3.45946e-05
2.90821e-05
3.76035e-05
3.91206e-05
3.33716e-05
2.88761e-05
3.97537e-05
2.86502e-05
3.27096e-05
3.02662e-05
3.53352e-05
2.81832e-05
3.72304e-05
3.57179e-05
3.5395e-05
3.58052e-05
3.10646e-05
3.94117e-05
2.96731e-05
3.75479e-05
3.57677e-05
3.50788e-05
2.86631e-05
3.84809e-05
3.72772e-05
3.04757e-05
3.16488e-05
3.47113e-05
3.41972e-05
3.57555e-05
2.85808e-05
3.67913e-05
3.40756e-05
3.62369e-05
3.27506e-05
3.27786e-05
3.25903e-05
2.90665e-05
3.84922e-05
3.57926e-05
1.25455e-05
2.99922e-05
3.64007e-05
3.92201e-05
3.83291e-05
3.06701e-05
3.0233e-05
3.92737e-05
2.92812e-05
3.85321e-05
3.97084e-05
3.64539e-05
3.0035e-05
3.91908e-05
2.85093e-05
2.69969e-05
2.69347e-05
3.74885e-05
3.52933e-05
3.32583e-05
3.98533e-05
3.7848e-05
3.65292e-05
3.03212e-05
2.60327e-05
4.01933e-05
3.61798e-05
4.03116e-05
3.90919e-05
2.89226e-05
3.51375e-05
3.47103e-05
3.45062e-05
3.56099e-05
3.32402e-05
3.45263e-05
4.14686e-05
3.63396e-05
3.39822e-05
2.95021e-05
3.68156e-05
3.52273e-05
3.75968e-05
3.40126e-05
2.86467e-05
2.97362e-05
3.70678e-05