/*--------------------------------*- C++ -*----------------------------------*\
| =========                 |                                                 |
| \\      /  F ield         | OpenFOAM: The Open Source CFD Toolbox           |
|  \\    /   O peration     | Version:  2212                                  |
|   \\  /    A nd           | Website:  www.openfoam.com                      |
|    \\/     M anipulation  |                                                 |
\*---------------------------------------------------------------------------*/
FoamFile
{
    version     2.0;
    format      ascii;
    arch        "LSB;label=32;scalar=64";
    class       volScalarField;
    location    "0.048";
    object      p;
}
// * * * * * * * * * * * * * * * * * * * * * * * * * * * * * * * * * * * * * //

dimensions      [0 2 -2 0 0 0 0];

internalField   nonuniform List<scalar> 
31639
(
0.0119238
0.00829628
0.0136228
0.00606964
0.00837831
0.0116803
0.0130888
0.0124644
0.00885782
0.0075623
0.0129734
0.00844776
0.00877789
0.0114165
0.00993593
0.0139439
0.0161799
0.0165402
0.00271063
0.0126906
0.00923358
0.0071343
0.00971102
0.00600662
0.0104227
0.0123398
0.0119987
0.0379086
0.0125405
0.0125129
0.00671509
0.0178616
0.00891505
0.0048255
0.0217103
0.012448
0.0071618
0.0130119
0.0129941
0.0106298
0.00849193
0.0121681
0.00951112
0.0132043
0.0136013
0.00567568
0.00852424
0.00672892
0.0146075
0.0061258
0.00564956
0.00452966
0.0221296
0.0134959
0.00441879
0.0165168
0.00725316
0.0120803
0.00830541
0.0057904
0.00635379
0.0121776
0.0101051
0.0124414
0.0219379
0.00357944
0.00219649
0.00695749
0.00861847
0.00538975
0.00766022
0.0162959
0.00747547
0.00322763
0.02223
0.0176926
0.00767776
0.00710636
0.00823229
0.00781687
0.0118822
0.011407
0.0112376
0.00625302
0.0111107
0.0102976
0.00952541
0.00672817
0.00219389
0.00896633
0.0050931
0.0162247
0.00594778
0.0079175
0.00379642
0.0120083
0.00646284
0.00457133
0.00868147
0.0115185
0.0205089
0.0204823
0.0104605
0.0079517
0.00441146
0.00550776
0.0116954
0.00583322
0.00676909
0.0105373
0.0130522
0.0113684
0.0121588
0.00715776
0.0031843
0.0127009
0.0218059
0.0134688
0.0206142
0.00638951
0.0180311
0.00552535
0.00287358
0.00609963
0.0116243
0.0114261
0.0082138
0.00619258
0.00755647
0.00914625
0.0215741
0.000953385
0.0138064
0.00324356
0.00389216
0.00692703
0.0072458
0.00792585
0.00568992
0.00634768
0.00628794
0.00935465
0.0102011
0.00583927
0.00851934
0.0111074
0.0207517
0.00723622
0.0107278
0.0221595
0.00648467
0.0149217
0.00464438
0.00418144
0.00542497
0.00414015
0.00305429
0.00761372
0.0145065
0.00688016
0.00378458
0.0163479
0.00733291
0.0121408
0.0173297
0.0174035
0.0135505
0.0151678
0.00477094
0.00332331
0.0156307
0.0114036
0.0154577
0.00887067
0.0110263
0.00740861
0.00998866
0.0179629
0.00695099
0.0104917
0.00868574
0.0143326
0.0122094
0.0127035
0.0127514
0.0124771
0.0149323
0.0104966
0.0114215
0.014168
0.0144279
0.00751652
0.0146605
0.00445616
0.00508542
0.00528183
0.00509215
0.00808171
0.00519863
0.012884
0.0108048
0.0163816
0.0143632
0.0152747
0.00739872
0.00614966
0.00257245
0.00435231
0.0182898
0.00498424
0.00498236
0.0106165
0.0206156
0.0110223
0.013273
0.0111206
0.0111364
0.0111063
0.0155725
0.00832432
0.00861201
0.010617
0.0112288
0.0155801
0.0135521
0.0077359
0.0139654
0.0136907
0.00968922
0.0177461
0.00467514
0.0128818
0.0163564
0.0141692
0.0145384
0.00246248
0.00227015
0.0148078
0.012199
0.00440623
0.00625018
0.0133411
0.015496
0.0146011
0.00644709
0.0167287
0.00492798
0.0172771
0.0141349
0.00249413
0.000718544
0.00567916
0.0144855
0.0166128
0.00806841
0.00862773
0.0120881
0.00371105
0.0119444
0.0137968
0.00577271
0.00463763
0.00808213
0.0114163
0.00815573
0.0110719
0.00182145
0.0210063
0.0131853
0.0117692
0.0269129
0.00550157
0.0120042
0.014883
0.00715349
0.0140111
0.00510625
0.0156329
0.00694332
0.00568589
0.0175093
0.017992
0.0178698
0.0237522
0.0128163
0.012865
0.0156502
0.0149245
0.00283336
0.0144439
0.0160876
0.00129049
0.00462874
0.00463897
0.0135765
0.00400598
0.0162562
0.00216277
0.0063636
0.0073677
0.00684939
0.0156032
0.00494288
0.00442854
0.0099028
0.0039783
0.011298
0.00261737
0.00954404
0.0156681
0.00661321
0.0262278
0.0209711
0.00930079
0.00853831
0.0120273
0.00230439
0.018076
0.014048
0.0138394
0.0132595
0.00553615
0.0202553
0.00408378
0.0109071
0.0147813
0.013282
0.014946
0.0048126
0.005565
0.00576956
0.00606223
0.0159132
0.00454067
0.0163903
0.0217999
0.0223367
0.00691352
0.0151415
0.0171287
0.00386936
0.00189746
0.0166615
0.00348371
0.00498043
0.0154555
0.00419142
0.0136556
0.0134976
0.0203257
0.00765651
0.0156064
0.00761275
0.0144215
0.00439975
0.00576551
0.00493031
0.00994482
0.0100863
0.0150263
0.0164186
0.0100651
0.0261364
0.00282224
0.00698021
0.00629292
0.00336884
0.0100312
0.0107453
0.0149573
0.00973657
0.0182807
0.0114242
0.00537643
0.0036178
0.0060339
0.0210284
0.017586
0.0146557
0.0184233
0.0139145
0.00453384
0.00680567
0.00451493
0.00417548
0.00396053
0.00487112
0.008396
0.000396633
0.0167793
0.00246299
0.0185824
0.00493461
0.0155393
0.00428673
0.0159249
0.0169123
0.0127228
0.00608319
0.0246522
0.0165518
0.0130119
0.0124334
0.00413174
0.0146598
0.00224303
0.00645387
0.00652147
0.00677531
0.0127536
0.00558001
0.00656783
0.0145958
0.0270574
0.0133636
0.0146879
0.0107501
0.0114795
0.0102778
0.00854892
0.00825005
0.0202824
0.00981181
0.000870445
0.0145904
0.0266679
0.0094475
0.0198119
0.0114316
0.0136658
0.00596195
0.00494603
0.0155835
0.00562979
0.012401
0.0124161
0.0151327
0.00369174
0.00455408
0.016201
0.0068561
0.00240808
0.00290501
0.0111803
0.00387079
0.0069563
0.00733241
0.0170214
0.0166379
0.0179823
0.0169258
0.0147359
0.0071726
0.0151286
0.00680363
0.0160943
0.0180784
0.00559055
0.0147884
0.00620024
0.0121513
0.0173675
0.0114974
0.00311422
0.014246
0.0397486
0.00307532
0.00925454
0.00628744
0.0138482
0.00180309
0.00477165
0.00571454
0.00475783
0.0150963
0.00122068
0.00954705
0.0194989
0.00860422
0.0099764
0.00577373
0.0212793
0.00371078
0.00786906
0.0202975
0.0261016
0.00945296
0.0135513
0.0110206
0.00735705
0.00568145
0.0043279
0.0178686
0.00204136
0.0117213
0.0112818
0.0106901
0.00321352
0.00486833
0.0171259
0.0193334
0.00243611
0.00281761
0.00317149
0.00185484
0.0227991
0.00652801
0.00270121
0.0182023
0.0203043
0.0181132
0.00380408
0.0163672
0.0151857
0.0172679
0.00195559
0.0202869
0.0203266
-0.000356786
0.0176114
0.0170226
0.0177119
0.0112501
0.018886
0.00080797
0.00307402
0.0172555
0.00253892
0.00309544
0.00525627
0.0127945
0.00864217
0.0158881
0.00105986
0.0056251
0.00907886
0.0190508
0.00122952
0.0151269
0.00232539
0.0264179
0.0266899
0.00627839
0.0381872
0.00646484
0.00642713
0.0104714
0.010785
0.0074711
0.0102297
0.0274508
0.00750052
0.014804
0.000610565
0.00670714
0.0104121
0.0058696
0.016959
0.00131304
0.00404347
0.0101939
0.00364126
0.00921161
0.00939598
0.00507449
0.021405
0.00370869
0.00260079
0.000378803
0.011898
0.0194974
0.00292727
0.000597892
0.0035937
0.00396981
0.00311397
0.0180936
-4.89217e-05
0.00120369
0.00082067
0.0162963
0.00202893
0.0170436
0.0174119
0.0181588
0.00530728
4.73684e-05
0.000221232
0.00276364
0.000789941
0.0111537
0.000963348
0.0111459
0.0176731
0.00148944
0.00647524
0.00869161
0.0213
0.0196572
0.0154149
0.00734076
0.00353895
0.0204442
0.0175818
0.00164397
0.00180858
0.00757104
0.0128376
0.00527183
0.00110964
8.67859e-05
0.000886616
0.0169592
0.0142162
0.00650353
0.039168
0.0139505
0.0108899
0.00750945
0.0117648
0.0150875
0.0149513
0.0104604
0.00667292
0.00835441
0.00864869
0.0141772
0.00327338
0.01018
0.00120198
0.0110878
0.0258947
0.0180273
0.0166327
0.0123628
0.00973711
0.0235139
0.0109521
0.0131362
0.0058213
0.0208897
0.0196872
0.00286156
0.0108056
0.0122588
0.000215558
0.0239515
0.00659685
0.00111712
0.00321904
0.00182475
0.0212735
0.0194176
0.0198385
0.00299383
0.000105611
0.0168016
0.0112938
0.01772
0.0182552
0.0183233
0.00119575
1.02494e-05
0.0173412
0.0151445
0.0156595
0.0183262
0.00102295
0.00653093
0.0268906
0.00378998
0.0021565
0.0188127
0.0106663
0.00448183
0.0171398
0.0168756
0.0137619
0.00793022
0.0052874
0.0124935
0.00719996
0.000356543
0.000681856
0.00139448
0.00530049
0.00200063
0.0212977
0.00755029
0.000572249
0.000662293
0.016309
0.0057454
0.000696569
0.0394848
0.00534739
0.00636541
0.00857823
0.00968951
0.00820208
0.0104907
0.00990724
0.00665599
0.00765234
0.0110362
0.00704145
0.0065728
0.00745435
0.00983711
0.0187654
0.0106292
0.010046
0.0164702
0.0213169
0.0179393
0.00501519
0.00988891
0.00284034
0.0111815
0.0221262
0.000846941
0.00204895
0.00186312
0.00569377
0.00660106
0.0163552
0.0156755
0.00464493
0.00190509
0.0127696
0.0212042
0.000516565
0.0174138
0.00693624
0.0161099
0.0147601
0.0156061
0.0200461
0.0186406
0.0241143
0.0170979
0.0142919
0.0177553
0.0160435
0.0165935
0.00596779
0.0209132
0.00586386
0.00153712
0.00390037
0.0162588
7.09947e-05
0.013428
0.00317327
0.00441914
0.0134933
0.0080825
0.0201906
0.00374522
0.0141037
0.00456384
0.0232252
0.00668749
0.000590853
0.000967319
0.0189389
0.0126595
0.00086229
0.00207583
0.00118927
0.00400714
0.000550603
0.000264868
0.015947
0.0154545
0.000166582
0.0154887
0.0136921
0.0165797
0.00906962
0.00896541
0.00725395
0.0116464
0.0122154
0.00566492
0.000916939
0.0106812
0.0146251
0.0108075
0.0200078
0.0179428
0.0107144
0.0174734
0.00661269
0.026939
0.00315042
0.0175614
0.0105085
7.76341e-05
0.0119676
0.00306342
0.00640667
0.00264117
0.0026478
0.0134376
0.0190805
0.00466788
0.0168515
0.000807245
0.00079517
0.000849833
0.0222147
0.0223763
0.0212679
0.0228889
0.0188531
0.0174173
0.00584398
0.00374533
0.00645365
0.00170252
0.012446
0.00557319
0.014656
0.00810245
0.0064861
0.0020121
-0.000118714
0.00473648
0.00252689
0.01985
0.00861787
0.00465048
0.0044702
0.00827037
0.000802457
0.0139563
0.00451425
0.0174506
0.00334515
0.00226318
0.0114527
0.0114028
0.0177991
0.0211422
0.0184955
0.0140746
0.00790594
0.00858814
0.0167777
0.000117942
0.000934341
0.0164943
0.0168629
-0.000120624
0.000361969
0.00236826
0.0166191
0.00435779
0.0101003
0.0214167
0.0209456
0.010672
0.025078
0.00805403
0.00695893
0.00717821
0.00463505
0.00287539
0.0175339
0.00296383
0.0106899
0.0129575
0.0197548
0.00622702
0.00719895
0.00683641
0.0159205
0.0161316
0.0161424
0.0229421
0.00213108
0.0186159
0.0183259
0.0187256
0.0101519
0.000365944
0.0220346
0.0226929
0.0208922
0.0123258
0.0130478
0.0142221
0.0132636
0.0158496
0.012171
0.000503808
0.0166462
0.00773832
0.00529103
0.0169302
0.00127933
0.000750628
0.00295202
0.00277243
0.0202727
0.00814454
0.00297437
0.00414727
0.00736163
0.015005
0.00703062
0.00645111
0.0135388
0.00945973
0.000276751
0.0174479
0.0110479
0.0183444
0.00922829
0.00191885
0.0141951
0.0141125
0.000698821
0.00814624
0.00757725
0.000550843
0.000680752
0.0172893
0.0198608
0.00799647
0.0103573
0.00119115
0.0183832
0.0229062
0.0192026
0.0132546
0.00618281
0.0180432
0.0136042
0.00716848
0.00999841
0.00554419
0.00564196
0.00892764
0.0170289
0.00306734
0.0111416
0.0070216
0.00633486
0.000203495
0.0190391
0.00745452
0.0196464
0.00540313
0.0160872
0.0185752
0.00923144
0.00925975
0.0193788
0.0156857
0.0176396
0.00682267
0.00791012
0.0155807
0.0148679
0.0118014
0.0125174
0.0181468
0.0185833
0.0244779
0.0143759
0.0162263
0.00102478
0.000664488
0.016642
0.0151873
0.00780341
0.0180546
0.00258594
0.012705
0.0141631
0.0177812
0.0021902
0.018235
0.0165665
0.0197521
0.0187804
0.019633
0.00924545
0.0168757
0.00748513
0.0129917
0.0125913
0.0119657
0.0204307
0.0189149
0.0183186
0.0154795
0.00838443
0.0109287
0.0120584
0.0185899
0.011929
4.0064e-05
0.0193665
0.0213338
0.0100595
0.00847813
0.00355914
0.00252157
0.00707131
0.0187728
0.00587125
0.00628472
0.0231446
0.00941455
0.00349399
0.00481291
0.000406332
0.00899081
0.0101752
0.00925494
0.0173489
0.000614289
0.0200631
0.00178486
0.0194809
0.0188316
0.0229962
0.00885155
0.00911344
0.00775529
0.0145757
0.0129662
0.0151615
0.0234224
0.0170365
0.018045
0.011944
0.0145378
0.00859388
0.015278
0.0132516
0.00290273
0.00263316
0.0106654
0.00084488
0.00759729
0.0202166
0.021309
0.00386492
0.019564
0.0127003
0.0205512
0.0112881
0.0115735
0.00155187
0.000854216
0.0149368
0.0135004
0.00650358
0.00856168
0.00809183
0.0125356
0.00866481
0.016952
0.0181674
0.0232918
0.0179139
0.0193269
0.0117001
0.00823448
0.00962504
0.000857533
0.00165034
0.00315833
0.00847356
0.00765214
0.0134336
0.00790865
0.0141523
0.016045
0.017776
0.00818717
0.00509147
0.0237711
0.0124444
0.0213002
0.0210429
0.00935108
0.0214846
0.00217394
0.0181476
0.00542073
0.0101916
0.00405185
0.00791054
0.00886266
0.0203579
0.0207242
0.000654477
0.0186344
0.0222659
0.0254237
0.00826423
0.015684
0.0179891
0.0182567
0.00735539
0.00793307
0.0169595
0.0256701
0.0168785
0.00311595
0.014908
0.0250944
0.0145392
0.01431
0.0138868
0.00690569
0.0210385
0.0182006
0.0212178
0.00184291
0.0151985
0.00122812
0.0125372
0.0177886
0.00380603
0.0179417
0.0055297
0.017025
0.0231744
0.0100106
0.000493467
0.0113443
0.0121192
0.000701398
0.00750455
0.00759604
0.0119618
0.00875115
0.0244781
0.0195239
0.00768011
0.00757718
0.0188955
0.0106238
0.017974
0.0237413
0.0182906
0.00063117
0.000610022
0.0193569
0.016814
0.0117662
0.0131132
0.0150393
0.0124619
0.0129482
0.0212144
0.0185702
0.0223033
0.0167422
0.014672
0.00206677
0.0214567
0.00282945
0.00811065
0.0200507
0.0214749
0.0173426
0.00906186
0.00810702
0.000438109
0.0187802
0.0115986
0.0199035
0.0109296
0.0210811
0.0223152
0.0140773
0.0150338
0.00897199
0.00437588
0.024361
0.0115974
0.0148998
0.0115819
0.010684
0.0155208
0.0246506
0.0142737
0.0133594
0.0264632
0.00229977
0.0208254
0.012851
0.0256451
0.0132863
0.0106787
0.0206617
0.0211836
0.00379944
0.0079039
0.00439708
0.00542823
0.0183062
0.00969545
0.010538
0.000427049
0.0084216
0.0306283
0.00865243
0.00904885
0.0124917
0.0128947
0.0121836
0.0192613
0.0197863
0.0142992
0.00765785
0.0195577
0.0109745
0.0202625
0.0181228
0.0182908
0.0201807
0.0206254
0.0189171
0.00721987
0.000569781
0.0216957
0.00654917
0.0227704
0.0253955
0.0237809
0.0086614
0.0217354
0.0145965
0.00230291
0.0018881
0.00317267
0.0193883
0.020107
0.0199806
0.0185234
0.0221983
0.0090751
0.00749418
0.0203446
0.0225471
0.010731
0.0200218
0.0215185
0.0142642
0.00825643
0.0244775
0.0218532
0.0187917
0.0152222
0.0194738
0.0159759
0.0209758
0.00174348
0.0159398
0.0188303
0.0215144
0.0153292
0.0204628
0.0102332
0.0257706
0.0160773
0.002127
0.0194978
0.00466923
0.000127796
0.00441087
0.0153518
0.013066
0.0151865
0.0195479
0.0212065
0.00800269
0.0167589
0.00955733
0.0130165
0.0123316
0.0121505
0.00747723
0.0199475
0.0133657
0.0138894
0.019763
0.0138628
0.00689176
0.00662018
0.0139224
0.0146259
0.0133051
0.0185559
0.0189958
0.00109453
0.0131253
0.0197805
0.0188502
0.0136174
0.0139301
0.0114631
0.0142436
0.024901
0.00123836
0.00682244
0.0207624
0.0031977
0.0091459
0.00989824
0.00943263
0.0230936
0.0244712
0.00305933
0.0250467
0.0222882
0.0159893
0.0159389
0.0226516
0.0165242
0.0209325
0.0196547
0.00391119
0.00872538
0.0238196
0.000432766
0.000705014
0.0228022
0.0212676
0.00371871
0.022563
0.0165834
0.0144898
0.00942569
0.0214032
0.020875
0.0075703
0.0197899
0.0183686
0.0161576
0.0144397
0.000875298
0.00151455
0.00109997
0.0166498
0.0191107
0.0122975
0.0217122
0.0241103
0.0118895
0.0105549
0.00738596
0.00442287
0.0263642
0.000111524
0.00302539
0.00946859
0.00114807
0.00024883
0.000468573
0.0101205
0.00740743
0.000904157
0.0326966
0.0207217
0.015636
0.0242354
0.0135193
0.0260294
0.00423842
0.00836774
0.0087442
0.0250457
0.0251694
0.0135936
0.00710833
0.0142355
0.0128507
0.0168107
0.0156045
0.0162372
0.0190454
0.00141291
0.0203226
0.0205238
0.0206794
0.0200917
0.0168557
0.0166111
0.0127949
0.011781
0.021593
0.0187465
0.00603194
0.00471075
0.0126945
0.0182085
0.0242848
0.00587217
0.00681629
0.00705757
0.018116
0.02292
0.0241368
0.023714
0.00190166
0.00112481
0.0225236
0.00072288
0.0221648
0.0230711
0.00465733
0.0064745
0.00291061
0.0215559
0.0081859
0.018942
0.0148509
0.0149161
0.0232303
0.0237032
0.0106604
0.0260442
0.0258028
0.0175592
0.0161181
5.82058e-05
0.000634285
0.0179259
0.0162175
0.0195745
0.0254775
0.0388814
0.0259461
0.0204618
0.0259678
0.020601
0.00254053
0.0189596
0.0218755
0.00294636
0.0205947
0.00501037
0.000544025
0.0201613
0.000702401
0.00936584
0.0101745
0.0100722
0.00927311
0.000437269
0.00198529
0.00637143
0.0246741
0.0230008
0.0166602
0.00988949
0.0125255
0.00790842
0.00992828
0.0073502
0.00962088
0.0094405
0.00849946
0.0176341
0.015115
0.0202634
0.0149742
0.0203016
0.00139822
0.0198605
0.00101774
0.026237
0.0204718
0.0134007
0.0168564
0.00816228
0.0107246
0.00373797
0.0027344
0.00657028
0.00441599
0.012107
0.0198836
0.00927992
0.015558
0.0142
0.00556244
0.0139554
0.0245992
0.00142478
0.00316745
0.00132018
0.0162139
0.0231167
0.0187039
0.006052
0.00473609
0.0228524
0.00291907
0.0228889
0.0216071
0.0394823
0.0229579
0.0226917
0.0259022
0.0243437
0.0233035
0.0182252
0.00467453
0.0188417
0.00446413
0.0193046
0.0199584
-1.1966e-05
0.0244368
0.0114053
0.00227978
0.0191412
0.0241595
0.0188399
0.0216553
0.0188832
0.00955445
0.0116807
0.0181887
0.0205274
0.0224744
0.0241205
0.000727265
0.00317503
0.0153516
0.0203662
0.0191297
0.0169384
0.0178688
0.0013183
0.0169341
0.0091233
0.00954822
0.00932312
0.00813573
0.0107609
0.0130137
0.000547243
0.0207597
0.0216619
0.0182702
0.00121427
0.0215102
0.0130611
0.0137468
0.0155124
0.0162199
0.0189301
0.0147745
0.0332876
0.0037879
0.0134841
0.0210081
0.016183
0.0161741
0.00313535
0.0146955
0.0230326
0.0257486
0.0189663
0.00869157
0.0223332
0.00795833
0.0149305
0.0238355
0.0251041
0.0149103
0.0253891
0.0251843
0.0250011
0.0232934
0.0157812
0.0242333
0.0229196
0.0201316
0.00899416
0.0181006
0.00712806
0.00196611
0.0185345
0.00586974
0.0236437
0.0240998
0.0234488
0.0218174
0.0138235
0.0219765
0.024841
0.00772895
0.00544388
0.0107364
0.0266093
0.0181159
0.0174574
0.00446905
0.00388717
0.0209701
0.00133317
0.0127059
0.0260644
0.0224129
0.0190483
0.0197042
0.0118124
0.0104442
0.00273819
0.0202975
0.000299918
0.00739639
0.02275
0.000977708
0.00281997
0.00439502
0.0057566
0.00338514
0.0160042
0.0180335
0.0209796
0.0137535
0.00845622
0.0303436
0.00841988
0.00971159
0.0103779
0.0218992
0.019736
0.0248372
0.022351
0.00698591
0.0124538
0.0120932
0.0120741
0.0140981
0.0171382
0.0171886
0.0200024
0.0190134
0.01782
0.0130809
0.00970578
0.00984878
0.00239809
0.0188083
0.0223975
0.0080018
0.00330757
0.0335584
0.0126577
0.0229383
0.0154493
0.0232665
0.0278834
0.01806
0.00809155
0.00687089
0.0148507
0.0247415
0.023589
0.00611387
0.0262531
0.000222189
-0.000221516
0.0226789
0.0252761
0.0126144
0.0104459
0.0211814
0.00539756
0.0236641
0.0255878
0.0102954
0.0209075
0.0217009
0.0322393
0.00584143
0.0244156
0.0143307
0.0149599
0.0205849
0.0245663
0.00273743
0.0191484
0.0262584
0.0255556
0.0273573
0.00584304
0.0214503
0.0209172
0.00301326
0.0169597
0.0244939
0.0175237
0.00245065
0.00760986
0.0161198
0.00528682
0.0177609
0.0075051
0.00064553
0.000833829
0.0107921
0.00310499
0.0233144
0.0136233
0.00595985
0.0104013
0.0241245
0.0242168
0.021451
0.0224663
0.0238441
0.0137409
0.0024706
0.00513981
0.0118935
0.0203431
0.0204138
0.0209646
0.0212006
0.0144548
0.014186
0.0128421
0.0176398
0.0156417
0.0157625
0.0170064
0.0257359
0.0185394
0.0204201
0.0173995
0.0193019
0.0190733
0.00963468
0.0187296
0.0146333
0.00904352
0.0131515
0.0296855
0.0148262
0.0330809
0.0196275
0.00567489
0.00879105
0.0172675
0.0281334
0.0158229
0.0149376
0.00669871
0.0196927
0.000613144
0.00167673
0.000323252
0.0245433
0.0243083
0.02465
0.012669
0.0266314
0.00473609
0.0252486
0.0256229
0.0246279
0.00254729
0.028088
0.0248271
0.00188603
0.0262952
0.0149631
0.0157036
0.0147279
0.0205115
0.0222591
0.0182889
0.019219
0.0203579
0.0125846
0.012126
0.00313403
0.0255675
0.020133
0.023004
0.0176116
0.0223951
0.0250292
0.00929067
0.0240546
0.00246527
0.0179961
0.00853218
0.00097574
0.000156301
0.0108274
0.0225379
0.00849714
0.0205773
0.0209511
0.00706186
0.0220312
0.00819892
0.0264087
0.0209297
0.0260446
0.019635
0.010646
0.0206991
0.0216793
0.0240478
0.00553785
0.0213359
0.0213532
0.0223594
0.0239829
0.0171423
0.0226855
0.0182767
0.00246194
0.0217581
0.00547286
0.0162141
0.0171187
0.0117472
0.0187709
0.028381
0.0143149
0.0132249
0.0139682
0.00968798
0.018204
0.00675617
0.0120843
0.0223086
0.0105557
0.0210625
0.00630831
0.0224774
0.0187762
0.00585419
0.0159167
0.0233774
0.00617595
0.0184591
0.0121407
0.00164788
0.000135976
0.00166075
0.0235567
0.0154674
0.0176418
0.0134415
0.0131604
0.0236267
0.0256189
0.0248212
0.0187949
0.0244421
0.0199861
0.0258369
0.0135949
0.0263172
0.0261566
0.0261511
0.0253429
0.0246044
0.00297285
0.0206901
0.0246878
0.0188048
0.0170118
0.0274793
0.0247556
0.0124347
0.0256675
0.00258501
0.0233176
0.0244139
0.0170481
0.016281
0.0220617
0.0231067
0.0220053
0.00109048
0.0257086
0.0194179
0.00732903
0.000378739
0.0254534
0.00781356
0.0032679
0.00212902
0.000286102
0.0182454
0.0057898
0.0305862
0.00929629
0.0219369
0.0117233
0.0089113
0.0128091
0.0214565
0.00917085
0.0254557
0.0211819
0.0124313
0.0237902
0.0212801
0.0182534
0.0285068
0.0192727
0.0244993
0.0157356
0.0264069
0.0156626
0.0155756
0.00330651
0.0198777
0.018744
0.0198845
0.0229116
0.0167621
0.0264861
0.0198352
0.0192812
0.00268935
0.00591276
0.0265955
0.0139895
0.00518874
0.0140849
0.0350859
0.00851402
0.0274823
0.00638048
0.00125795
0.0105799
0.0109858
0.00974247
0.0181893
0.00559484
0.0169689
0.0212983
0.0151516
0.00504619
0.00546041
0.0249231
0.00154232
0.0185516
0.0172582
0.0114364
0.0232621
0.0277442
0.0120572
0.0232375
0.0217522
0.0192211
0.000383224
0.0187666
0.0209786
0.0248335
0.02533
0.0285909
0.0265736
0.00329777
0.00218154
0.0268278
0.00319018
0.0240607
0.0257415
0.0238864
0.00517915
0.0293746
0.0112824
0.021288
0.0255823
0.0230972
0.0238115
0.0228552
0.0217651
0.0199006
0.0116894
0.0218427
0.0165282
0.00192749
0.0108404
0.023938
0.0217669
0.0281502
0.0296799
0.00151462
0.0154885
0.00253041
0.0048376
0.025004
0.00476999
0.00408267
0.026273
0.00605359
0.010264
0.0151134
0.0254067
0.00026854
0.0248095
0.0213621
0.011746
0.0243858
0.025959
0.0134474
0.0244631
0.0198074
0.0262519
0.0244043
0.0240196
0.0177407
0.0272156
0.0189328
0.00549408
0.00578605
0.0264236
0.0197003
0.0241258
0.0293226
0.0217466
0.0231782
0.0289063
0.00577348
0.0262346
0.0256322
0.0263611
0.0144399
0.0380726
0.00444417
0.00743701
0.0116758
0.0107932
0.0285159
0.00861031
0.0209173
0.0166061
0.0173395
0.0162114
0.00588752
0.0106183
0.00691219
0.0248204
0.00114616
0.026421
0.0269409
0.027242
0.0128755
0.0226101
0.0337124
0.0210039
0.00188091
0.0242488
0.00810847
0.010156
0.0277726
0.0130275
0.0274305
0.0278926
0.018683
0.00295699
0.0247711
0.0237783
0.0246483
0.0183201
0.0243735
0.0243619
0.023505
0.0207596
0.0213719
0.0219939
0.0221035
0.018171
0.016889
0.0016947
0.0253368
0.0153278
0.0164466
0.0179285
0.00911639
0.00764524
0.0305454
0.0237927
0.0217929
0.0277042
0.0286478
0.0107142
0.00438193
0.00740734
0.0299973
0.0154469
0.00787645
0.025635
0.0066729
0.0223742
0.0128206
0.00561306
0.0053738
0.0209742
0.0121765
0.0230043
0.000955923
0.0202398
0.00211097
0.021927
0.0125388
0.0183169
0.0187963
0.0178373
0.023083
0.0223775
0.0252221
0.00776429
0.034406
0.0332075
0.0292325
0.0201521
0.0198939
0.0154806
0.0210698
0.0235167
0.0247183
0.0282542
8.05425e-05
0.0109858
0.0121448
0.037388
0.0253125
0.00313358
0.0260703
0.00318598
0.014856
0.0170504
0.0104062
0.00758156
0.0293739
0.0238837
0.00808847
0.0160208
0.0303031
0.0103215
0.00635217
0.000525738
0.0147952
0.00220089
0.0272682
0.00645779
0.0289422
0.0343387
0.00884125
0.0241425
0.000323095
0.000345229
0.00838122
0.0279282
0.0279199
0.0265961
0.0236228
0.00175924
0.0182439
0.0392109
0.0174601
0.0235101
0.0224104
0.0232794
0.0235961
0.0186941
0.0258582
0.022941
0.00803384
0.00197457
0.00223635
0.00225686
0.0219939
0.0245873
0.0137583
0.02454
0.00577345
0.00598853
0.0068136
0.0211695
0.028651
0.0282437
0.0296496
0.0167745
0.00831523
0.0260247
0.00787593
0.0210724
0.0228646
0.0236582
0.0128887
0.026002
0.0117524
0.021544
0.0223758
0.0213917
0.0113007
0.0160332
0.0397402
0.00999875
0.0025509
0.0204154
0.0174491
0.0217985
0.0140421
0.0163946
0.0177031
0.0188991
0.0156284
0.0228071
0.0329605
0.016929
0.0255922
0.0117793
0.0210207
0.0159733
0.0202808
0.0220354
0.0207676
0.0279937
0.00392803
0.027485
0.018211
0.000861274
0.0119219
0.0288263
0.0258331
0.0152475
0.0036335
0.0233762
0.00843346
0.0296258
0.00849056
0.024173
0.0228967
0.0268823
0.020431
0.0247962
0.0169708
0.00284362
0.0222608
0.0025253
0.027032
0.000261942
0.00093255
0.00563067
0.0020381
0.0184841
0.000955355
0.0298916
0.0301091
0.0253024
0.0260595
0.0283216
0.0283834
0.0274319
0.0277922
0.00775895
0.0302664
0.0273692
0.00601692
0.0259273
0.03188
0.0178421
0.000100836
0.0249877
0.0271358
0.0233509
0.0217788
0.0245656
0.0291823
0.00276348
0.0256877
0.00126919
0.000681054
5.61413e-05
0.0223837
0.0158443
0.00691006
0.0129822
0.0254188
0.0375667
0.0178561
0.0232805
0.0238862
0.0290085
0.00237042
0.0395367
0.026789
0.00777955
0.0190171
0.00923379
0.019995
0.0245587
0.00939566
0.0264151
0.0205502
0.0111483
0.0175352
0.0107368
0.0216988
0.0174243
0.0278206
0.0286055
0.00814027
0.0148622
0.0180467
0.0176001
0.023867
0.0335652
0.0121811
0.0237553
0.0182079
0.011985
0.0154219
0.030331
0.0170733
0.0156353
-0.000158872
0.0322347
0.031538
0.00103181
0.0260148
0.00197902
0.0195904
0.0297631
0.00441714
0.027663
0.0275714
0.0293654
0.0281778
0.0226527
0.0232864
0.0253916
0.00690146
0.0245352
0.00857066
0.00227799
0.0129752
0.00348716
0.0232924
0.0252199
0.0107418
0.0107101
0.0130976
0.0294619
0.00331329
0.0252021
0.0149996
0.0291177
0.0206499
0.0284597
0.0274599
0.0306956
0.0272642
0.00127991
0.0181392
0.0271392
0.0189609
0.0247213
0.023843
0.0050134
0.0286387
0.0217211
0.029983
3.97467e-05
0.0272915
0.00691305
0.0146981
0.00197135
0.0232806
0.0225352
0.0352673
0.0215713
0.00721338
0.0267114
0.0254837
0.000785563
0.000552666
0.0347242
0.0238394
0.00828534
0.0386143
0.00952996
0.0150248
0.0260492
0.000337646
0.0030073
0.0395654
0.00757757
0.011395
0.0112442
0.0185498
0.0254542
0.0146734
0.0106698
0.0260629
0.0292794
0.0270531
0.0252605
0.014851
0.0254733
0.0179051
0.0109871
0.0224615
0.0220926
0.0179456
0.0203096
0.0147406
0.0138415
0.0257238
0.0263969
0.0267942
0.0223039
0.0316661
0.0215488
0.0223588
0.0210282
0.0220569
0.0266807
0.0191817
0.00427686
0.0290228
0.0280923
0.0262365
0.0044502
0.0249739
0.0217772
0.0243753
0.022205
0.029731
0.0260755
0.00340998
0.0105114
0.0294156
0.0296439
0.0320164
0.00289077
0.0143329
0.0100688
0.0274436
0.0265617
0.0284313
0.0317804
0.0320971
0.0276007
0.0315286
0.0271845
0.0267218
0.0171879
0.028469
0.0240837
0.0314741
0.0380178
0.0238721
0.0222997
0.0393207
0.0196844
0.0140182
0.0293254
0.0161886
0.0315183
0.000895196
0.0244772
0.0151476
0.0362343
0.0236361
0.0225491
0.0299936
0.0144248
0.000954335
0.0132471
0.0365281
0.000229025
-0.000165194
0.0241688
0.00940817
0.0101655
0.0100063
0.00718441
0.00609552
0.00681614
0.00548549
0.0107646
0.0279882
0.031327
0.00316792
0.0282605
0.0250611
0.00248775
0.0237695
0.028969
0.0293552
0.0165695
0.0204155
0.0155712
0.0287885
0.0162285
0.0249988
0.0222804
0.0165542
0.0230622
0.0281247
0.0159471
0.0156074
0.0228712
0.02248
0.0190713
0.0306382
0.00358341
0.0322472
0.0196454
0.0167974
0.0184625
0.029021
0.0126707
0.0097721
0.0291307
0.0258428
0.0265593
0.0283501
0.0361689
0.0327235
0.0292651
0.0264689
0.0288683
0.0303795
0.0294396
0.0182656
0.0309548
0.0295546
0.00861252
0.0264549
0.0195944
0.0308697
0.025649
0.0303989
0.015276
0.0273729
0.0193406
0.0224998
0.028447
0.0307552
0.00829858
0.0251243
0.0200142
0.0193064
0.0204145
0.0314414
0.0257775
0.0271716
0.000535696
0.0230925
5.14488e-05
0.0270287
0.00224324
0.0371398
0.00936176
0.0192189
0.00753562
0.00726104
0.00655231
0.0249659
0.0271289
0.0186263
0.019087
0.0249098
0.0169892
0.0284412
0.0292249
0.0212418
0.0320305
0.0277569
0.0322224
0.0279076
0.0261132
0.0300127
0.0169692
0.0220103
0.0227004
0.0180423
0.00403627
0.030263
0.0296932
0.0352047
0.00919796
0.0278118
0.0247981
0.00985123
0.0225879
0.0275802
0.024094
0.0313679
0.0297719
0.0284415
0.0309872
0.0230747
0.029629
0.0309103
0.0299112
0.0293539
0.0245369
0.0274662
0.0217165
0.031718
0.026609
0.0395727
0.0389196
0.0256692
0.0313958
0.0252071
0.0247899
0.02413
0.0206516
0.0291015
0.0258121
0.0278406
0.0290467
0.0318007
0.0280068
0.0238535
0.026558
0.0266398
0.0310249
0.0257513
0.0274528
0.0292076
0.0303433
0.00215757
0.0281042
0.00297399
0.0034127
0.00378077
0.00191765
0.0276561
0.0058978
0.000680626
0.0203681
0.0273984
0.0374946
0.0381815
0.0316612
0.0253732
0.0310511
0.0168949
0.0349491
0.0224215
0.0246531
0.026844
0.029023
0.0190527
0.0286744
0.0299771
0.0217339
0.0233177
0.0298311
0.0235073
0.0343745
0.0299838
0.0332832
0.0102907
0.00188687
0.0277821
0.0275435
0.0270851
0.0334532
0.0284037
0.0340631
0.0284806
0.0306318
0.0179309
0.0318315
0.0229983
0.0306907
0.0244143
0.0310631
0.0319695
0.0194908
0.0282756
0.0209805
0.0292981
0.0209474
0.0296054
0.02572
0.0247702
0.0295487
0.0286044
0.0257096
0.0286479
0.0195663
0.0341054
0.0266851
0.028291
0.0292112
0.0304513
0.00831075
0.0206478
0.0308646
0.00304158
0.00399747
0.0314245
0.0276887
0.000476934
0.037571
0.0250276
0.0346382
0.0272534
0.0237516
0.023732
0.0327414
0.0274444
0.0235514
0.024811
0.0267089
0.0273628
0.0271247
0.0352153
0.0301096
0.0302445
0.0203686
0.0204275
0.0318382
0.0257595
0.0301481
0.0301186
0.0340081
0.0375698
0.0357908
0.0239686
0.0318908
0.0251942
0.0295784
0.0289611
0.0247976
0.0113072
0.0313561
0.037906
0.0307607
0.0236536
0.0272762
0.0236635
0.0389906
0.0218403
0.0280418
0.0237333
0.024835
0.0297099
0.031363
0.0250396
0.030018
0.0294219
0.0267237
0.0304933
0.0296106
0.0295417
0.0264819
0.0318884
0.0320199
0.0314716
0.027006
0.0310737
0.0311351
0.0308137
0.00987397
0.0315528
0.0224024
0.0231687
0.0284497
0.0339789
0.0225943
0.027524
0.0319041
0.0269987
0.0276289
0.0239099
0.0357289
0.0266302
0.0312609
0.0226515
0.0227428
0.0273625
0.0316367
0.0225531
0.026919
0.0267384
0.0311088
0.0316099
0.0269771
0.0272555
0.0339034
0.0337819
0.0278686
0.0333947
0.0327044
0.0294663
0.0336326
0.013748
0.0334671
0.0316516
0.0311647
0.0314549
0.0300224
0.0313998
0.0346865
0.028372
0.0312182
0.0250312
0.0286226
0.02578
0.0295687
0.0295593
0.0358292
0.0300492
0.0356024
0.0356976
0.0256429
0.0292459
0.0306334