/*--------------------------------*- C++ -*----------------------------------*\
| =========                 |                                                 |
| \\      /  F ield         | OpenFOAM: The Open Source CFD Toolbox           |
|  \\    /   O peration     | Version:  2212                                  |
|   \\  /    A nd           | Website:  www.openfoam.com                      |
|    \\/     M anipulation  |                                                 |
\*---------------------------------------------------------------------------*/
FoamFile
{
    version     2.0;
    format      ascii;
    arch        "LSB;label=32;scalar=64";
    class       surfaceScalarField;
    location    "0.048";
    object      phi;
}
// * * * * * * * * * * * * * * * * * * * * * * * * * * * * * * * * * * * * * //

dimensions      [0 3 -1 0 0 0 0];

oriented        oriented;

internalField   nonuniform List<scalar> 
68568
(
-1.50904e-07
1.55727e-07
-2.9362e-08
2.45396e-08
1.45119e-07
-7.41998e-08
-7.6974e-08
6.05476e-09
1.75823e-07
-1.343e-07
-5.9649e-08
1.81262e-08
-4.47409e-09
2.19856e-09
-1.68708e-07
1.70984e-07
-1.26593e-09
1.41396e-07
1.00509e-09
-1.41135e-07
1.39061e-07
-4.69602e-10
-1.27978e-07
-1.06131e-08
8.3424e-08
-8.85763e-08
1.30119e-07
-1.24967e-07
-3.9493e-08
-2.70178e-08
1.49935e-07
1.31037e-07
-1.56328e-08
-1.10509e-07
-4.89507e-09
1.49126e-07
5.35202e-08
-5.75274e-08
1.00682e-07
1.37278e-07
-6.21371e-08
-6.41168e-08
-2.01758e-07
1.91675e-07
-1.39922e-07
6.85935e-08
-5.64517e-09
1.82893e-07
-1.88397e-07
1.36035e-08
-8.09902e-09
-7.01699e-08
-5.1476e-08
1.20478e-07
1.16805e-09
1.28178e-07
8.79999e-08
-1.30749e-07
-8.54284e-08
-5.11739e-08
-7.88103e-08
1.15102e-07
1.48823e-08
1.12556e-07
-1.17715e-07
-4.60152e-08
1.11951e-07
-4.42714e-09
-6.72912e-10
-1.06851e-07
8.56692e-08
-1.5498e-07
7.76944e-08
-8.3832e-09
1.13206e-07
-4.26606e-10
-1.12698e-07
-8.0921e-11
-1.79741e-08
9.03771e-09
1.41042e-07
-1.32105e-07
-4.59543e-08
1.90414e-07
-2.7498e-08
-1.16961e-07
-7.51939e-10
-5.11181e-10
-1.36742e-07
1.38005e-07
-7.51537e-08
-4.89904e-08
1.1719e-07
6.95424e-09
-9.77642e-08
-4.01913e-08
-1.29486e-08
-6.53424e-08
1.42467e-07
8.54447e-09
7.77563e-08
4.582e-08
-3.0854e-08
-9.27222e-08
-6.87147e-08
-1.00212e-07
1.29434e-07
4.92044e-08
-1.21268e-07
3.3485e-09
1.54427e-07
-8.22854e-08
-1.45452e-07
7.33106e-08
-1.33582e-08
2.50729e-09
1.18043e-07
-1.07192e-07
1.57845e-07
-3.29688e-08
-1.12825e-08
-1.13593e-07
1.20559e-07
-9.24431e-08
-5.9382e-08
3.12665e-08
-5.84806e-10
1.10376e-07
-1.09856e-07
6.4802e-11
1.22869e-07
8.57611e-08
-8.59146e-08
6.25875e-10
-4.7241e-10
4.35015e-08
-1.61119e-07
9.37527e-08
2.38648e-08
-1.63235e-07
1.41861e-07
6.48758e-08
-7.46629e-08
-1.82108e-10
-3.08667e-10
-8.58591e-10
1.15178e-07
-1.11328e-09
1.13947e-07
-1.13523e-07
-6.11952e-10
1.88395e-10
-2.67367e-08
-1.5914e-07
1.20889e-07
1.95923e-07
-1.49119e-07
-1.67693e-07
-6.24633e-08
-1.04743e-07
2.95384e-07
-1.47742e-07
1.65152e-07
-1.38649e-07
1.21239e-07
-1.25005e-07
6.62657e-08
-5.37794e-09
1.16339e-07
-1.13581e-07
-3.61e-09
8.51636e-10
9.90599e-08
2.54293e-08
1.18861e-08
-1.36375e-07
2.21099e-09
-1.53776e-07
1.49113e-07
3.43348e-08
-2.96721e-08
-8.62461e-09
-9.46183e-08
1.02914e-07
3.29291e-10
-1.36558e-07
1.39194e-07
1.79045e-07
-1.79373e-07
-3.82151e-10
-1.94294e-10
2.09525e-09
-1.65815e-09
1.10092e-07
-1.10529e-07
3.98721e-08
-1.16645e-07
-2.03765e-09
9.283e-08
-9.92247e-08
3.784e-09
2.61071e-09
-8.65756e-08
1.43553e-07
-6.31246e-08
6.14696e-09
1.48428e-07
-7.68884e-08
-7.49879e-08
3.44862e-09
9.17647e-08
-9.20247e-08
-4.91976e-10
-1.13362e-07
-1.73303e-09
1.17293e-07
7.67694e-08
7.2372e-08
-7.79143e-09
-1.4135e-07
-6.0732e-09
1.3717e-07
-1.31934e-07
8.37074e-10
8.95908e-08
-1.51893e-07
-3.04046e-09
1.09561e-07
-1.80036e-08
3.40487e-08
-1.25606e-07
1.51439e-07
-2.3712e-08
-1.71669e-07
4.39417e-08
4.11487e-08
8.30199e-08
-1.22178e-08
6.51316e-08
-1.29025e-07
7.07141e-08
-6.82026e-09
1.36319e-07
-1.3743e-07
-1.54944e-10
-1.01714e-07
1.45199e-07
-3.21155e-08
-1.1369e-08
-2.07515e-07
-1.52147e-07
2.90802e-07
6.88606e-08
-1.23067e-07
-8.59213e-10
1.28378e-07
-6.4683e-09
1.36319e-07
-1.44662e-07
-5.44658e-08
6.28082e-08
-1.27074e-07
6.56385e-08
6.73924e-08
-5.95661e-09
-2.39422e-08
-5.40002e-08
-4.91586e-08
-1.02043e-07
1.02256e-07
-4.67266e-10
2.54951e-10
4.05072e-08
1.75778e-07
-6.78577e-08
1.06025e-07
-6.39373e-08
5.07425e-08
-7.38065e-08
-8.08667e-08
1.50723e-07
3.95018e-09
-5.65359e-10
-2.21645e-07
-5.59074e-10
2.2277e-07
7.50542e-08
-4.71233e-08
8.60159e-08
-2.47404e-10
6.53969e-08
-6.52065e-08
5.69647e-11
-1.94171e-08
1.41482e-07
6.8171e-08
-1.90236e-07
1.72143e-07
-8.70063e-08
-9.02603e-08
5.12405e-09
1.20587e-07
3.8362e-08
-3.6655e-08
-1.22294e-07
1.6535e-07
-7.78275e-08
7.70813e-08
-1.64604e-07
3.55607e-08
1.34095e-08
1.1638e-07
-8.94196e-08
8.50776e-08
-1.64366e-07
1.25794e-07
1.04352e-09
-1.23017e-07
-3.82042e-09
-4.00826e-08
-2.82628e-07
1.97706e-07
8.46303e-08
8.72143e-08
-6.69255e-09
-4.07437e-10
5.25359e-10
9.47543e-08
-9.48723e-08
-1.25087e-07
1.24948e-07
-3.72316e-10
-6.04274e-08
1.20623e-07
6.07028e-09
7.44071e-09
8.8468e-08
-5.04814e-09
-9.08606e-08
-1.29357e-07
5.71409e-08
9.03729e-08
-1.81571e-08
-4.45921e-08
-8.19368e-08
-1.02133e-08
-8.41051e-08
1.63188e-07
5.54746e-09
7.29865e-08
7.60867e-08
-1.43891e-07
-5.18213e-09
1.14855e-07
1.00037e-09
-1.15753e-07
-1.02249e-10
-6.09571e-09
-2.0895e-07
-1.43439e-08
2.18777e-07
-6.86042e-09
1.23536e-07
-1.24518e-07
5.7975e-08
-7.55751e-09
9.85797e-08
-4.23715e-10
-9.7087e-08
-1.069e-09
1.23471e-07
-8.17394e-10
1.3713e-07
-4.67971e-08
8.18098e-08
1.43964e-10
-1.04872e-07
-3.40171e-09
1.12653e-07
-4.3795e-09
9.18569e-08
-5.06879e-08
-9.10438e-08
-9.61881e-12
9.09332e-08
1.20295e-10
-3.53226e-08
-1.37498e-07
1.46218e-07
2.66027e-08
-2.19415e-09
1.31928e-07
-1.29323e-07
-4.10209e-10
-8.91349e-08
-3.70683e-08
1.2643e-07
-2.26961e-10
-4.24883e-09
2.07263e-09
-1.11185e-07
-1.65131e-07
8.8029e-08
8.22813e-08
-5.17903e-09
3.43221e-10
-1.01765e-07
1.01696e-07
-2.73933e-10
1.39399e-07
-7.89442e-10
-2.97396e-10
-1.1194e-07
2.98842e-10
1.11938e-07
-2.5077e-08
2.15451e-08
1.10167e-08
1.32779e-07
-7.26213e-08
4.97431e-09
1.42218e-07
-1.41377e-07
-1.41994e-08
-1.24982e-07
1.41195e-07
1.92255e-08
-3.54387e-08
7.27654e-08
-7.40843e-08
1.52758e-07
3.88386e-09
1.14666e-07
1.53972e-07
-1.29737e-09
-1.54869e-07
6.94182e-08
-1.44774e-07
-4.52686e-09
7.98826e-08
1.44649e-07
-7.96441e-08
7.98149e-09
1.00939e-07
-9.8788e-08
-1.13616e-07
5.88178e-08
-3.11167e-08
-1.51478e-07
1.44418e-07
-1.94099e-08
2.64702e-08
1.60868e-07
4.70673e-08
-5.31848e-08
-1.53354e-07
-7.45703e-08
-3.0717e-08
8.15342e-08
2.37531e-08
-1.31952e-07
6.94593e-08
-5.51721e-08
1.17665e-07
-1.54101e-07
-3.39178e-09
1.60537e-07
-3.04381e-09
-1.10385e-07
2.09323e-08
-6.4649e-08
-1.65366e-07
-6.33922e-09
9.57204e-08
-1.38952e-09
-1.13616e-07
-5.64605e-10
-1.10313e-07
1.41378e-07
-7.47602e-08
6.06184e-09
1.57578e-07
-8.41923e-08
-7.98333e-08
6.44783e-09
-1.3595e-07
1.82467e-07
-4.69528e-08
4.35253e-10
8.31519e-08
-8.38716e-08
-1.3523e-07
9.58737e-08
7.41264e-09
-2.34753e-09
6.72499e-10
1.05729e-07
-1.05213e-07
-1.18895e-09
1.92336e-07
-4.88138e-08
-1.0516e-07
-1.10033e-07
6.46617e-08
1.16219e-07
-1.11577e-07
-2.56933e-09
-1.84673e-09
1.02885e-07
-1.0138e-07
3.41409e-10
-9.90574e-09
-1.36561e-07
1.33706e-07
1.2761e-08
-1.40852e-07
1.57727e-07
-9.95268e-09
-6.92266e-09
1.22388e-07
-8.14533e-08
-3.73525e-08
5.17768e-09
-8.13285e-09
-9.89935e-08
9.85018e-08
3.33387e-08
-6.88746e-09
-1.36836e-07
-2.02886e-08
1.1171e-07
-8.51926e-08
-6.22873e-09
1.62355e-07
-6.89517e-09
-1.39294e-08
-1.4153e-07
1.58767e-07
1.89671e-10
-2.70545e-09
-1.56251e-07
1.37793e-07
-1.3637e-09
-1.09582e-10
1.30555e-07
-1.30843e-07
3.08273e-10
-1.93623e-11
-1.26963e-07
-8.25319e-08
1.27558e-07
2.14083e-08
-1.72195e-07
-1.11862e-07
1.11613e-07
1.03342e-10
1.45376e-10
-1.35467e-07
-7.28667e-09
1.9019e-09
-1.03083e-07
-3.34369e-12
1.03054e-07
3.25621e-11
-1.23441e-07
-2.37531e-10
1.2384e-07
-1.60764e-10
-7.96875e-09
1.19054e-07
-1.03079e-07
-7.39751e-09
-1.03977e-07
1.03489e-07
1.91348e-10
1.42434e-08
2.8892e-08
8.97813e-08
-1.31259e-07
7.34154e-08
-7.37535e-08
1.45882e-07
-1.45544e-07
1.04345e-07
-8.2065e-08
-2.44442e-08
2.16379e-09
1.30299e-07
-3.15098e-08
-1.09477e-07
1.27363e-08
5.65509e-09
-1.09794e-07
1.24108e-07
-1.99697e-08
-5.94076e-10
1.03243e-07
-1.0217e-07
-4.78923e-10
-1.42208e-07
-8.48727e-09
1.66976e-07
2.08253e-07
-8.87098e-08
1.88035e-07
1.54625e-07
-7.70754e-08
5.60208e-09
-2.74288e-08
2.60456e-08
-1.09073e-07
1.13416e-07
8.90706e-08
9.41853e-08
-7.4778e-09
9.37977e-08
7.2949e-08
-1.60737e-07
-6.00994e-09
8.25128e-08
7.98459e-08
-7.73353e-09
1.22456e-07
-7.58944e-08
8.39934e-08
7.4164e-08
-1.25793e-07
5.99824e-08
-8.35325e-09
6.66371e-10
-9.96536e-08
-1.22473e-09
2.88228e-10
-3.1298e-07
1.86972e-07
2.0409e-07
-1.26385e-07
4.54748e-08
9.56008e-09
4.38393e-08
4.57406e-08
-9.914e-08
-1.29116e-07
1.98813e-09
1.28279e-07
-1.15143e-09
-9.89514e-08
9.84846e-08
-1.97616e-11
4.86613e-10
1.29742e-07
-1.67925e-07
1.98529e-07
-1.60346e-07
1.56489e-08
-1.38433e-09
1.27131e-07
-3.17608e-08
7.45969e-09
-7.41048e-08
9.84059e-08
-7.23033e-08
1.40509e-07
5.20955e-09
-1.46801e-07
7.63566e-08
7.56523e-08
-5.20785e-09
-1.11483e-07
-2.49998e-08
1.16194e-07
5.13052e-10
7.7455e-08
-1.08508e-10
-7.78596e-08
1.46953e-07
-6.66474e-08
7.75391e-08
1.37422e-09
-1.18829e-10
9.16326e-11
-9.75126e-08
1.79248e-07
-4.78205e-08
-2.97342e-08
-1.01694e-07
-1.40759e-09
2.99548e-08
-1.08008e-07
8.35147e-08
-3.39169e-08
2.274e-08
2.09546e-07
-2.70568e-08
1.67148e-07
-1.75248e-07
-6.29147e-08
-6.74464e-08
5.3795e-09
1.32114e-07
6.28957e-09
-7.11116e-08
-7.2256e-08
1.36077e-07
7.29066e-09
1.08876e-08
1.13638e-07
-1.52556e-07
-1.65306e-10
7.02685e-08
-6.89223e-09
-6.59815e-10
-1.35499e-07
1.38614e-10
1.3602e-07
-1.39033e-07
1.69602e-07
-4.36582e-08
1.12189e-08
-9.60915e-09
5.14289e-08
1.12152e-07
-1.2964e-07
7.56967e-08
-2.72127e-08
8.11557e-08
-1.41921e-07
9.56565e-08
-1.29472e-07
1.27944e-07
2.3086e-10
9.32289e-08
2.20637e-08
-1.67709e-07
-2.18101e-08
1.67456e-07
-1.84113e-07
1.00951e-07
-1.38483e-07
-1.7036e-09
1.66833e-07
2.42894e-08
6.69513e-08
-9.59281e-08
4.68746e-09
5.88066e-08
-2.55228e-08
6.87609e-10
-1.00617e-07
5.81195e-10
-2.36642e-07
2.36643e-07
-5.59486e-10
-9.60383e-08
-1.00726e-07
-9.39102e-08
1.02183e-07
-1.1225e-07
8.46549e-08
-1.07366e-07
1.72421e-08
5.46866e-09
1.2674e-07
-9.13783e-08
-9.31629e-09
-1.56261e-07
-1.10216e-08
2.11183e-08
1.46164e-07
-3.12412e-07
-2.80154e-10
-1.32297e-07
1.31468e-07
4.21328e-10
-9.4148e-08
-5.71675e-11
2.95032e-10
-1.43144e-08
-9.51491e-08
1.5247e-07
-4.30063e-08
1.09324e-07
5.41845e-09
4.40241e-08
-1.36039e-07
1.35197e-07
-3.58534e-09
-5.4993e-08
1.41486e-07
-9.97001e-08
2.77115e-10
-1.29153e-07
-2.3934e-10
9.25777e-08
-9.44696e-08
2.33734e-10
-6.68404e-08
-6.64264e-08
1.2546e-07
7.80715e-09
1.14342e-07
1.77437e-08
-9.79941e-08
-3.40916e-08
6.46786e-08
1.53802e-07
-2.02973e-07
-1.72454e-08
-1.11108e-07
-1.96041e-08
1.28519e-07
5.27523e-11
-1.289e-07
3.27971e-10
2.42859e-08
7.79598e-09
5.49086e-08
-8.69904e-08
-1.42718e-07
7.67779e-08
-5.17099e-09
-1.1805e-07
1.1541e-07
-6.81537e-09
-3.91945e-10
1.22508e-07
3.39468e-10
-8.08224e-08
-7.25825e-08
1.46289e-07
7.11609e-09
1.30405e-07
-7.01684e-08
-6.71908e-08
6.9542e-09
1.30866e-07
-2.34396e-09
-2.71581e-12
-1.02198e-07
-9.26031e-08
1.00653e-07
-1.32733e-07
-4.7493e-08
9.07006e-09
1.72519e-07
-1.07111e-07
2.99619e-08
-1.30367e-07
2.35037e-10
-1.06673e-07
6.61199e-10
-6.99532e-10
1.35797e-07
2.59312e-08
-2.77154e-08
-1.34012e-07
4.65306e-08
-1.3131e-07
-2.73668e-11
1.29442e-10
3.93854e-08
-1.96496e-07
-7.91495e-08
1.33922e-07
9.04266e-08
2.09516e-08
-1.47521e-07
-1.86121e-08
1.45181e-07
-8.22621e-08
6.202e-09
1.34543e-07
-1.33237e-07
9.26671e-08
4.20489e-08
-1.47946e-09
-6.38945e-10
1.66899e-10
-9.8264e-08
6.74726e-08
-4.53119e-09
-1.59976e-09
-3.0639e-09
-2.36498e-09
9.67451e-08
-9.13163e-08
8.34109e-08
1.06056e-07
-1.04803e-07
-8.46643e-08
1.50873e-07
-1.68433e-07
3.53142e-10
1.54984e-10
1.59149e-07
-1.02992e-08
-1.39812e-07
-4.30875e-08
1.54438e-07
1.10377e-08
1.20084e-07
-1.13247e-07
-5.89578e-09
-9.41279e-10
-1.09616e-09
1.15604e-07
1.66148e-07
-5.77464e-08
-2.37734e-09
9.51717e-08
-8.43949e-08
-5.23853e-10
2.43044e-10
1.42499e-07
-1.60413e-07
7.63416e-09
1.47972e-07
2.44363e-09
-1.20283e-08
1.69869e-07
-2.13004e-07
4.60706e-08
1.01571e-09
9.16985e-08
-8.85283e-10
-9.18289e-08
-1.18722e-07
1.18975e-07
-1.60944e-10
1.16821e-09
-2.02232e-10
-1.13132e-07
1.12072e-07
-3.62201e-11
-1.11077e-07
-2.49567e-10
2.18831e-10
7.22598e-08
-1.04026e-07
-7.73247e-08
1.09091e-07
1.92572e-11
-1.16638e-07
1.16751e-07
-1.32292e-10
-3.7276e-08
6.59133e-08
1.81153e-09
-1.98303e-08
-1.42664e-07
7.41915e-08
-6.09825e-09
2.84882e-08
-1.61197e-08
1.07715e-07
-1.37008e-07
6.61086e-08
6.36239e-08
7.27537e-09
-1.60656e-07
-1.12403e-07
1.12776e-07
-1.27699e-07
-4.37278e-08
5.86504e-08
1.31371e-07
-1.32161e-07
2.31479e-10
5.58531e-10
-1.7937e-09
-1.86403e-07
1.59587e-10
1.88037e-07
-1.06871e-07
4.48721e-11
1.06879e-07
-1.29287e-07
-1.46666e-10
5.34179e-10
7.32199e-08
-1.29195e-07
-6.93997e-09
3.02544e-10
-1.31013e-07
-1.32648e-10
7.7001e-08
7.76984e-08
-5.58607e-09
-7.44181e-08
-7.46433e-08
1.42795e-07
6.26679e-09
-1.18115e-07
8.69356e-10
1.17028e-07
2.1776e-10
1.2572e-07
3.10904e-08
1.11889e-07
-1.58609e-08
1.09303e-07
-5.63061e-09
-9.99762e-08
4.71488e-08
4.55589e-08
7.26842e-09
1.96319e-08
1.29986e-07
-1.99432e-08
-1.25232e-07
7.44134e-08
-7.2349e-08
-1.33075e-07
-1.07347e-07
1.1799e-07
1.22432e-07
1.09868e-07
-1.31582e-10
1.16853e-07
-1.18302e-07
1.42812e-09
2.08293e-11
-1.32783e-07
-1.30232e-07
8.46468e-10
6.28764e-11
1.72153e-08
3.46817e-08
-1.56799e-07
1.52289e-08
-4.38687e-08
1.99311e-07
1.36056e-07
-1.24339e-07
-1.23506e-08
1.27277e-09
1.95668e-08
-2.15823e-08
1.34824e-07
-3.34418e-08
-7.98001e-08
1.07334e-07
-6.96494e-10
-1.06421e-07
-2.17083e-10
-4.25527e-08
-1.46317e-07
2.9076e-07
-1.0189e-07
1.05433e-07
-8.03846e-08
-7.58797e-10
-1.87567e-11
1.03658e-07
-3.96402e-10
7.44825e-08
-7.5025e-08
1.35572e-07
-1.78754e-07
-1.31853e-07
8.0282e-08
1.27928e-07
-2.34671e-09
-3.05527e-08
-8.32765e-08
7.19448e-08
8.59805e-08
8.22321e-09
1.82027e-07
-1.26493e-07
4.42167e-09
1.49522e-07
-8.08828e-08
7.01349e-09
1.23472e-07
-1.64252e-07
1.27467e-07
-7.55296e-08
-3.57452e-08
-1.39969e-08
1.82608e-09
1.05608e-07
-1.17339e-07
6.89063e-08
-1.30465e-07
-5.28142e-09
1.50572e-07
4.4787e-09
-4.62939e-08
1.40125e-07
-9.47402e-08
-2.0764e-09
-2.57673e-08
1.40986e-07
-1.5829e-07
4.30711e-08
1.17978e-07
2.12464e-08
-5.62042e-08
-2.29737e-09
-1.44622e-07
1.44783e-07
-9.22869e-10
-3.03578e-08
2.29561e-08
-9.84663e-08
1.05868e-07
7.6091e-08
-1.43238e-07
-5.10866e-09
-1.37422e-07
1.37857e-07
-1.32635e-10
-7.71184e-08
1.59226e-07
-1.2466e-07
-7.29827e-08
-8.02195e-08
1.5704e-08
-1.0135e-07
-1.16325e-10
2.0801e-07
4.59515e-08
-1.48933e-07
-1.07788e-07
-7.4566e-08
1.33126e-07
2.32242e-07
-7.93736e-11
-9.06475e-08
-1.02801e-10
9.08297e-08
3.27895e-08
1.09601e-07
-6.73604e-10
1.50977e-07
6.30575e-09
9.78439e-08
5.71846e-08
2.69896e-09
7.42719e-08
-1.43109e-07
-5.58066e-09
-7.3597e-08
-8.28821e-08
1.47843e-07
8.63591e-09
-9.14086e-08
-4.43915e-09
-4.12842e-09
-8.29575e-08
-1.19265e-07
1.15668e-07
-5.05647e-11
-1.25575e-07
-3.38709e-09
1.22889e-07
-9.10833e-08
-1.38136e-07
9.89906e-08
1.30228e-07
-1.13357e-07
3.93655e-08
7.72288e-08
-3.23729e-09
7.12607e-08
7.09565e-08
-1.35264e-07
-6.95303e-09
-7.21486e-08
-6.95564e-08
1.35314e-07
6.39106e-09
5.24022e-08
4.85541e-08
-1.10957e-07
1.00012e-08
-6.82364e-08
1.13888e-07
-3.70547e-08
-8.59721e-09
1.0677e-07
-1.07245e-07
-1.85221e-10
-9.55355e-08
6.94599e-10
8.32531e-08
1.07617e-07
-2.87621e-08
-1.62108e-07
-3.16228e-08
9.0296e-08
3.88963e-08
-9.75695e-08
-9.90803e-08
-3.2582e-11
1.00831e-07
-1.7185e-09
-7.48891e-08
-4.31391e-08
9.64459e-08
1.2565e-07
-3.32255e-09
7.12291e-08
-1.32765e-07
6.66043e-08
-5.06807e-09
-6.06676e-08
4.42515e-08
-1.24903e-07
1.15572e-08
1.30241e-07
-1.06563e-07
-3.37591e-08
6.30317e-08
8.41967e-08
-7.55855e-08
8.33373e-10
-1.24127e-07
-1.48118e-10
8.37418e-09
4.75234e-10
1.04962e-07
-1.1886e-07
5.7416e-08
5.42858e-08
7.15855e-09
7.4823e-08
-4.93008e-09
4.0046e-08
6.42766e-08
7.38729e-09
8.99347e-09
1.29679e-07
-1.0745e-08
-6.61621e-09
-8.35203e-08
8.16985e-08
1.36646e-07
-7.55744e-08
-1.5963e-07
1.60217e-07
1.67875e-07
5.90156e-08
-5.65795e-08
-1.70311e-07
1.45432e-08
-1.3156e-07
1.41303e-07
-7.97763e-08
-7.244e-08
1.45419e-07
6.79722e-09
-4.83695e-08
-1.16309e-07
1.97411e-09
6.90365e-08
-6.80836e-09
1.32071e-07
-6.44405e-10
-5.56966e-11
2.27254e-08
-8.75754e-08
9.33382e-08
2.35684e-10
2.42307e-10
-1.379e-07
-3.32584e-09
8.23404e-08
-7.95395e-08
1.15843e-08
-8.54611e-08
1.46103e-07
-7.22265e-08
-2.84644e-08
-1.37592e-07
1.1978e-09
1.64859e-07
9.50345e-08
-1.82702e-07
7.14563e-08
1.62115e-08
-1.24625e-07
9.18381e-08
-9.951e-08
1.02139e-07
-6.68222e-10
-1.0119e-07
-2.81323e-10
-4.62547e-08
-1.30404e-07
4.67986e-08
1.2986e-07
-7.37224e-08
-1.24951e-07
1.51015e-07
4.76583e-08
-2.90603e-09
-1.44568e-07
1.4521e-07
2.2638e-09
-1.2733e-07
1.27167e-07
-1.63081e-09
-1.46505e-07
1.29464e-07
-6.51046e-08
1.40061e-07
7.17684e-08
-6.0889e-09
7.79327e-08
-1.38854e-07
-6.48722e-08
-1.28008e-07
8.93499e-08
-1.0406e-07
-1.36904e-08
1.44779e-07
-8.9227e-08
-3.52658e-08
1.22367e-07
-1.20407e-07
-3.35806e-09
1.39816e-09
-9.93773e-08
-2.38099e-09
4.24572e-09
1.23064e-10
-1.52195e-07
1.49166e-07
-9.18605e-08
-3.07443e-10
7.59293e-10
-9.44944e-08
7.94375e-08
1.56843e-08
-6.2732e-10
-5.6554e-08
-1.35393e-07
1.82228e-07
9.71875e-09
1.17559e-07
-4.70864e-10
5.72338e-08
4.88733e-08
-1.14875e-07
8.76816e-09
-1.10507e-07
-5.49053e-10
1.10772e-07
2.83402e-10
-1.08009e-07
1.55127e-08
-2.5806e-08
6.42437e-08
-1.22723e-07
5.18675e-08
6.61199e-09
-4.7682e-09
-9.55756e-08
4.30552e-09
1.55424e-09
-1.36165e-07
1.53576e-09
5.44428e-08
7.59591e-08
-8.83148e-08
1.92588e-08
5.69873e-08
2.10485e-08
1.29102e-07
-1.2964e-07
6.07229e-10
-6.82588e-11
-2.09305e-07
1.97301e-07
8.67711e-08
-7.47672e-08
5.79552e-08
-1.49334e-07
1.14809e-07
-2.34305e-08
7.56403e-08
-6.74878e-09
-6.90132e-10
-9.0975e-11
5.86324e-08
-6.22924e-08
-1.17544e-07
1.67684e-07
-1.39276e-07
1.15379e-07
-1.51692e-08
6.91885e-10
-1.54663e-07
1.53952e-07
1.32537e-07
-1.61441e-07
-1.45402e-09
-8.85365e-08
-8.42052e-08
1.6584e-07
6.90155e-09
9.57145e-08
1.90521e-10
-9.59516e-08
4.65742e-11
-1.49823e-07
8.01632e-08
7.43392e-08
-4.67946e-09
-2.03198e-07
1.26171e-07
-1.41063e-07
2.1809e-07
-1.95991e-07
2.56169e-08
-4.63419e-08
-1.14774e-07
-1.66599e-07
1.02491e-07
3.83401e-08
-1.49188e-08
-1.30339e-07
1.42024e-07
3.23363e-09
-3.37905e-09
-1.13789e-07
-9.79463e-09
1.13801e-07
-1.14311e-07
1.19847e-07
-3.83749e-08
1.68837e-07
1.47801e-07
1.15207e-07
-1.30828e-07
-1.25288e-07
3.99592e-10
1.211e-07
-1.21558e-07
5.81926e-11
1.04821e-07
-1.13543e-07
3.95416e-09
-8.12845e-08
-6.21544e-10
7.13865e-08
1.06751e-07
-4.6066e-08
6.45631e-08
-1.24919e-07
-4.74856e-09
-3.75162e-10
1.17945e-07
-1.17678e-07
1.08421e-10
-1.21696e-07
-3.64303e-10
1.22722e-07
-6.6176e-10
-1.24235e-07
4.56508e-08
-3.46627e-08
-1.2142e-08
1.02524e-07
8.19531e-08
-1.23531e-09
-1.83242e-07
3.13641e-09
-7.76198e-11
-1.7521e-08
8.47085e-08
-1.52098e-07
8.49107e-08
-1.31378e-07
1.33334e-07
6.80414e-08
-6.32913e-09
2.85205e-08
-1.36239e-07
-3.85276e-08
1.46246e-07
4.22487e-08
1.1875e-08
3.49326e-08
-8.90563e-08
7.15798e-08
7.83389e-08
-1.43519e-07
-6.39996e-09
-1.07168e-07
1.05418e-07
1.75011e-09
3.18124e-13
-7.07059e-08
7.26101e-09
5.78229e-08
-5.56277e-08
1.30684e-07
-1.32879e-07
-1.0898e-07
2.31168e-07
-4.83135e-08
-7.38737e-08
8.95329e-08
-7.47644e-08
-7.84391e-08
6.36706e-08
7.11087e-08
-5.84573e-08
-1.41664e-07
5.60298e-08
8.51565e-09
6.0539e-08
8.39569e-08
7.82318e-08
8.06096e-08
-1.52701e-07
-6.14084e-09
1.40285e-07
8.34725e-09
-6.47007e-09
-1.42162e-07
1.06963e-07
7.39261e-10
-3.68346e-10
1.0083e-07
-1.02792e-07
2.39128e-09
-4.28701e-10
-6.85236e-08
-8.06333e-08
1.42284e-07
6.87309e-09
-1.26172e-07
1.51596e-09
4.21258e-10
-1.10818e-07
-4.56318e-11
3.57402e-10
1.18159e-08
1.29367e-07
1.16574e-07
2.00317e-09
-1.01738e-09
1.46192e-10
-1.07921e-07
1.07226e-07
1.01642e-07
1.79318e-08
2.79285e-09
-1.25856e-08
3.79751e-08
-1.25936e-07
1.00546e-07
1.30762e-07
-1.3052e-07
-1.15353e-10
-1.26628e-10
-3.10827e-08
-1.24268e-07
1.80967e-07
-1.24326e-07
-2.00587e-08
1.49773e-07
-5.38885e-09
1.61473e-07
-1.3696e-07
-2.36091e-08
-2.16233e-08
1.34765e-07
1.3227e-07
-1.33369e-07
4.48418e-10
6.51323e-10
1.57175e-07
-4.85265e-08
-1.54762e-07
4.61141e-08
1.30734e-07
-1.30861e-07
1.54709e-07
-1.54582e-07
9.45875e-09
-1.3138e-08
-1.03294e-07
1.06973e-07
2.80174e-08
-1.07853e-07
-4.57487e-08
1.25584e-07
9.0988e-08
8.24539e-08
-1.66185e-07
-7.25668e-09
2.14158e-07
-2.26604e-07
-1.29583e-07
-1.0756e-07
1.07518e-07
-1.37539e-08
1.31991e-08
-1.95762e-07
1.69896e-07
-9.02473e-08
1.41139e-07
-2.39832e-07
1.8894e-07
8.32878e-08
-1.67457e-07
-6.07819e-09
2.14408e-08
9.41776e-08
-1.62444e-08
-9.9374e-08
-1.59088e-09
1.22417e-07
-1.50299e-08
-1.01973e-07
-6.20595e-08
1.6159e-07
-1.12679e-07
1.3149e-08
-2.87554e-08
8.29792e-08
-4.67412e-08
-7.48258e-09
3.07603e-10
-1.04386e-07
1.04534e-07
-4.55803e-10
2.84291e-09
1.30818e-07
-1.32509e-07
-1.15165e-09
-3.01722e-08
-1.33077e-07
1.44277e-07
2.52494e-08
-6.16863e-08
1.66942e-07
8.88654e-09
-5.04077e-08
-4.66391e-08
1.32702e-07
-2.34371e-07
-3.11301e-08
-1.59254e-07
1.25811e-07
-7.55373e-08
1.29527e-07
-1.26183e-07
-5.01746e-10
-1.03403e-07
1.53803e-09
-2.25804e-09
1.04123e-07
6.50816e-08
-2.00315e-07
-1.52972e-07
-3.00436e-11
1.32368e-07
-1.32095e-07
-2.42698e-10
-1.28852e-07
-4.54174e-08
1.65083e-07
6.03834e-09
-9.577e-09
1.16429e-07
-1.04345e-07
-1.20166e-08
1.52209e-07
-1.22081e-07
5.00134e-10
-1.14841e-10
6.76573e-08
-1.60033e-07
8.70186e-08
5.3567e-09
-1.48971e-09
-1.26728e-07
-1.57278e-09
1.335e-07
6.12144e-09
-1.10047e-07
5.60754e-08
5.20954e-08
1.87601e-09
-1.11957e-07
3.05667e-08
1.52499e-07
-7.54863e-11
1.42591e-07
-7.75251e-10
-1.4174e-07
7.73593e-09
1.25839e-07
-2.68088e-08
-1.06766e-07
1.51252e-07
-1.72391e-07
8.92429e-08
-6.81041e-08
4.77519e-08
1.20424e-07
-5.9142e-08
-6.83938e-09
8.75355e-08
1.03827e-07
-1.80909e-07
-1.36917e-08
-6.91928e-09
1.14891e-07
-1.38689e-07
1.21671e-07
3.50058e-10
-1.22058e-07
3.68103e-11
7.70542e-09
1.05569e-07
-3.95062e-09
8.35996e-08
-2.07678e-07
3.2995e-08
-1.38653e-07
2.07158e-09
-7.8132e-08
-6.66088e-08
1.37804e-07
6.93709e-09
-1.11083e-07
-5.09384e-08
3.41327e-08
1.27889e-07
-1.24876e-07
-6.21988e-10
-6.74175e-10
-7.31831e-08
1.54617e-07
-8.74619e-08
6.02757e-09
7.82582e-08
-1.55391e-07
8.09789e-08
-3.84581e-09
-1.17741e-07
-2.35396e-10
1.07337e-07
-1.10302e-07
4.87487e-09
-1.90936e-09
1.58469e-07
-8.87942e-08
8.58295e-09
-1.20289e-07
2.03683e-08
-2.04868e-08
6.22e-08
-1.02879e-07
-2.32581e-08
1.31367e-07
-1.30476e-07
-1.98695e-10
7.12989e-08
6.39576e-08
-6.37894e-08
-7.14671e-08
8.37875e-08
1.56152e-07
-1.68678e-07
8.27366e-08
7.03871e-08
-1.47751e-07
-5.37283e-09
-1.21133e-07
6.397e-08
4.97682e-08
7.3947e-09
2.07348e-10
1.31659e-07
4.03674e-10
8.32642e-08
7.76385e-08
-1.55458e-07
-5.44519e-09
1.11279e-07
1.22051e-07
-1.00223e-08
-1.08371e-07
-3.65771e-09
9.99388e-08
7.96016e-11
1.54533e-07
-1.5601e-07
-8.56245e-08
8.71014e-08
5.22728e-08
6.2449e-08
7.32906e-09
-6.25216e-09
-2.5198e-07
1.96763e-08
1.63018e-07
-3.62477e-09
6.31505e-09
1.60028e-07
1.37449e-07
-2.33233e-07
-1.28855e-07
1.06067e-09
-1.61305e-09
1.29408e-07
7.15689e-10
1.03816e-07
-1.04446e-07
-8.54065e-11
-8.31898e-08
1.89587e-07
-1.86174e-07
5.43416e-08
1.29066e-07
-6.78463e-08
-1.15561e-07
4.80991e-08
6.10404e-08
-1.16707e-07
7.56723e-09
1.56061e-07
-1.19943e-08
2.17736e-08
-1.39466e-07
-5.55645e-09
5.21299e-08
-1.53346e-07
-1.92687e-08
-9.96783e-08
-1.16551e-07
1.09945e-07
2.10266e-08
-5.17721e-09
-2.15009e-08
1.00894e-07
3.05517e-08
3.04091e-08
-8.26344e-08
-2.84094e-09
1.30953e-07
3.91912e-09
1.34231e-10
4.06329e-10
-2.16355e-07
-1.55951e-08
-5.20301e-10
1.0094e-07
1.51065e-08
-1.07971e-07
-1.53765e-08
2.86589e-07
-1.2609e-07
-1.45122e-07
-1.76816e-07
1.44376e-07
1.2028e-07
-1.52301e-07
-7.1606e-08
7.73373e-08
-7.92621e-08
7.35308e-08
1.24214e-07
-1.28777e-07
-3.93672e-09
8.49964e-09
-4.16707e-09
-6.66614e-08
8.34159e-08
-1.9357e-07
-8.42483e-08
6.80646e-08
-5.10322e-08
-1.2414e-07
2.80047e-07
-4.3331e-08
-1.02843e-07
-1.38585e-08
-8.02767e-08
1.61812e-07
2.25197e-09
-3.48128e-08
-7.46925e-08
9.35449e-08
1.59604e-08
4.1787e-08
-1.87358e-07
8.48891e-08
6.06823e-08
-1.11268e-07
1.1104e-07
-1.63508e-10
3.91857e-10
9.58031e-08
-1.67928e-10
1.45955e-08
1.30973e-07
1.178e-07
-7.72852e-09
-8.71156e-08
-1.53789e-07
1.86185e-08
7.97061e-10
1.36418e-07
-1.06682e-07
1.57692e-07
-4.87345e-08
-6.00885e-09
3.10609e-09
1.30965e-07
-3.11778e-09
1.09719e-07
4.0938e-08
-1.59699e-07
-3.10614e-08
-1.30878e-07
-1.13514e-07
-8.85875e-08
4.58408e-08
-1.15338e-08
1.1306e-07
-8.85866e-09
-9.86051e-08
-1.13443e-07
-3.32277e-09
9.90502e-08
-1.2747e-07
1.02869e-07
-6.50871e-10
-1.01573e-07
-6.45432e-10
-2.6862e-08
-1.53922e-07
-1.84581e-07
1.84201e-07
1.16742e-07
-4.9069e-08
1.12049e-08
-7.88785e-08
1.17717e-07
-6.05468e-10
-1.16973e-07
-1.38708e-10
9.15411e-10
1.06305e-07
-1.07535e-07
3.14835e-10
3.01466e-08
1.24544e-07
-3.81175e-08
-8.07629e-08
-8.531e-08
1.06816e-08
8.0472e-09
1.13674e-07
-1.17752e-07
-3.96933e-09
-1.29791e-07
1.40087e-07
-2.24801e-09
-1.38315e-07
-3.80601e-09
-1.54744e-07
1.56776e-07
-5.77892e-08
-8.86039e-08
1.52493e-07
-6.09954e-09
1.11653e-07
-1.4909e-08
7.20897e-10
-1.03461e-10
4.86787e-08
1.22526e-08
-9.31459e-10
-3.07201e-10
7.79004e-08
8.52694e-08
-5.99526e-09
-3.49811e-08
1.03625e-07
8.16174e-08
-2.93993e-07
-1.72801e-07
3.04537e-07
1.6061e-07
1.42793e-07
-5.97654e-08
-9.17456e-08
6.15108e-09
-7.10612e-10
-1.28555e-07
-3.74878e-10
5.62241e-08
6.48448e-08
-1.2001e-07
-1.05846e-09
-1.18452e-07
1.18291e-07
1.52149e-10
9.2249e-12
1.08742e-07
3.3446e-08
-1.42438e-08
1.46336e-09
2.00424e-07
-4.5862e-09
-5.47779e-08
-8.32521e-08
-3.63383e-09
-8.2446e-08
-2.40246e-08
6.78358e-10
1.11222e-07
-1.11161e-07
8.05345e-08
-1.97957e-07
1.10409e-07
-1.05758e-09
-6.10117e-10
7.19407e-08
6.70227e-08
-1.351e-07
-3.86326e-09
-1.66263e-07
8.30283e-08
-2.35209e-08
-2.77515e-08
-3.8243e-08
1.31433e-07
-6.54382e-08
-3.04017e-08
7.30184e-08
3.17224e-08
-1.44533e-07
-9.17492e-08
9.69446e-08
1.39338e-07
7.86532e-08
-5.78208e-09
6.67763e-08
1.32559e-07
-5.44678e-08
-1.44868e-07
-3.78673e-09
1.20333e-07
1.52586e-08
-1.31805e-07
1.14701e-07
-9.73978e-08
-2.1365e-08
4.06168e-09
1.45764e-07
-1.96723e-07
1.81776e-07
1.45253e-07
-7.04756e-08
-6.79085e-08
-6.86907e-09
4.36001e-08
-1.7399e-07
-1.24522e-07
-1.24229e-07
4.40566e-12
-1.928e-07
1.62425e-07
-1.68413e-07
1.98789e-07
8.30783e-08
-1.65784e-07
-2.65376e-08
1.22495e-07
-1.21432e-07
-4.60545e-10
-6.01912e-10
6.17408e-08
-1.23138e-07
-5.26377e-09
-6.93828e-09
7.86286e-08
-1.76183e-07
8.13799e-08
-1.39472e-07
-5.10725e-12
2.15149e-10
1.39262e-07
-1.1564e-07
1.42278e-07
-1.63089e-07
-9.02064e-08
-2.75563e-08
-7.25174e-09
6.08925e-08
7.09061e-08
-5.98766e-09
-5.39114e-08
-6.13616e-08
-5.85986e-09
-3.79654e-09
-1.06614e-07
-1.03248e-07
-1.07292e-09
-5.72553e-09
7.1072e-08
-7.07389e-08
7.25073e-10
-1.05814e-09
1.09539e-07
-1.07378e-07
-1.3741e-09
-7.87215e-10
-1.20423e-09
1.30317e-07
-1.2913e-07
1.74094e-11
-1.3519e-07
1.45667e-08
1.14953e-07
5.67024e-09
1.30191e-07
-1.23635e-07
-4.55533e-09
-2.00007e-09
-1.10024e-07
-1.19866e-09
1.11888e-07
-6.65067e-10
-1.0632e-07
-6.49266e-08
9.92585e-08
3.48336e-08
-9.7487e-09
-1.24343e-07
7.73495e-08
-8.22004e-08
3.99107e-09
8.59865e-10
4.62865e-08
3.81622e-08
-1.30703e-07
1.11818e-07
-1.08801e-07
-7.43548e-09
4.41811e-09
-5.20251e-08
5.24702e-08
1.56e-07
5.64794e-09
1.31728e-07
-9.84104e-08
1.2333e-08
-2.81717e-08
-1.20281e-08
-1.04333e-07
-3.06903e-08
2.00744e-07
6.06192e-09
-1.75559e-07
1.3331e-07
-3.43024e-08
-1.98953e-08
2.14931e-08
-8.20577e-08
6.15604e-09
-1.28194e-07
1.28009e-07
5.95513e-08
-7.18644e-08
-3.0826e-08
7.88494e-08
2.14952e-09
6.20787e-08
5.66701e-08
-7.65001e-08
-8.49274e-08
1.17156e-07
-1.3003e-08
-7.19592e-08
5.95571e-09
9.64592e-08
1.15875e-08
2.29904e-08
2.53846e-08
-1.08062e-08
5.25691e-08
6.09217e-08
6.93343e-09
-5.04175e-08
1.65016e-07
-1.71153e-07
-1.79064e-07
8.88264e-08
2.26258e-07
-1.52387e-07
1.0859e-07
-3.31774e-08
6.23748e-08
-1.37787e-07
-1.25924e-07
-4.34736e-08
-1.47773e-07
-5.68721e-09
-1.0396e-07
8.17984e-08
-9.01614e-08
1.12323e-07
8.7731e-09
-1.2258e-07
-1.44349e-07
-7.69309e-09
-3.96832e-09
-1.30295e-07
1.18006e-07
1.2699e-07
2.00235e-08
1.04902e-07
2.12008e-09
-1.35708e-07
1.25427e-07
-8.75753e-08
9.7856e-08
-1.0352e-07
1.36252e-08
-2.09235e-08
-3.5395e-08
2.44687e-08
6.85157e-08
-4.67113e-08
-1.14202e-07
-4.46147e-08
1.24998e-08
-7.23577e-08
-8.68776e-08
7.75748e-09
-7.15793e-08
8.21894e-08
8.20678e-08
2.40507e-08
4.33755e-08
-1.49494e-07
4.01588e-08
4.45906e-08
-7.88704e-08
7.06621e-10
-8.16384e-08
-9.19599e-08
7.33549e-09
6.3699e-08
-7.42195e-08
-4.89408e-08
5.94613e-08
-4.98962e-08
-9.12806e-09
1.50332e-07
-1.89696e-07
3.9963e-08
-5.99146e-10
-8.49317e-09
2.79487e-08
8.1064e-08
-1.00519e-07
5.50322e-10
-9.6069e-08
-9.56739e-10
9.64754e-08
-1.02844e-07
1.0227e-07
2.94554e-10
2.80139e-10
1.33086e-07
-7.29171e-08
-1.34812e-07
-6.21737e-08
-3.89579e-08
1.02812e-07
-1.68005e-09
1.5699e-07
1.18895e-08
-1.19079e-07
6.08249e-09
-1.42855e-07
1.68226e-08
-5.2946e-10
-1.23873e-07
-1.16162e-07
1.16481e-07
-3.24441e-10
1.25385e-07
3.3618e-08
-1.45629e-07
-1.17469e-08
-1.47471e-08
2.25353e-07
-8.19338e-10
-6.32767e-08
-7.82916e-10
9.94122e-08
-9.85496e-08
1.53176e-10
-9.6803e-10
1.04846e-08
2.69087e-08
1.24888e-07
-2.79716e-08
1.19524e-07
-9.05268e-09
-3.32122e-09
1.30233e-07
-1.255e-07
-1.41258e-09
-1.05316e-07
1.10311e-07
-5.54222e-09
1.24295e-07
5.61207e-09
-3.23809e-08
-9.75263e-08
1.2115e-07
1.77391e-09
-1.2088e-07
-2.04416e-09
-7.2204e-08
-5.49279e-08
7.2354e-08
9.0999e-08
1.51377e-09
1.5973e-07
1.97667e-08
-3.67022e-08
-1.48808e-08
3.68706e-09
-7.94537e-08
1.24629e-07
-1.75397e-07