/*--------------------------------*- C++ -*----------------------------------*\
| =========                 |                                                 |
| \\      /  F ield         | OpenFOAM: The Open Source CFD Toolbox           |
|  \\    /   O peration     | Version:  2212                                  |
|   \\  /    A nd           | Website:  www.openfoam.com                      |
|    \\/     M anipulation  |                                                 |
\*---------------------------------------------------------------------------*/
FoamFile
{
    version     2.0;
    format      ascii;
    arch        "LSB;label=32;scalar=64";
    class       volVectorField;
    location    "0.048";
    object      U;
}
// * * * * * * * * * * * * * * * * * * * * * * * * * * * * * * * * * * * * * //

dimensions      [0 1 -1 0 0 0 0];

internalField   nonuniform List<vector> 
31639
(
(0.123301 0.000602712 -0.00059972)
(0.120033 -0.000447025 -5.88735e-06)
(0.122027 -0.000259956 0.000860136)
(0.125558 3.33461e-05 -0.000256559)
(0.121967 -0.000774005 -0.000314879)
(0.120755 -0.000114849 -3.97271e-05)
(0.120127 -1.78986e-05 -0.000249596)
(0.122874 -9.23774e-05 -3.85155e-06)
(0.122675 0.000225042 -0.000249306)
(0.123619 -0.000464009 -0.000489778)
(0.124368 0.000464937 -5.67441e-05)
(0.123413 -0.000580577 -0.000799518)
(0.120776 -0.000468096 2.28604e-05)
(0.123522 -1.51146e-05 0.000182825)
(0.119227 -0.000360308 9.55595e-05)
(0.12053 -0.000428642 0.000800681)
(0.122235 0.000405685 0.000161078)
(0.119541 5.33197e-05 0.000410933)
(0.120742 -1.12289e-05 -0.000390402)
(0.121584 -9.63906e-05 -0.000181315)
(0.115025 -0.000247821 -0.000418985)
(0.124468 -0.000338171 -0.000608567)
(0.124015 0.00070805 -0.000207333)
(0.120506 0.000179101 -0.00030301)
(0.119033 -0.000184239 -0.000140353)
(0.122315 -0.000256365 9.03597e-05)
(0.121365 -3.257e-06 -0.000175416)
(0.123273 0.00125629 -9.43872e-05)
(0.119963 0.000412062 0.000680257)
(0.12396 -0.000132682 0.000611957)
(0.124305 -0.00016623 -8.11462e-05)
(0.11953 -4.12835e-05 -0.000203255)
(0.124189 0.0003538 -0.000489858)
(0.12041 -0.000180211 -6.51441e-05)
(0.116736 0.000130838 0.000264969)
(0.124386 0.000433244 0.000154241)
(0.113864 -0.00038251 -0.000101992)
(0.125205 -0.000559618 0.000301775)
(0.123934 -0.000396067 0.000264375)
(0.113794 3.97267e-05 -0.000134924)
(0.117694 -6.67008e-05 -0.000334656)
(0.116287 -0.000498051 5.2955e-05)
(0.123163 8.15739e-05 -2.92282e-05)
(0.124885 -0.000785606 -0.000877252)
(0.123572 -0.00068945 0.000746348)
(0.124788 -0.000862567 -0.000404572)
(0.118064 0.000316528 -0.000292224)
(0.121644 0.000500645 -0.000348198)
(0.121713 -7.48764e-05 0.000215831)
(0.125099 -0.000443818 -0.000236401)
(0.124425 -0.000245244 -0.000540597)
(0.115522 0.000113387 -0.000261781)
(0.12385 0.000643482 0.000241618)
(0.114705 -0.000301879 0.00044761)
(0.122049 -0.0004287 -0.000182688)
(0.121734 0.000179215 6.7677e-05)
(0.115998 -9.09456e-05 -0.000651056)
(0.121449 6.53616e-05 0.000323752)
(0.120884 0.00013492 0.000390054)
(0.116652 0.000275829 -0.000204135)
(0.123173 -0.000217871 -0.000500659)
(0.123748 0.00035368 -0.000193017)
(0.119523 -0.000266359 -0.000323666)
(0.120934 -5.87408e-05 -0.000222863)
(0.122593 0.000422895 0.000289481)
(0.125103 -0.000301114 -0.000518016)
(0.122622 5.4547e-05 -0.00101638)
(0.121198 -0.000313056 0.000129287)
(0.117826 2.4063e-05 -0.000419439)
(0.125089 0.000316998 -0.000197031)
(0.123003 0.000138371 6.88624e-05)
(0.117891 0.000347231 -0.00124264)
(0.12332 -0.000414697 -0.000839494)
(0.12166 -0.000230716 -0.000201904)
(0.122855 0.000645333 6.01002e-05)
(0.114971 0.000356478 -0.000602492)
(0.124378 -0.000651655 0.000284247)
(0.120991 0.000208861 -0.000651271)
(0.12014 -0.000244721 0.000396663)
(0.123215 0.000251618 1.12229e-08)
(0.119553 -2.67354e-05 8.42944e-05)
(0.11232 -0.000307782 2.5489e-05)
(0.124525 -0.000408708 0.000153802)
(0.1218 -0.000229607 -0.000287311)
(0.122021 -0.000101137 -0.000119899)
(0.124355 -0.000470748 -0.000306304)
(0.125186 -7.16693e-05 0.000133455)
(0.124559 -0.000201371 -0.00048666)
(0.115948 0.000885968 -0.00147983)
(0.123672 -0.00023959 -0.000497563)
(0.122033 -0.000385348 0.000246327)
(0.120758 -0.000505713 -0.000143485)
(0.116914 -0.000515469 -0.000465075)
(0.11912 0.000624502 -0.00082448)
(0.119631 -0.000839251 -0.000421306)
(0.120197 0.000902219 0.000441897)
(0.122056 0.000189125 -0.000507723)
(0.121508 -0.000214477 0.000130303)
(0.120885 0.00017485 0.000332062)
(0.115958 -0.00114149 -0.000134654)
(0.122825 0.000277933 -1.78892e-05)
(0.122487 0.000296646 0.000904722)
(0.119537 -0.000323573 -0.000149485)
(0.115274 7.83563e-05 -0.000176401)
(0.116498 -6.1916e-05 -0.000376254)
(0.12483 -0.000639141 -0.000308036)
(0.114725 0.000352573 -0.000468396)
(0.115818 -0.00094572 -0.00089119)
(0.11837 0.000395105 -4.61728e-05)
(0.114107 -0.00040063 0.000671081)
(0.122706 -0.0013569 0.000360293)
(0.117009 -9.77698e-05 -0.000266732)
(0.120841 0.000109144 -0.000175265)
(0.120674 -0.000715882 -0.000663864)
(0.121122 0.000138158 -0.000901553)
(0.114889 -0.000540514 0.000273254)
(0.120685 0.000658505 8.77503e-05)
(0.12015 -0.000784188 -0.000185142)
(0.122636 0.000115564 0.000135751)
(0.120705 -0.000369752 5.35315e-05)
(0.122594 -0.000369676 -0.000179216)
(0.123204 -0.0004746 0.000316421)
(0.124035 -1.62362e-05 -0.000611828)
(0.123149 0.000352946 -0.000725555)
(0.12298 -0.000257642 -0.000853969)
(0.123814 -0.00041915 0.000140542)
(0.120637 -2.70596e-05 0.000404511)
(0.119549 0.000165915 -0.000277281)
(0.119282 -0.000633702 -0.000361859)
(0.123619 -0.000251029 0.000198571)
(0.123148 0.000196679 -0.000198063)
(0.123865 0.000116908 -0.000530181)
(0.122948 -0.000624568 -1.39407e-05)
(0.121842 -0.000186243 0.000100835)
(0.124189 -0.000141651 -0.000122436)
(0.121525 -0.000107394 4.33853e-05)
(0.116812 -0.000158331 -0.00029958)
(0.115817 -0.000732303 -0.00046868)
(0.124137 0.00038298 0.000602224)
(0.121008 -0.000475176 -0.000500724)
(0.120676 -0.000240289 -0.000415775)
(0.124787 0.000276958 0.00112476)
(0.123762 0.000438534 0.000307896)
(0.115254 -0.000361827 -0.000490009)
(0.115634 -0.000113048 -0.000690208)
(0.123532 -0.000251194 2.30451e-05)
(0.123229 -7.96206e-05 -0.000210418)
(0.116348 -0.000271896 -0.000446088)
(0.116916 -0.000103825 0.000184089)
(0.124001 -0.00047764 0.000133831)
(0.119025 -0.000133393 -0.00122185)
(0.120611 -6.40047e-05 0.000190464)
(0.1214 -0.000477102 -0.000883876)
(0.123794 -0.000132618 8.11882e-05)
(0.117296 0.000622256 -0.00127911)
(0.125561 -9.72186e-07 2.25312e-06)
(0.122998 -0.000357205 -0.000256552)
(0.117692 -0.00125779 -0.000200795)
(0.116138 -0.000752398 0.00100713)
(0.120335 -0.000394069 -0.000147337)
(0.124793 -0.000179457 -0.0004666)
(0.114987 0.000249862 9.36725e-05)
(0.116855 0.000208739 -0.00110165)
(0.116021 -0.000441102 0.000161056)
(0.115122 -0.00115574 5.21314e-05)
(0.11952 0.0003728 -0.000329367)
(0.116142 0.000349711 0.000169939)
(0.124418 -0.000688642 0.000216429)
(0.12431 -0.000481935 0.000247942)
(0.116202 0.000243526 -0.000822536)
(0.116989 -0.000839106 0.000369407)
(0.120278 0.000711437 -0.000571966)
(0.116576 -5.6908e-05 -2.95951e-05)
(0.121613 -9.49385e-05 0.000512454)
(0.12499 -0.000286254 -0.00022971)
(0.123012 -0.000667098 -0.000478832)
(0.12124 0.000628271 0.000253088)
(0.123615 0.000315032 0.000386558)
(0.121829 -0.000508905 -7.473e-05)
(0.120016 -0.000456304 -0.000106882)
(0.120271 0.000147152 -6.02307e-05)
(0.120536 -0.000588271 0.00074874)
(0.119424 -9.14848e-06 0.000215699)
(0.114121 0.00104866 -0.000624393)
(0.122337 -0.000175581 0.00010214)
(0.124634 0.00011877 -0.000238265)
(0.120102 0.000183466 0.000702566)
(0.124089 0.000209348 -0.000126972)
(0.116925 -0.000254052 9.16478e-05)
(0.114616 -0.000161506 0.000417286)
(0.1251 -0.00025246 -5.83167e-05)
(0.123793 -0.000235424 -0.000314935)
(0.12158 -0.000332696 0.000508556)
(0.120563 -0.000116623 0.00027943)
(0.12107 -0.0002001 -0.000433224)
(0.121683 -0.000214906 -0.000734129)
(0.121374 0.000643134 0.000427176)
(0.123429 0.000443438 -0.000487826)
(0.116671 -0.000179595 -0.000331048)
(0.120237 0.000115871 -0.000223965)
(0.124741 -2.76423e-05 0.000257755)
(0.123443 -0.000273613 0.000144244)
(0.122678 -0.000239276 0.00022145)
(0.120993 -0.00157997 -0.000753507)
(0.121765 -0.000609418 -0.000463848)
(0.119626 6.50784e-05 -0.000384918)
(0.120952 -0.000271635 -0.000474355)
(0.119397 0.000596414 -0.000642977)
(0.123787 7.55234e-05 -0.000607341)
(0.11501 -0.00015338 -5.59845e-06)
(0.12106 -8.48123e-05 -0.00015921)
(0.120736 0.000430416 8.04501e-06)
(0.122073 9.81843e-05 -0.000420609)
(0.124204 -0.000129895 -0.000522138)
(0.123585 -0.0005721 -0.000408679)
(0.124458 -0.00017752 -0.000301085)
(0.116701 -0.00110161 -0.000374375)
(0.119327 -0.00069037 0.000487655)
(0.123563 -0.000385136 -0.000259423)
(0.124344 -0.000201028 0.0003039)
(0.123171 3.93094e-05 0.000331082)
(0.121538 -0.000444637 -0.000535867)
(0.113339 -0.000328556 0.000622955)
(0.12083 -0.000506407 0.000507512)
(0.116218 -0.00070389 -0.000304486)
(0.119308 0.000398283 0.000104501)
(0.123662 -0.000475663 0.000522798)
(0.119529 8.78059e-05 0.000494518)
(0.115411 0.000434374 -0.000272516)
(0.121754 0.000176756 0.000211617)
(0.123127 0.000533817 -0.000259291)
(0.124758 -0.00051196 -3.59901e-05)
(0.115854 -0.000345969 -6.1915e-06)
(0.115033 -0.000792243 0.00029954)
(0.122303 -0.000316835 0.000391456)
(0.124038 -3.23135e-05 -0.000630898)
(0.116244 -8.58243e-06 0.000487118)
(0.12402 -0.000690597 0.000294338)
(0.119039 -8.87255e-06 -0.000492009)
(0.116869 -0.000490581 0.000184647)
(0.120336 0.000257734 -0.000410197)
(0.122683 -0.000350014 7.55788e-05)
(0.119507 -0.00104398 -0.00012949)
(0.118648 0.000215949 0.000966505)
(0.119874 0.000384726 0.000418773)
(0.121646 -0.000151703 -0.000163037)
(0.119784 0.000470559 -0.000543248)
(0.118815 0.000665402 -0.00108306)
(0.115084 -0.000469658 0.000556513)
(0.119889 0.000273942 -0.000682079)
(0.120342 0.000109441 -0.000717932)
(0.117982 -8.57494e-05 -1.66746e-05)
(0.119737 -0.0011482 0.000407247)
(0.124093 0.00019437 -0.000174127)
(0.124319 0.000592742 0.00018665)
(0.121706 0.000442026 -7.32192e-05)
(0.116809 0.000186474 2.1763e-06)
(0.123762 0.000295104 -0.000180573)
(0.123371 0.000339924 -0.00052676)
(0.121557 -0.000439629 -0.000302265)
(0.125175 0.00012108 0.000846123)
(0.124683 0.000112421 -0.000415452)
(0.122785 0.000208398 -0.000436513)
(0.124491 -9.05497e-05 6.70967e-05)
(0.119513 0.000449105 0.000229783)
(0.121432 -0.00030718 -0.000670621)
(0.115271 0.000289526 -0.00164086)
(0.119595 -1.10985e-05 -0.00011471)
(0.123679 -0.00106054 0.000346758)
(0.119413 2.53719e-05 0.000385844)
(0.123857 0.000380156 -0.000165002)
(0.120831 0.000483749 -0.000705306)
(0.122098 -0.000222763 0.000122422)
(0.122927 0.000279428 0.000405641)
(0.124809 -7.55401e-05 -0.000718246)
(0.12167 0.000665515 0.000141387)
(0.116108 0.000294726 3.15796e-06)
(0.120632 0.000222615 0.000228117)
(0.117567 0.00166079 -0.000355099)
(0.124224 -0.000353925 -0.000984178)
(0.120794 -0.000615333 -0.000430257)
(0.123888 0.000133106 -0.00047234)
(0.12202 0.000235872 -8.83204e-05)
(0.11987 -0.000171176 -0.000466576)
(0.115094 -8.12495e-05 -8.73009e-06)
(0.117474 6.08418e-05 -0.000575738)
(0.116574 0.000344039 0.000306121)
(0.114942 -0.000355614 0.00011615)
(0.124553 -0.000352016 -0.000451768)
(0.115501 -0.000493176 -0.000623828)
(0.122258 -0.000429319 0.00029176)
(0.12151 0.000539419 -0.000298507)
(0.120761 5.98671e-05 -0.000230718)
(0.116982 -0.00023468 -0.000297793)
(0.124342 -0.000824153 -1.54355e-05)
(0.120971 0.000107493 -0.000776134)
(0.118783 0.000136512 0.000689023)
(0.124088 0.000131051 -0.000451593)
(0.122554 -0.000136261 -7.83101e-05)
(0.117513 0.000515777 0.000507937)
(0.119544 0.000161966 -5.76849e-05)
(0.116584 0.000195985 -5.17127e-05)
(0.121346 0.000287844 -0.000377382)
(0.119944 0.000355769 -0.000188138)
(0.116792 0.00042803 0.000925733)
(0.121367 -6.30177e-05 -0.000224769)
(0.119743 0.00112271 0.000610278)
(0.114173 8.51589e-05 -0.00126377)
(0.114117 0.000333572 0.000245693)
(0.122953 -0.000485666 0.000192552)
(0.12419 0.000137014 -7.7412e-05)
(0.124881 0.000293009 -0.000147219)
(0.1156 0.000347523 0.000258459)
(0.117216 -7.82892e-05 0.000558353)
(0.123366 0.000208809 0.000379908)
(0.118493 -0.000241482 -0.000269698)
(0.118569 0.000627744 -0.000864556)
(0.12332 0.000349987 0.000235954)
(0.124032 -0.000604107 -8.99232e-05)
(0.120631 -0.000850274 0.000197348)
(0.123936 -0.00105933 -0.000263556)
(0.124966 0.000110022 -0.000240175)
(0.11639 -0.000191999 -0.000257015)
(0.124761 -0.0012157 -0.000234235)
(0.114059 0.00022621 -0.000226985)
(0.115303 -4.52109e-05 -3.67357e-05)
(0.124398 -0.000453536 -0.000280492)
(0.123622 -0.000504066 -0.000157274)
(0.124575 6.32325e-05 -0.000765252)
(0.12491 0.000411222 -0.00107837)
(0.12374 -0.00020962 -0.000839114)
(0.117546 0.00128006 -0.000604651)
(0.11922 -0.00107412 0.00076386)
(0.120125 -0.000124253 -0.000302687)
(0.122736 -0.000986091 0.000151671)
(0.124504 0.000978711 0.000932642)
(0.125005 -0.000844335 0.000336177)
(0.120718 0.000188817 -0.00027376)
(0.118538 -0.00107909 0.000473067)
(0.120619 -1.32075e-05 -0.000108597)
(0.123782 -0.000113542 -0.000159224)
(0.123456 -0.000118204 -0.00101578)
(0.119656 9.98425e-05 -0.000236515)
(0.12233 -0.000223688 -3.95415e-05)
(0.120184 0.00063246 -0.000653713)
(0.120451 -0.000422376 -0.000401045)
(0.122761 -0.000417987 0.000377721)
(0.118851 -0.00112693 0.00100818)
(0.116441 -0.000161409 -3.00354e-05)
(0.12158 0.000863725 -0.000519978)
(0.122686 0.000100603 0.000523492)
(0.120066 0.000277285 -0.000183238)
(0.122904 0.000388953 0.000393966)
(0.123831 -0.000496253 0.000299672)
(0.121213 0.000135418 -0.000433241)
(0.117244 0.000155061 -0.000537676)
(0.12046 0.000469834 -0.000427637)
(0.119604 0.000472312 0.000503818)
(0.115345 0.00023548 -0.000485684)
(0.123571 -0.000847872 0.000276037)
(0.115147 0.000579075 0.000470141)
(0.122906 -0.000118109 -0.000485696)
(0.124612 -0.000806045 -0.000301622)
(0.116103 -0.000358016 0.000199428)
(0.121203 0.00035231 4.384e-05)
(0.119789 0.000427454 0.00040939)
(0.115846 -0.000292717 2.76826e-05)
(0.122507 -0.00017743 -0.000228464)
(0.117287 4.7379e-05 -0.000101356)
(0.120934 -8.15712e-06 0.000713717)
(0.124199 0.00036271 7.97042e-05)
(0.122691 0.000156192 0.000163384)
(0.115051 0.000340259 1.97244e-05)
(0.123 0.000321306 3.62277e-05)
(0.117148 0.00013259 -0.000395142)
(0.122961 -6.71321e-05 -4.92856e-06)
(0.123001 0.000267996 0.000168735)
(0.123475 -0.000173696 -0.000586698)
(0.124175 -0.000168821 -0.000529828)
(0.116044 -2.65482e-05 -0.000692742)
(0.122887 -0.000855138 9.20606e-05)
(0.115346 6.29945e-05 -0.000560632)
(0.119941 4.39606e-05 -0.000475374)
(0.116253 7.1746e-05 -0.00043419)
(0.125243 -1.7968e-05 -0.000559473)
(0.123984 7.70136e-05 -0.000545027)
(0.124886 -2.66832e-06 6.75065e-06)
(0.124367 -0.00037293 -0.000558481)
(0.12202 -5.12122e-05 -0.000664324)
(0.12335 -7.22454e-05 0.000209786)
(0.120164 0.000281892 -8.58114e-05)
(0.121918 0.000254621 -0.000306075)
(0.120909 0.000108962 -0.000390082)
(0.117196 0.000129867 0.000101006)
(0.123345 7.136e-06 -0.00045318)
(0.121491 -0.000375691 -8.93302e-05)
(0.121636 -0.000191091 -0.000299093)
(0.123737 0.000139407 0.00014512)
(0.123427 -5.84872e-05 -0.000508964)
(0.123874 3.51614e-05 0.000233033)
(0.120746 -0.000715279 0.000164728)
(0.115472 -0.000158498 0.000727802)
(0.120456 0.000227508 0.000160062)
(0.122933 0.000140409 0.0004262)
(0.122119 -0.00024567 9.0933e-05)
(0.116174 -0.000624144 -0.000464297)
(0.124061 0.000105505 -0.000354116)
(0.123819 -0.000183031 -0.000854758)
(0.118953 0.00032252 -0.000422531)
(0.122657 -0.000309544 -0.00052572)
(0.123177 -0.000348987 -0.00115898)
(0.123042 -0.000383988 -0.0006496)
(0.123099 -0.000384661 -0.000113077)
(0.115731 -0.000126682 -8.6843e-05)
(0.122406 -0.000446062 8.71039e-05)
(0.122873 -0.00053223 0.000266241)
(0.113995 0.000137776 2.46574e-05)
(0.122125 -0.000905172 -1.00155e-05)
(0.122359 -0.000315826 -0.000176152)
(0.118698 0.000120219 0.000313122)
(0.114961 -7.13709e-05 0.000166914)
(0.11476 -0.000356489 0.000659677)
(0.120249 -0.000948225 0.000222078)
(0.114424 0.000575251 -0.00051655)
(0.120555 4.10182e-05 0.000188752)
(0.121572 -5.82529e-05 -5.11597e-05)
(0.119173 0.000574684 0.000279174)
(0.123013 0.000481585 0.000151467)
(0.115753 -0.000244251 0.00016447)
(0.122454 0.000373889 6.57338e-05)
(0.125106 0.00025218 2.10879e-05)
(0.120407 -0.000144655 9.56096e-05)
(0.122833 -0.000130451 0.000626153)
(0.120495 9.72209e-05 3.52957e-05)
(0.124254 0.000949814 -4.43564e-05)
(0.121848 0.000423052 4.44014e-05)
(0.122208 -0.00023073 -0.000637968)
(0.12521 7.90312e-05 -0.00044948)
(0.121087 7.53225e-05 -0.000423857)
(0.116031 0.00015256 0.000187976)
(0.12059 8.65482e-06 -0.000175552)
(0.124735 0.000247958 -0.0011551)
(0.12378 0.000284194 -0.000740335)
(0.123114 -0.000179559 0.00066337)
(0.124126 6.56804e-05 3.51361e-05)
(0.120772 -0.000706908 0.000591113)
(0.123425 -0.000226978 0.000212935)
(0.122187 0.000147298 0.000241875)
(0.123381 0.000220349 -0.00018531)
(0.123838 -0.000429327 -0.00047208)
(0.114786 -0.000492972 -0.000309049)
(0.120266 -0.000330653 0.000230962)
(0.113573 -0.00020679 0.000217393)
(0.120518 0.000513712 0.000738442)
(0.11936 -0.000122092 -0.000682171)
(0.115956 -0.000344579 0.000701808)
(0.115011 -0.000513012 -0.000341122)
(0.121399 0.000361785 -0.0002586)
(0.122395 -0.000412884 -0.000214613)
(0.123987 -5.26675e-06 -0.000624784)
(0.116408 -0.000185198 0.000635767)
(0.122918 -0.000115714 4.11718e-05)
(0.120938 -5.63205e-05 0.000257077)
(0.120769 -0.000193628 -0.000466153)
(0.12236 1.77889e-05 -0.000622091)
(0.1147 -0.000235659 0.0019441)
(0.120762 -8.50221e-05 -0.000508629)
(0.115582 0.000119606 0.000349688)
(0.119102 -0.000462656 -0.000426423)
(0.123187 -0.000183607 5.36264e-06)
(0.125492 0.00133267 0.00036904)
(0.123522 0.000224373 -0.00104269)
(0.121984 0.000554523 -0.000701876)
(0.11439 0.000212563 0.00129717)
(0.122863 -0.000175506 0.000137362)
(0.122075 -0.00011607 -0.000484532)
(0.123406 -0.000210417 -0.000382787)
(0.115076 -1.87878e-05 -3.9923e-06)
(0.117473 -0.000162052 0.000555542)
(0.119743 0.000468792 0.000589969)
(0.117371 0.000411152 -0.000255387)
(0.114201 -0.000631231 -0.000163485)
(0.12338 -6.823e-05 -0.000376564)
(0.117014 -9.89421e-05 7.18461e-05)
(0.119622 0.000838704 0.000171994)
(0.115855 -0.000410554 -0.000974512)
(0.122919 0.000344181 7.17269e-05)
(0.116473 0.000107012 -0.000301279)
(0.124289 -0.000167061 0.000595189)
(0.122944 0.000144436 -0.000446918)
(0.124405 -7.94858e-05 0.00052447)
(0.124534 -0.000119309 -0.000463291)
(0.116787 4.11447e-05 0.000223374)
(0.123592 8.76535e-05 0.000230834)
(0.124747 -0.000227838 -9.14286e-05)
(0.12195 -0.000441629 0.000395707)
(0.122882 0.000564857 -0.000199608)
(0.122032 -0.000463642 -0.000254339)
(0.124155 0.000420064 -0.000123739)
(0.123298 4.57026e-05 0.000384723)
(0.119186 5.89796e-05 -0.000425763)
(0.125541 -0.000198407 -7.26271e-05)
(0.124945 -0.000321917 -0.000258226)
(0.121316 -0.000248183 -0.000252614)
(0.120572 -0.000294516 -0.000800101)
(0.124169 -0.000396021 -0.000242352)
(0.121622 0.000344276 3.34843e-05)
(0.114238 0.000674213 -0.000228516)
(0.114431 0.000429127 -6.26578e-05)
(0.120831 2.21867e-05 9.40137e-05)
(0.12354 -6.88744e-06 0.000188405)
(0.124897 -0.000202919 -0.000225811)
(0.119007 -0.000223826 -0.000102172)
(0.123857 0.000522076 0.00024664)
(0.122714 -3.44138e-05 0.000176406)
(0.124102 0.000975288 0.000816133)
(0.121294 -4.04082e-06 -0.000125225)
(0.121365 0.000514919 -0.00044819)
(0.122326 -0.00160283 0.000595423)
(0.115689 1.07769e-06 -0.000260285)
(0.120442 0.00017171 3.80554e-05)
(0.122415 2.2173e-05 -0.000302762)
(0.124308 1.38381e-05 3.30219e-06)
(0.117121 -0.000195667 8.02001e-05)
(0.11794 0.000655883 -0.000739929)
(0.118896 -9.8324e-05 -0.000330757)
(0.118579 -0.000352744 -8.35533e-05)
(0.120668 -0.000181058 -0.000543993)
(0.115394 -0.000108781 -0.000386713)
(0.123612 0.00018952 -0.00088812)
(0.119841 3.43192e-05 -0.000271429)
(0.122877 0.000114447 0.00105348)
(0.120564 -0.000271192 -8.78009e-05)
(0.124829 -0.0002459 -0.000259569)
(0.121552 -0.000252057 -0.000900411)
(0.115643 0.0001903 0.000576177)
(0.12214 0.000817331 5.72465e-05)
(0.125045 -0.000269484 -0.000993658)
(0.116439 0.000384715 0.00114616)
(0.123913 -0.000154485 -0.00074773)
(0.125776 -0.000954051 -0.000633418)
(0.121472 -0.000233219 -5.56324e-05)
(0.119925 0.000238313 0.00014551)
(0.123674 0.000156306 -0.00105469)
(0.119003 -2.54379e-05 -1.65588e-05)
(0.121031 -0.000449486 6.06751e-05)
(0.120782 0.000163068 0.000282693)
(0.116429 -8.36038e-05 1.31141e-05)
(0.116856 -0.000157877 -0.00118183)
(0.120023 0.000206183 0.000468121)
(0.119137 0.000622427 0.00015287)
(0.123473 -0.000136811 -0.000306282)
(0.118836 -0.0004155 0.000301433)
(0.12037 0.000460067 0.000428622)
(0.124503 0.000206136 0.000368771)
(0.119949 0.000211396 -8.43867e-06)
(0.114819 0.000206362 0.00035222)
(0.119131 0.000322026 0.000195716)
(0.121081 0.000444855 -0.00029867)
(0.12487 -0.00018935 0.000267292)
(0.115487 0.000724949 0.000399045)
(0.115271 -0.000122356 0.000292862)
(0.124677 0.000323219 0.000919264)
(0.115625 0.000265657 2.9142e-06)
(0.122049 -4.40651e-05 -0.000107099)
(0.123558 0.000193491 -0.000254686)
(0.11707 -0.000157298 -0.000849427)
(0.121142 0.000101796 -0.000359594)
(0.1243 0.000512887 -0.000708773)
(0.121045 -3.19416e-05 0.000624903)
(0.113918 5.99429e-05 0.000208862)
(0.123852 0.000252073 -0.000144544)
(0.121122 -6.37178e-05 -0.000286494)
(0.114481 0.000535869 4.04905e-05)
(0.124253 0.000255478 -0.000218024)
(0.119408 -0.000146337 -0.000281808)
(0.12006 0.000550091 -0.000393681)
(0.122765 -6.28422e-05 -0.000109787)
(0.114764 0.000824629 -0.000456566)
(0.119982 -8.82079e-05 -0.00104252)
(0.119376 -0.000654121 3.3162e-06)
(0.121211 -1.40675e-05 -0.000493768)
(0.117045 -0.000118524 0.000437021)
(0.118761 -6.31277e-05 -9.70237e-05)
(0.123016 0.000497898 0.00048166)
(0.125212 -0.000873188 -0.000639406)
(0.126223 -0.000328568 -1.98692e-05)
(0.124832 0.000508983 -0.000375118)
(0.124186 -0.000593405 -0.000211214)
(0.123199 9.46677e-05 -0.00129866)
(0.118442 -0.000247895 0.000433743)
(0.125467 0.000165773 -0.00106847)
(0.123322 -7.05147e-05 -1.84566e-05)
(0.122408 0.000554738 0.000132902)
(0.117235 0.000834612 -0.000366265)
(0.121571 -0.000154991 -0.000217268)
(0.122601 0.000466235 0.000598262)
(0.126018 0.000916112 3.2693e-05)
(0.115467 -7.94435e-05 0.000310943)
(0.114263 -0.000461487 0.000403613)
(0.124199 0.000180823 -0.000630714)
(0.119125 -2.08853e-05 -0.000344698)
(0.124259 8.18074e-05 -4.29483e-05)
(0.119744 0.000120876 -0.000483534)
(0.117049 -0.000305929 -0.000826358)
(0.122355 -8.35245e-05 -0.000888867)
(0.124024 0.000373234 -6.16069e-05)
(0.121863 0.000269306 0.000130557)
(0.12351 0.000969453 -0.000327842)
(0.11617 2.35608e-05 -0.00173338)
(0.123619 0.00101729 0.000315868)
(0.123313 -0.000290954 -0.000504015)
(0.114785 0.000370697 -5.75586e-05)
(0.123047 -0.000217113 -0.000543785)
(0.122854 -0.000227119 8.02481e-06)
(0.121142 -5.26113e-05 0.00147364)
(0.116446 -0.000600839 -0.000917711)
(0.115137 0.000296343 -0.000804656)
(0.120599 0.000311133 -0.000296311)
(0.120576 -4.35787e-06 0.000954254)
(0.121243 -0.000175276 0.000188528)
(0.120502 0.000555631 0.000157009)
(0.119936 0.00049664 0.000737091)
(0.123796 0.00010768 6.77852e-05)
(0.121447 -8.47991e-05 0.000241201)
(0.121707 0.000417247 0.000279642)
(0.117256 -0.000277239 0.000694851)
(0.124775 -7.49938e-05 -0.00100312)
(0.115776 -0.000221284 2.71314e-05)
(0.121 0.000696365 -1.44431e-05)
(0.120505 0.000324417 -9.88759e-05)
(0.120802 -0.000799097 -0.000717383)
(0.12242 0.000490351 3.483e-05)
(0.119072 -0.000128357 -0.000456491)
(0.116208 -0.000851686 -0.000527086)
(0.114963 -0.000200332 -0.000554806)
(0.116436 -0.00032002 -0.000281715)
(0.12058 -0.000522117 -0.000372249)
(0.122948 0.000684386 0.000228376)
(0.115642 0.000468737 0.00184794)
(0.123531 -0.00016705 -5.94517e-05)
(0.121047 -1.29764e-05 -0.000788767)
(0.12439 -0.000398261 -0.00040048)
(0.115476 2.87931e-05 -0.000756379)
(0.118965 0.000388585 0.000552546)
(0.123159 0.000246478 -0.000856542)
(0.124626 -0.000906748 -4.88487e-05)
(0.123057 0.000378306 -0.000403628)
(0.124128 -0.000230679 -0.000276991)
(0.121525 0.000142409 0.00017503)
(0.120749 0.00049567 0.00017437)
(0.124884 -9.79794e-06 0.000264871)
(0.124583 0.000418635 -1.94655e-05)
(0.124448 0.000276342 9.93422e-05)
(0.117569 0.000989409 -0.000467962)
(0.124512 -0.00084854 -0.000743345)
(0.114977 -0.000308625 0.000442811)
(0.124648 0.000704918 6.83144e-05)
(0.121856 0.000112868 -0.000189695)
(0.120592 0.000159651 -0.000575276)
(0.116351 0.000892769 -9.18025e-06)
(0.120757 0.0011535 -0.000782949)
(0.113677 -0.000769532 -0.000751428)
(0.123591 0.000285038 -0.000606773)
(0.121168 0.000151974 -0.000268778)
(0.123814 -0.00018216 -0.000257533)
(0.120063 0.00038374 -0.000264576)
(0.119689 0.00121093 -0.000349574)
(0.11564 -0.000313529 0.000739304)
(0.1252 0.000263688 -9.10257e-05)
(0.11702 -0.000567344 0.000286882)
(0.114088 -0.00029355 -0.00033066)
(0.116825 -0.000210826 2.89774e-05)
(0.117168 0.000384959 0.000173739)
(0.116362 0.000747406 -0.000113386)
(0.120905 -0.000332191 0.000103324)
(0.115868 0.000122988 -9.53992e-05)
(0.122617 -0.00117365 0.000508255)
(0.123229 1.90018e-05 -0.000457679)
(0.114017 -8.40771e-05 -5.50274e-05)
(0.122745 0.000300747 -0.000159721)
(0.116121 0.000329312 -0.000760518)
(0.120359 0.000661651 -0.000184707)
(0.121189 0.000327198 -0.000171945)
(0.120866 -0.000288629 -0.000981011)
(0.123342 0.000127015 -8.62087e-05)
(0.125284 0.000278379 -0.000880811)
(0.123439 -5.77757e-05 0.000329264)
(0.12256 4.8394e-05 -9.06755e-05)
(0.122249 -0.000211538 -0.00115963)
(0.122977 0.000354059 0.000174715)
(0.120068 0.000355702 -5.02065e-06)
(0.120572 0.000421318 0.000186335)
(0.114664 0.000567387 -0.000875803)
(0.110962 0.000721421 0.00357712)
(0.123987 6.20514e-05 5.63867e-05)
(0.120884 7.54081e-05 -0.000226968)
(0.123287 -0.000299429 -0.000128797)
(0.123118 -7.00999e-05 0.000239819)
(0.115123 -0.000560942 -5.63783e-05)
(0.123964 -0.000133211 -0.000302526)
(0.124307 0.000589491 9.50339e-05)
(0.123991 5.2957e-05 0.000144746)
(0.123939 0.000311649 0.000503129)
(0.122325 0.000366641 0.000442836)
(0.121832 -0.000551057 -0.000202157)
(0.123908 -7.27143e-05 0.0001135)
(0.124803 -0.000160598 0.000559099)
(0.12204 0.000332095 0.000332992)
(0.124375 0.000291482 -0.000239748)
(0.123797 -0.000377243 -0.000442708)
(0.117662 -0.000335626 -0.000481121)
(0.123938 -0.000138489 0.000269573)
(0.118224 -0.000176992 0.000537727)
(0.121251 8.65623e-05 -0.000159041)
(0.121208 -0.000890964 8.33959e-05)
(0.120612 -0.000501546 0.000234536)
(0.12021 0.000688504 0.000100507)
(0.123062 0.000411997 -6.48402e-05)
(0.120464 0.000171982 0.000180081)
(0.121742 0.000511023 -0.000576099)
(0.120309 0.0012222 -0.000646792)
(0.115046 0.00131033 -0.00091539)
(0.125188 0.000484473 -0.000341929)
(0.123058 0.000650109 -0.000163225)
(0.120016 2.01483e-05 0.000753056)
(0.115687 -0.000432041 1.69753e-06)
(0.123291 -0.000365239 -7.08596e-05)
(0.115245 -0.000593229 -0.00056332)
(0.124181 -0.000334635 9.7579e-05)
(0.123658 -8.25882e-05 0.000316792)
(0.11957 0.00121818 -0.000560967)
(0.123102 -0.000347981 0.000173767)
(0.124657 0.000115565 -0.000449703)
(0.121945 -0.000481658 -0.000183926)
(0.114808 -8.76237e-05 0.000247776)
(0.120417 8.93231e-05 0.000222576)
(0.118002 0.000664819 -0.000431333)
(0.120888 0.000194464 -0.000240467)
(0.115202 -0.000501768 -0.000935447)
(0.122828 -0.000118458 -0.000372643)
(0.12332 -0.00048404 0.000633064)
(0.118704 0.000765121 -0.000765464)
(0.120724 0.000123486 4.96241e-05)
(0.117942 0.000126496 -0.000458742)
(0.123598 3.35722e-05 -0.000437529)
(0.120161 -0.000720563 0.000108136)
(0.121104 0.000474208 0.000523554)
(0.115716 -0.000190258 6.06359e-05)
(0.123792 3.10499e-06 2.43905e-05)
(0.122069 -0.000348294 -0.000138197)
(0.12399 -3.95876e-06 -0.000154447)
(0.118321 0.000513593 -0.000356602)
(0.120745 -5.53455e-05 -0.000324679)
(0.121783 0.000116555 -0.00031282)
(0.119588 -0.000181037 0.000239927)
(0.121855 -6.68381e-05 0.000337986)
(0.121335 -0.000274658 0.00059454)
(0.123473 -0.000415884 0.000116724)
(0.120892 -0.000178877 -0.000117694)
(0.11627 -2.42805e-06 -0.000200786)
(0.114282 -0.000166955 -0.000691878)
(0.122391 -0.000715869 0.00015135)
(0.115156 0.000527096 -0.00121872)
(0.119066 -0.000707562 -0.00142338)
(0.120915 0.000262899 -0.000266616)
(0.121051 0.000312864 0.000134964)
(0.124661 0.000456073 -0.000350601)
(0.115017 3.33529e-05 -1.66792e-05)
(0.120324 -0.000118997 -0.000713422)
(0.125095 0.000111762 -0.000449977)
(0.11654 0.000817831 -0.00280387)
(0.116729 0.00135935 7.48212e-05)
(0.120137 0.000145332 -0.000827352)
(0.116598 8.25677e-05 1.9514e-05)
(0.122644 0.000825487 -0.000904435)
(0.116848 -0.000332313 8.10211e-05)
(0.124543 -0.00082291 -0.000362514)
(0.118561 0.00026925 0.000487846)
(0.119783 0.000546784 0.000501354)
(0.125546 0.00045907 0.000885122)
(0.114249 -0.00013858 0.000541723)
(0.118868 9.6798e-05 0.000380827)
(0.118896 2.59127e-05 0.000567709)
(0.123891 -4.60498e-05 -0.000768489)
(0.124033 4.43398e-05 0.000327777)
(0.124044 5.03666e-05 -0.000134062)
(0.11592 0.000743215 0.00032687)
(0.122799 0.000149006 -0.000298178)
(0.12369 9.05614e-05 0.000994685)
(0.118814 -0.000158145 -0.000234664)
(0.123854 0.000393561 -0.000113359)
(0.123265 0.000419137 0.00021282)
(0.123134 0.00038556 -1.86873e-06)
(0.124353 3.17566e-05 -0.000641075)
(0.120903 6.96269e-05 -0.000149782)
(0.125334 -2.16327e-05 0.00042728)
(0.124747 0.000722856 0.000846998)
(0.124095 9.26385e-05 -0.000636421)
(0.121844 0.000495982 0.00029086)
(0.120094 -0.000263284 -0.000319806)
(0.121059 0.000425365 9.62663e-05)
(0.120735 0.000175315 -0.000324185)
(0.114608 -0.000916394 -0.000285093)
(0.119788 -0.000339392 0.000103288)
(0.121987 -0.000294389 0.000458724)
(0.123877 -0.000312291 -0.000293571)
(0.124561 -0.000271309 -0.000749997)
(0.120087 -0.000459146 -4.25917e-06)
(0.125246 0.00118982 -0.000227492)
(0.12297 -6.39278e-05 -5.69628e-05)
(0.11901 -0.000689584 0.000522773)
(0.12352 -0.000142821 -0.000414643)
(0.12407 1.03034e-05 -0.000218175)
(0.122702 9.01267e-05 -0.000596727)