/*--------------------------------*- C++ -*----------------------------------*\
| =========                 |                                                 |
| \\      /  F ield         | OpenFOAM: The Open Source CFD Toolbox           |
|  \\    /   O peration     | Version:  2212                                  |
|   \\  /    A nd           | Website:  www.openfoam.com                      |
|    \\/     M anipulation  |                                                 |
\*---------------------------------------------------------------------------*/
FoamFile
{
    version     2.0;
    format      ascii;
    arch        "LSB;label=32;scalar=64";
    class       surfaceVectorField;
    location    "0.048";
    object      Uf;
}
// * * * * * * * * * * * * * * * * * * * * * * * * * * * * * * * * * * * * * //

dimensions      [0 1 -1 0 0 0 0];

internalField   nonuniform List<vector> 
68568
(
(0.122506 0.000206473 -0.000140903)
(0.121747 0.000556524 -0.000205041)
(0.121435 0.000358948 -3.29326e-05)
(0.124037 0.000786991 -0.00037645)
(0.121691 -0.000443207 -0.000239742)
(0.121666 -0.000499334 -0.000485616)
(0.120419 -0.000453043 2.4107e-05)
(0.114222 -0.000232765 -0.000242906)
(0.123088 0.000217573 0.000318524)
(0.122812 -0.000486693 0.000750813)
(0.121336 -0.000219145 0.000135856)
(0.117484 -0.00064417 0.000757486)
(0.125317 -0.00019691 -0.000218139)
(0.124154 -6.64984e-05 -0.000454048)
(0.125132 -0.000134143 -0.000339669)
(0.125491 -0.00022379 -0.000358433)
(0.1199 -0.000215899 -0.000269257)
(0.12287 -0.000504862 -0.000315485)
(0.119263 -0.000230595 -0.000321666)
(0.122483 -0.000501099 -0.000362418)
(0.122342 -0.000180288 -2.24369e-05)
(0.120846 -0.000103481 0.000144339)
(0.12255 -0.000111865 0.000162952)
(0.115637 -0.000115543 -0.000282477)
(0.121425 -4.98115e-05 -0.000159961)
(0.116736 -0.000204234 0.000179251)
(0.118632 8.73528e-05 -0.000451136)
(0.12151 -7.97842e-05 -0.000231911)
(0.121335 0.000252541 0.00048087)
(0.123622 0.000127447 7.57054e-05)
(0.122326 -5.42597e-05 1.28632e-05)
(0.122768 -0.000166549 -0.00037088)
(0.121512 0.000111877 -0.000271303)
(0.121578 0.000307926 -0.000628113)
(0.123561 -0.000257429 -8.91796e-05)
(0.122242 -0.000565267 -0.000356465)
(0.124064 -0.000143953 -0.000577828)
(0.124251 -0.000538191 -0.000419197)
(0.12436 0.000465959 7.1942e-05)
(0.123047 0.000302075 -4.58553e-05)
(0.124206 0.000275655 -7.29537e-05)
(0.120434 -0.000131847 -0.000530378)
(0.124595 -0.000456032 -0.000758996)
(0.124149 -0.000584448 -0.0006791)
(0.121762 -0.000270132 5.9395e-05)
(0.120672 -0.000484101 -1.9764e-05)
(0.114708 -8.70002e-06 -0.000341736)
(0.124074 -0.000177835 -0.000127333)
(0.123934 -0.000160563 0.000280545)
(0.123027 -0.000186912 0.000195677)
(0.121106 -8.95251e-05 0.000189753)
(0.119398 -0.000327414 3.31398e-06)
(0.121146 -0.000283386 -0.000121004)
(0.120398 -0.000253867 -1.90813e-05)
(0.114252 -0.000302664 -4.67836e-05)
(0.121629 -0.000448144 0.000827414)
(0.116889 -0.000391258 0.000550905)
(0.11869 -0.000407622 0.000770157)
(0.121947 -0.000329652 0.000294014)
(0.120958 0.000189626 0.000245214)
(0.121919 0.000355711 0.000263087)
(0.121441 0.000291875 0.000197434)
(0.123048 0.000109889 0.000158341)
(0.11707 0.000434577 0.000452468)
(0.117218 -0.000325767 0.000700771)
(0.121149 -5.80639e-05 0.00025905)
(0.121397 -1.66683e-05 -0.000603518)
(0.118774 -0.000432353 -3.65881e-05)
(0.117495 6.07847e-05 -0.00070714)
(0.121861 -0.000243725 -0.000349837)
(0.1215 8.71479e-06 -0.000164634)
(0.123039 -0.000313805 -6.47451e-05)
(0.122586 -0.00049204 1.72536e-05)
(0.11689 -0.000131716 -8.24348e-05)
(0.116409 -0.000194456 -0.000377492)
(0.118161 6.62646e-05 -0.000321416)
(0.11677 0.000267276 -0.000330281)
(0.106074 -0.000153928 -0.000469445)
(0.123143 -0.000469682 -0.00056268)
(0.124634 -0.000229944 -0.000647747)
(0.123687 -0.00033945 -0.000646229)
(0.124142 -0.000372797 -0.00075257)
(0.123565 0.000375762 -0.000233575)
(0.123651 0.000465412 -0.000118394)
(0.121298 0.000488777 4.02884e-06)
(0.124415 0.000553932 -0.000261806)
(0.118241 0.000301504 -0.000286472)
(0.118651 -0.000119931 -0.000280714)
(0.121375 0.000180722 -0.000426728)
(0.121831 5.47123e-05 -7.90655e-05)
(0.116069 -5.0009e-05 6.67532e-05)
(0.120441 -0.000154745 -9.711e-05)
(0.118 0.000221759 -0.000494641)
(0.120487 -0.000149131 0.000246708)
(0.121094 -4.44355e-05 -7.9819e-05)
(0.121114 -0.000461444 0.000172427)
(0.123242 -0.000321871 0.000766161)
(0.121198 -0.000103326 -0.000303852)
(0.122641 -0.000185373 -0.000177513)
(0.116499 -0.00013713 0.000266025)
(0.123756 0.00100624 0.000395651)
(0.12142 0.00119073 -0.000300862)
(0.123437 0.00120175 0.000206442)
(0.121668 0.000860756 -0.000695294)
(0.122331 0.000160606 0.000470475)
(0.116122 0.000423338 -0.000249425)
(0.118024 0.000479843 0.000169826)
(0.124082 4.6472e-05 0.000362537)
(0.123191 -0.000149309 0.000322859)
(0.124153 -5.67677e-05 0.000353961)
(0.124694 -0.000298538 -0.000192568)
(0.12284 -6.09584e-05 1.35433e-05)
(0.124846 -0.000239209 -0.000142598)
(0.122292 -0.000144138 -0.000174379)
(0.120957 -0.000190948 -0.000200319)
(0.121018 -8.75195e-05 -0.000335046)
(0.117309 0.000362139 -2.47563e-05)
(0.116811 -0.000281992 0.000335627)
(0.123658 0.000293846 -0.000475886)
(0.122929 3.76195e-05 -0.000285035)
(0.123882 1.65245e-05 -0.000433075)
(0.124248 4.01157e-06 -0.00028147)
(0.118387 -0.000126949 -0.00023009)
(0.11719 -0.000255135 0.000123111)
(0.121793 -0.000200032 4.80003e-05)
(0.121975 -7.08197e-06 0.000142713)
(0.118531 0.000379344 0.000286406)
(0.116185 0.000247304 0.000265157)
(0.116139 0.000133233 -7.07427e-05)
(0.106949 0.00010965 0.000256193)
(0.12409 0.000463082 -7.05739e-05)
(0.115941 -3.49179e-05 -9.39145e-05)
(0.116185 -0.00050405 -0.000240877)
(0.113715 -0.000273777 6.30471e-05)
(0.10627 -0.000319766 -5.90521e-05)
(0.124643 -0.000491904 0.000281859)
(0.12465 -0.000644023 0.000155001)
(0.124824 -0.000230596 0.000424287)
(0.124108 -0.000609182 0.000278005)
(0.122431 -0.000321427 0.000327948)
(0.122505 -0.000359957 0.000552524)
(0.124096 -0.000408351 0.000598097)
(0.11477 0.000548429 -0.000491093)
(0.116085 -0.00032408 -6.72564e-05)
(0.10727 5.29956e-05 -0.000133747)
(0.119684 -8.57527e-05 -9.45259e-05)
(0.117017 -0.000103546 -0.000386575)
(0.107383 0.000141799 -0.000492479)
(0.117964 -0.000251544 8.37959e-05)
(0.117984 -0.000538662 -0.000147716)
(0.119019 -0.000467353 -0.000135657)
(0.106631 -0.000357044 8.86347e-05)
(0.123835 -0.000223745 0.000168325)
(0.121674 -0.000207492 5.83312e-05)
(0.123238 -0.000330079 -0.000505614)
(0.124296 -0.000867801 -0.000443585)
(0.122941 -0.000790101 -0.000774631)
(0.124479 -0.000570556 -0.000891961)
(0.123634 -0.000583324 0.000625432)
(0.124074 -0.000754319 0.000235226)
(0.12342 -0.000333246 0.000322234)
(0.124822 -0.000663125 -0.000239716)
(0.123365 -0.000736964 -3.54368e-05)
(0.122725 -0.00043856 -0.000354473)
(0.124722 -0.000301294 -0.00050876)
(0.120523 2.09824e-05 -0.000355258)
(0.11865 0.000559495 -0.000517167)
(0.113143 -3.28118e-05 -0.000358909)
(0.122167 0.000370125 -0.000464576)
(0.122503 2.2771e-05 -0.000336463)
(0.119807 0.000232156 -0.000747705)
(0.118385 0.000124554 -0.000244833)
(0.120672 -0.000226902 0.000229504)
(0.120408 -1.82015e-05 4.72539e-05)
(0.12266 -5.18877e-06 -0.000270954)
(0.121512 -0.000223487 0.000126108)
(0.124008 -0.000137516 -0.000352243)
(0.122679 -0.000311674 -0.000561571)
(0.122919 2.65424e-05 -0.000468556)
(0.124689 0.00010742 -0.000867421)
(0.125139 -0.000136982 -0.000428016)
(0.118596 -0.000291747 -0.000595679)
(0.116177 1.24947e-05 -0.000286334)
(0.116966 -8.16511e-06 -0.00018851)
(0.105704 -7.1163e-07 -0.000360345)
(0.123154 0.000728203 0.000207239)
(0.122387 0.000595277 0.000289916)
(0.123974 0.000678062 0.000239605)
(0.12355 0.0004994 0.000158069)
(0.115412 -0.000471475 0.000136317)
(0.106851 -0.00017222 0.000420429)
(0.119468 -0.000206568 -0.000270992)
(0.119324 -0.000468895 -9.53755e-06)
(0.122676 -0.00026268 -0.00029766)
(0.122722 -0.00037622 -7.73288e-05)
(0.120044 0.000256573 0.000200929)
(0.120688 0.00012623 0.000159174)
(0.122687 -0.000103645 -4.49525e-05)
(0.118073 -9.00189e-05 -0.000724469)
(0.116672 -8.9227e-05 -0.000334693)
(0.118297 9.43697e-05 -0.000145875)
(0.106711 0.000350495 -0.00026025)
(0.123024 0.000124632 0.00046099)
(0.122543 -0.000226829 0.000116053)
(0.121381 -1.17695e-05 0.000424484)
(0.11684 1.39675e-05 0.00035496)
(0.122669 -0.000270713 0.000176239)
(0.121285 7.75706e-05 0.000475701)
(0.12265 -6.55742e-05 -4.44875e-06)
(0.11578 8.16415e-05 0.000265943)
(0.115929 2.98855e-05 -0.00015483)
(0.116106 0.000509121 -0.000164858)
(0.107643 0.000190746 -0.000136204)
(0.121594 -0.000507103 -0.00055305)
(0.121266 -4.52131e-05 -0.000384324)
(0.121518 -0.000166397 -0.000223704)
(0.123505 0.000365775 9.38155e-05)
(0.122098 0.0004356 0.000172476)
(0.124281 0.00013501 -0.000151792)
(0.122778 0.000236231 -0.00021129)
(0.121315 -0.00017833 -0.000398965)
(0.118455 -0.000263959 -0.000526345)
(0.118516 -0.00025255 -0.000283249)
(0.107612 -0.000333373 -0.000194595)
(0.122548 -0.000139495 -0.000150139)
(0.122644 8.28305e-07 5.87595e-05)
(0.115097 -1.43813e-05 -0.000262075)
(0.121018 0.00014663 5.17955e-05)
(0.121342 0.000417292 0.000201268)
(0.122921 0.000475051 0.000260561)
(0.121485 0.000439975 0.000360446)
(0.12463 -0.000159952 -0.000597414)
(0.124938 -0.000226592 -0.000491554)
(0.124827 -0.000359947 -0.000423449)
(0.124277 -0.000256542 -0.000353883)
(0.120665 0.000255336 -0.00106893)
(0.122994 0.000134307 -0.000915052)
(0.123663 -0.000316337 -0.000739062)
(0.121017 -0.00046721 4.07485e-05)
(0.122446 -0.000292336 3.53822e-05)
(0.120972 -0.000138967 0.000232011)
(0.11606 -5.48914e-05 -0.000234028)
(0.118397 -0.000951998 -0.000519679)
(0.11901 0.000288736 -0.000426144)
(0.106763 -6.29418e-05 -0.000481329)
(0.124513 0.000284314 6.39821e-05)
(0.124902 0.000221129 -0.000310033)
(0.124525 2.02292e-05 -9.35008e-05)
(0.125103 6.28047e-05 -0.000457966)
(0.123574 0.000308375 0.000117088)
(0.121413 0.000300383 0.000204192)
(0.122692 0.000110222 0.000228716)
(0.122695 0.00019049 -9.43702e-05)
(0.118539 0.000104375 -0.00116528)
(0.117956 0.000245473 -0.00053617)
(0.119659 0.000102293 -0.000852796)
(0.109979 -0.000628162 -0.000840907)
(0.121723 -0.000282396 -0.000664634)
(0.121811 -0.000317987 -0.000879852)
(0.123915 -0.000312588 -0.000486234)
(0.123559 -0.000274331 -0.000623144)
(0.123091 -0.000268832 -0.000206186)
(0.121377 -0.000384763 -0.000366807)
(0.121381 -1.32446e-06 -9.475e-05)
(0.116387 5.0269e-05 -0.000599938)
(0.12331 0.000679297 0.000305923)
(0.122767 0.000714003 5.6826e-05)
(0.121639 0.000473791 -0.00010661)
(0.116279 2.00502e-05 -0.000634068)
(0.115787 0.000177946 -0.000403835)
(0.117683 0.000363937 -0.000642227)
(0.106052 0.000412437 -0.000149804)
(0.123679 -0.000575619 -0.000116038)
(0.123319 -0.000596218 0.000147457)
(0.124863 -0.000495028 6.59584e-05)
(0.118997 0.00105414 -0.000618408)
(0.122466 6.56381e-06 -0.000438072)
(0.121901 0.000134669 -0.000453885)
(0.120953 -0.000301767 0.000511272)
(0.121433 -2.82791e-05 0.000257816)
(0.121896 1.64618e-05 0.000357241)
(0.11509 -0.000142845 0.000354403)
(0.118406 -0.000223503 -0.000136952)
(0.123571 -3.28177e-05 7.84658e-05)
(0.121345 0.000230566 8.42673e-05)
(0.123525 0.000431362 -9.19e-05)
(0.116602 0.000314747 -0.000344721)
(0.120648 -0.000169352 -0.000131539)
(0.120916 -7.04768e-05 -7.51681e-06)
(0.113448 -0.000144281 -0.000329187)
(0.11458 -8.77241e-05 0.000253625)
(0.114208 -0.000374367 9.73245e-05)
(0.106759 -0.000234892 0.000118289)
(0.124788 -7.02802e-05 0.000209092)
(0.122794 -0.000136925 -0.000114224)
(0.124704 -0.000336473 0.000177549)
(0.123836 -0.000556944 0.000219701)
(0.123615 -0.00048408 -0.000313084)
(0.123157 -2.94712e-05 -0.000174436)
(0.122967 -8.8434e-05 -0.000307223)
(0.115613 -0.000157943 1.41084e-05)
(0.120632 -0.000304833 -9.77659e-05)
(0.122755 -0.000326828 -0.000115187)
(0.123227 -0.000148803 -0.000176809)
(0.120616 6.3318e-06 0.000129592)
(0.124612 -0.000212439 -0.000150076)
(0.12255 -0.000158525 -0.000301417)
(0.122764 3.08871e-05 2.4685e-05)
(0.124588 -0.000286938 -5.73687e-05)
(0.124641 -1.06907e-05 0.000197313)
(0.124168 -0.000213905 2.5929e-05)
(0.124951 -0.000186318 -0.000163213)
(0.122891 -0.000166752 -0.000280031)
(0.122614 -0.000284645 -0.000490452)
(0.124527 -0.000115369 -0.000633176)
(0.116157 0.00137813 -0.000965005)
(0.119453 0.000141492 -0.0013753)
(0.118344 0.000560685 -0.000893068)
(0.104473 6.37284e-05 -0.000366586)
(0.123261 -0.000151149 -0.000264101)
(0.123279 -0.000251355 -0.000331079)
(0.124636 -0.000190181 -0.000565496)
(0.121774 -0.000294328 0.000193588)
(0.123494 -0.000229615 4.89454e-05)
(0.115544 -0.000108908 -0.000104138)
(0.118738 -0.000286239 1.17305e-05)
(0.118255 -2.55283e-05 3.90162e-05)
(0.121754 -0.000322973 0.0002644)
(0.121558 -0.000376967 -0.00010283)
(0.117675 -0.000395176 -0.00102708)
(0.118273 -0.000565538 -0.0001782)
(0.105899 -0.000390099 -0.000193721)
(0.119048 0.000538713 -0.000844506)
(0.120952 0.000299836 -0.00098208)
(0.114169 -0.000273303 -0.000499596)
(0.117637 -0.00060559 -8.83068e-05)
(0.121025 -0.000691889 -0.000176779)
(0.117197 -0.000461501 -0.000450026)
(0.120811 -0.000472018 -0.000244379)
(0.122095 0.00043308 0.00016936)
(0.121872 0.000771149 1.74107e-05)
(0.119982 0.00106514 0.000575293)
(0.116306 0.000545696 0.000409804)
(0.120244 0.000271104 -0.000275672)
(0.121162 -7.46084e-05 -0.000289586)
(0.123292 0.000222907 -0.000137162)
(0.123601 -0.000279068 -8.45613e-05)
(0.123165 -0.000234279 -2.02401e-05)
(0.115363 -0.00021759 -1.05226e-06)
(0.120757 8.26406e-05 0.00036192)
(0.120257 0.000380239 0.000301814)
(0.121829 7.131e-05 0.000292897)
(0.114907 5.68463e-05 -0.000138502)
(0.117309 -0.000968279 0.000143906)
(0.117789 -0.000427975 -3.34416e-05)
(0.116669 -0.0011444 -0.000381445)
(0.106262 -0.000792475 0.000177627)
(0.122595 0.000386644 0.000261144)
(0.122813 2.1807e-05 0.000226855)
(0.120817 0.000330032 -0.000212258)
(0.123004 -1.3188e-05 -0.000161578)
(0.122619 0.000143722 0.000254343)
(0.120936 -0.000102035 0.000459718)
(0.12073 0.000537576 0.000373783)
(0.119186 -0.000413468 -0.000424755)
(0.11449 -1.85865e-05 -0.000160927)
(0.116076 -3.9225e-05 -0.000226215)
(0.117974 -0.000368396 -0.00032312)
(0.117038 0.000140125 -0.000361854)
(0.106661 -4.53737e-05 8.43761e-05)
(0.118524 -5.48572e-05 -0.000291508)
(0.106159 -2.65644e-05 -0.000323026)
(0.122986 -0.000433112 -2.72839e-05)
(0.124942 -0.00021601 0.000272293)
(0.125038 -0.000306951 -0.000107558)
(0.10787 7.05648e-06 0.000238596)
(0.116928 -0.000697835 -0.000731897)
(0.11814 -0.000537629 -0.00030581)
(0.117637 -0.000937473 -0.00070192)
(0.105575 -0.000414949 -0.00100048)
(0.116738 0.000634759 -0.000212902)
(0.120374 0.000401048 -9.99589e-05)
(0.116041 -0.000452733 0.000718878)
(0.114817 -8.70486e-05 0.000340833)
(0.116784 0.000157615 0.00070763)
(0.106364 -0.000381406 0.00032499)
(0.123299 -0.00117451 0.000359632)
(0.120833 -0.00120712 0.000633648)
(0.12125 -0.00108859 0.00047819)
(0.123282 -0.00112247 0.000211404)
(0.119826 -0.000368393 -0.000663542)
(0.118643 -0.000319518 -0.000259183)
(0.117763 -0.000163627 -0.000264455)
(0.105981 0.0001337 -0.000294442)
(0.122373 0.00039876 -6.84779e-05)
(0.121307 0.000272437 -0.000120928)
(0.12192 -0.000388238 -8.43791e-05)
(0.116803 0.000178945 -0.000323164)
(0.118623 -0.000494297 -0.000472528)
(0.118556 -0.000502599 -0.000626659)
(0.121516 -0.00056039 -0.000603458)
(0.122503 7.23744e-05 -0.000700787)
(0.122296 0.00015237 -0.000712093)
(0.121166 8.5581e-05 -0.000691756)
(0.114769 0.000414235 -0.000809444)
(0.117672 -9.09689e-05 5.85154e-05)
(0.115845 -0.000446478 8.52699e-05)
(0.116854 -0.000601815 0.00044821)
(0.106153 -0.000451146 -5.03703e-05)
(0.122403 0.000589831 0.000358648)
(0.11831 0.000472007 -0.000280046)
(0.118111 -0.000265415 -4.67292e-05)
(0.122036 -0.000802131 -0.000108908)
(0.118253 -0.000543946 -1.47874e-05)
(0.121801 -0.000707283 0.000237415)
(0.122874 0.000144749 0.000236565)
(0.122245 8.93447e-05 3.49151e-05)
(0.12278 8.41637e-05 -1.05487e-05)
(0.122276 6.54904e-05 0.000194158)
(0.122442 -0.00030073 -6.64377e-05)
(0.115898 -0.000311614 6.09761e-05)
(0.121501 -0.000370545 -0.000301672)
(0.121977 -3.35991e-05 -0.000528118)
(0.123354 4.76508e-05 -0.000299062)
(0.121321 -0.000227345 -0.000144225)
(0.121841 -0.000317878 0.000285819)
(0.123628 -0.000154641 0.000136351)
(0.12437 -0.000330645 9.32455e-05)
(0.122409 -4.6471e-05 -0.000595251)
(0.12231 -8.57659e-05 -0.000496255)
(0.124648 -1.25817e-05 -0.000625209)
(0.121248 0.000251095 -0.000500195)
(0.123108 0.00018822 -0.000357838)
(0.123474 -0.000214802 -0.000707537)
(0.11964 -0.000804598 -0.000239728)
(0.124299 7.319e-05 -0.00064733)
(0.121988 -0.000490009 0.000277078)
(0.123704 7.95016e-05 0.000435374)
(0.123585 -9.39476e-05 0.000184761)
(0.123735 -0.000350982 0.000197801)
(0.121719 8.80291e-05 0.000176796)
(0.122539 -0.000169471 0.000307341)
(0.114745 -3.80931e-05 0.000107031)
(0.116784 -0.000109432 -0.000593184)
(0.116846 -0.000342394 -0.000271939)
(0.117493 -0.000725171 -0.000361843)
(0.120838 -0.000649726 -0.000415421)
(0.121376 -0.000515615 -0.000427574)
(0.121969 -0.000389093 0.000218383)
(0.121705 -0.000318637 4.36374e-07)
(0.124141 -0.000240269 -0.000273584)
(0.12411 -0.000224993 6.69444e-05)
(0.123248 3.44168e-05 -0.000205613)
(0.121689 -0.000208865 -0.000396753)
(0.121266 0.000224669 -0.000102364)
(0.123218 0.000378422 2.73365e-05)
(0.122912 0.000288715 -0.000435386)
(0.124406 -5.7628e-05 -0.000738192)
(0.123457 6.11692e-05 -0.000269436)
(0.124296 -0.000195091 -0.000655272)
(0.12302 -0.000507066 -6.19788e-05)
(0.121947 -0.000324821 -4.89338e-05)
(0.120663 -0.000994209 0.000185673)
(0.123463 -0.000727096 7.4554e-05)
(0.122929 -0.000164298 7.55763e-05)
(0.119287 -0.000177038 -0.000336145)
(0.123741 -0.000190573 1.47612e-05)
(0.119127 7.0596e-05 -0.000693048)
(0.123906 -5.0529e-05 -4.14937e-06)
(0.124686 -0.000207184 -0.000409211)
(0.12352 -3.78264e-05 -0.00024049)
(0.123 -3.7133e-05 0.000320362)
(0.115108 -1.1718e-05 -8.99286e-05)
(0.116223 -0.000240084 -0.000426759)
(0.10754 -0.000104568 -0.000264446)
(0.116808 -0.000627415 -0.000914153)
(0.106053 -0.000295686 -0.000237562)
(0.124623 0.000204009 0.000737682)
(0.122497 0.000219864 0.000220489)
(0.121152 -0.000553862 -0.000473167)
(0.115059 -0.00035174 -0.000359759)
(0.122607 -0.000211952 -0.000801793)
(0.122297 -0.000221095 -0.00060632)
(0.120991 -0.000359595 -0.000316403)
(0.114532 -0.000342224 -0.000417586)
(0.12425 0.000313733 0.000717438)
(0.124297 0.000118866 0.000753341)
(0.124424 0.000194842 0.000641746)
(0.123438 0.000354314 0.000706064)
(0.122415 0.000613963 0.000345097)
(0.122566 0.00032787 0.000245995)
(0.123921 0.000404774 0.000296632)
(0.115913 -0.000239384 -0.000410911)
(0.117778 -9.83806e-05 -0.000227516)
(0.105675 -0.000352991 -0.000425123)
(0.118709 0.000256798 -0.000340686)
(0.117403 -0.000108057 -0.000262504)
(0.116734 0.000308606 -0.000333632)
(0.106611 -5.55104e-05 -0.000704355)
(0.123985 -0.000130625 9.71193e-05)
(0.122416 -0.000275548 -0.000400419)
(0.124007 -0.000440832 -9.95555e-05)
(0.121086 3.89554e-06 -0.000198408)
(0.122843 -0.000125899 -0.000292618)
(0.117233 -0.000355936 -0.000509992)
(0.117938 -0.000219533 -0.0006253)
(0.106469 -0.00038937 -0.000387823)
(0.118742 -0.000353497 -0.000118674)
(0.116436 -8.99011e-05 1.94329e-05)
(0.115996 7.77185e-06 0.000268232)
(0.107562 -0.000111266 0.000150009)
(0.124572 -0.000684947 0.000235214)
(0.122699 -0.000434772 0.000502711)
(0.122527 -0.000466861 0.000120907)
(0.124429 -0.00043591 -2.01231e-05)
(0.118336 -0.000125968 -0.00131849)
(0.118083 -6.46129e-06 -0.000883701)
(0.121138 -0.00027397 -0.000866865)
(0.106762 -0.000311226 -0.00117522)
(0.120967 0.00018358 0.000175009)
(0.121397 -0.000428602 0.000220541)
(0.121595 -0.00016324 0.000199518)
(0.115384 -0.00035378 0.00024001)
(0.11876 -0.000709282 -0.000465756)
(0.122163 -0.000394181 -0.000661568)
(0.121974 -0.000136389 -0.000849681)
(0.122584 -0.000102918 -7.79291e-05)
(0.124327 -0.000157485 0.000120977)
(0.123364 8.87253e-05 0.000393715)
(0.119492 0.000171053 -0.00119022)
(0.11697 0.000404479 -0.00086942)
(0.118915 0.000821455 -0.000898693)
(0.105126 -0.000394196 -0.000903493)
(0.12561 -7.82755e-05 5.91278e-05)
(0.125305 -0.000255412 -2.66856e-05)
(0.123733 2.40333e-05 -7.13836e-05)
(0.125376 2.40526e-05 -1.60519e-05)
(0.123565 -0.00017486 -0.000458781)
(0.120771 -0.000191467 -0.000303336)
(0.12022 -7.07933e-05 -0.000706032)
(0.12326 -0.000294 -0.000194661)
(0.119515 -0.00102502 -0.000379637)
(0.119877 -0.000943426 -7.41645e-05)
(0.106539 -0.000299502 -0.000541999)
(0.118311 -0.000669032 0.000931537)
(0.117108 -0.000286768 0.000936452)
(0.118953 -0.000545412 0.000687346)
(0.105142 9.63115e-05 0.000181116)
(0.121707 -0.000331748 2.05855e-05)
(0.116581 -0.00029093 5.57791e-05)
(0.11897 -0.000297915 -0.000715791)
(0.125301 -0.000203516 -0.000209529)
(0.123645 -0.000184468 -0.000336673)
(0.116882 0.000268125 0.000236557)
(0.115973 0.000140277 0.000259667)
(0.117952 -0.000150856 -0.000173453)
(0.105422 -0.000162428 0.000170269)
(0.119321 -0.000179795 -0.000812728)
(0.119129 0.000395201 -0.000544167)
(0.106653 -0.000403162 -0.000920841)
(0.116361 -0.000202343 0.000305948)
(0.118931 -0.000111033 0.000292461)
(0.11669 -0.0005468 0.000109805)
(0.107135 -0.000317146 0.000102301)
(0.116384 -0.00101389 -0.000414213)
(0.119393 -0.000687905 0.000212784)
(0.117496 -0.00101536 -0.00024742)
(0.104887 -0.000534096 -0.000392967)
(0.119186 0.000541056 -0.000594825)
(0.120689 0.000293939 -7.68914e-05)
(0.12108 9.87894e-05 -0.0004121)
(0.114235 0.000344798 -0.000323886)
(0.117483 0.000307129 0.00019068)
(0.116647 0.00023619 0.000339336)
(0.107115 -7.20619e-06 0.000250227)
(0.124092 -0.000545934 8.80501e-06)
(0.123656 -0.000366322 0.000161106)
(0.124512 -0.000502377 -3.20681e-07)
(0.124107 -0.000463066 0.000196105)
(0.122476 -0.000339743 0.000238316)
(0.122673 -0.000255199 2.16503e-05)
(0.12466 -0.000333309 0.000304484)
(0.124931 -0.000341289 0.00026317)
(0.115281 0.000168823 -0.00112151)
(0.115383 0.000116617 -0.000468907)
(0.11748 0.000219849 -0.000797283)
(0.107984 -0.000248921 -0.000572717)
(0.118043 -0.000431782 0.000551463)
(0.118256 -0.00139178 -0.000150874)
(0.118596 -0.000718771 0.000205669)
(0.110347 -0.000568201 -2.22949e-05)
(0.120001 0.000976721 -0.000117543)
(0.121958 0.000619723 -0.000363332)
(0.121982 0.000574452 -0.000611241)
(0.116063 0.000243817 -0.000638071)
(0.118535 6.85096e-05 0.000147247)
(0.115948 -4.55092e-05 -2.9252e-05)
(0.115295 -0.000205207 -0.000196201)
(0.107042 0.000193885 -6.64048e-05)
(0.122782 -5.23366e-05 0.000476646)
(0.116187 4.87021e-05 -2.28943e-05)
(0.123041 -0.000507908 -0.000364648)
(0.124251 -0.000129049 -0.000369005)
(0.123274 -0.0001365 -0.000240366)
(0.123242 -0.000143652 -0.000303912)
(0.121254 0.000420746 0.000103018)
(0.12004 0.000329432 0.000226794)
(0.115835 0.000442051 0.000326002)
(0.123693 0.00021133 -7.29648e-05)
(0.122704 0.000271363 0.000368932)
(0.123404 0.000182522 0.00022954)
(0.12339 0.000359163 0.000319639)
(0.123185 -0.000148145 -7.40466e-05)
(0.123132 -0.000464114 -0.000157259)
(0.115442 -0.000276208 -0.000145335)
(0.121356 -0.000266122 -0.000176643)
(0.120051 -0.000391775 6.99726e-05)
(0.121315 -0.00041773 0.000171462)
(0.113487 -0.000165209 -0.000250549)
(0.121404 -2.16e-05 -7.88573e-07)
(0.12175 0.000246139 0.000108138)
(0.115014 0.000178743 0.000251416)
(0.117751 -0.00048322 0.000649435)
(0.121536 -0.000504121 0.000394652)
(0.121778 -0.00074576 0.000628442)
(0.119382 -2.56641e-05 0.000245315)
(0.120945 -0.000346694 -0.000113788)
(0.121156 -0.000325835 0.000100694)
(0.114885 -0.000168297 0.000211147)
(0.117958 0.000365388 -0.000165298)
(0.11527 0.000220169 -0.000517853)
(0.105916 0.000869263 -0.000516895)
(0.123017 -0.000241929 -4.406e-05)
(0.124422 -0.000252343 -0.000109816)
(0.125031 0.000321382 -0.000188495)
(0.121306 1.17672e-05 0.000396349)
(0.121949 -2.96741e-05 0.000580327)
(0.114557 -0.000348579 0.000757616)
(0.123334 0.000269196 6.4458e-05)
(0.124021 -8.78573e-05 8.35658e-05)
(0.123874 0.000224666 -9.78236e-05)
(0.124105 0.000235596 -8.15037e-05)
(0.118179 -7.3879e-05 -8.53285e-05)
(0.118938 -0.000145754 0.000191748)
(0.118317 -0.00036707 2.0951e-05)
(0.105792 0.000113331 0.000116965)
(0.116063 3.73027e-05 0.00041442)
(0.115887 -0.000197711 0.00041814)
(0.117313 -9.03719e-05 0.00063601)
(0.106114 -0.000252635 0.000370978)
(0.122895 -0.000310868 -0.000238024)
(0.12372 -0.000162768 0.00025139)
(0.124579 -0.0004241 2.12648e-05)
(0.124261 -8.79954e-05 0.000224587)
(0.1228 -0.000379934 -0.000364267)
(0.123992 4.93463e-05 -0.000484715)
(0.122362 0.000170518 -0.000369285)
(0.120105 -0.000245138 0.000711196)
(0.122266 -0.000300235 0.000141789)
(0.121876 -0.000176668 0.000259401)
(0.120636 -0.000239577 0.000767241)
(0.120498 -0.000104772 0.000184593)
(0.122274 -0.000398597 8.80337e-05)
(0.115407 -0.000120661 0.000312626)
(0.122679 -0.00036112 -0.000700686)
(0.122841 -8.10599e-05 -0.000606037)
(0.120622 -0.000156876 -0.000339931)
(0.114977 0.000135166 -0.000608442)
(0.122428 -0.000183881 -0.000815664)
(0.118775 -0.000259292 -0.000765968)
(0.122305 4.33775e-05 -0.000678755)
(0.118548 0.000355152 0.000297177)
(0.122173 0.000500229 0.000443817)
(0.119519 0.000229578 0.000646144)
(0.122583 0.000353085 0.000261174)
(0.123933 0.000263331 -0.000556291)
(0.121084 0.000409688 -0.000551974)
(0.121717 -3.1737e-05 -0.000796086)
(0.118695 -4.92899e-05 -5.26905e-05)
(0.106677 -0.000189833 -0.000347701)
(0.117957 -1.83231e-05 -8.01434e-05)
(0.121224 -0.000255527 -9.85951e-05)
(0.124535 0.000208273 0.000155271)
(0.124312 -0.000131448 0.000106864)
(0.123925 5.36415e-05 0.000355787)
(0.124381 -7.8181e-05 0.000446778)
(0.123165 -0.000512555 0.000157329)
(0.123277 -0.000610455 4.03138e-05)
(0.122988 -0.000452188 9.46231e-05)
(0.12322 -0.000512081 -9.12746e-05)
(0.123416 -0.000370594 0.000222791)
(0.123062 -0.000562763 0.000196314)
(0.121312 -0.000408186 0.000484813)
(0.119667 -0.00130918 -9.62672e-05)
(0.122205 -0.00135646 -0.000403004)
(0.121234 -0.00104737 -0.000640521)
(0.119678 -8.68783e-05 -0.000287708)
(0.119366 0.000311469 -0.000494034)
(0.115075 9.56425e-05 0.000280536)
(0.122947 6.97339e-05 -0.000441811)
(0.116087 -0.000205615 -0.000339784)
(0.119625 0.000571544 -0.00052454)
(0.119826 0.000634967 -0.000738678)
(0.121069 0.000186186 -0.000561382)
(0.114429 -9.35503e-05 -0.000505257)
(0.124125 0.000214808 -0.000397909)
(0.122521 0.000337792 -0.000435504)
(0.123125 0.000128578 -0.000624095)
(0.106742 6.52355e-05 -0.000180149)
(0.121055 0.000119209 -0.000270656)
(0.115734 -0.000124071 -0.000156066)
(0.118843 0.000166272 -6.06413e-05)
(0.121723 0.000145799 0.000275288)
(0.11847 0.000194663 -0.000148484)
(0.12201 0.000487173 3.82714e-05)
(0.122347 8.39637e-05 -0.000233223)
(0.121791 8.60432e-05 -0.000417243)
(0.12103 9.07088e-05 -5.95829e-05)
(0.116798 0.00032853 -0.000290441)
(0.124338 -0.000113416 -0.000414723)
(0.122699 -0.000202905 -0.000581415)
(0.123883 -0.000298848 -0.000556095)
(0.122509 -0.00048581 -0.000390156)
(0.122178 -0.000649686 -0.000442303)
(0.124225 -0.000507004 -0.000253465)
(0.123308 -0.000525891 -0.000118666)
(0.12383 0.00013423 -0.00041331)
(0.124097 -0.000122828 -0.00029212)
(0.117309 -0.000686461 -0.000428244)
(0.118384 -0.000899946 -0.000457263)
(0.105733 -2.10988e-05 -0.000400534)
(0.12078 -0.000805889 0.000309845)
(0.121542 -0.000301848 8.07105e-05)
(0.124284 -0.000377941 -0.000157707)
(0.121805 -0.00018471 -0.00027056)
(0.124467 -0.000403823 -0.00021703)
(0.123785 -7.82179e-05 0.000248018)
(0.123594 5.38655e-05 -7.73383e-05)
(0.122916 0.000277373 0.000271396)
(0.119358 -0.000298136 -0.000490478)
(0.123276 -0.00034355 -0.00060772)
(0.11375 0.000106366 0.000112561)
(0.115905 -0.000333617 0.00066091)
(0.115509 -0.000526559 0.000247303)
(0.104107 -0.000571274 0.000325041)
(0.122599 -0.000332648 -4.46275e-05)
(0.121596 -0.00043763 0.000351976)
(0.116359 -0.000287794 0.000957676)
(0.116073 -0.00112019 -0.000336688)
(0.107387 -0.000642275 -0.000190383)
(0.121008 0.000343629 -0.00012994)
(0.121286 0.000461604 0.000271114)
(0.103336 0.000146211 -0.000221651)
(0.121991 -0.000204727 0.000334112)
(0.124434 -0.000368888 0.00028303)
(0.116876 -0.000443218 0.000357332)
(0.119623 0.000316268 0.000348061)
(0.120425 -0.000429616 0.000103165)
(0.117571 0.000507019 -0.000234597)
(0.11772 0.000222131 -0.000259799)
(0.118184 0.0004442 -0.000594995)
(0.105667 2.48955e-05 -0.000101724)
(0.121934 -3.2827e-05 0.000109509)
(0.121266 1.41246e-05 8.19076e-05)
(0.120777 8.14064e-06 0.000178736)
(0.122991 0.000781545 -0.000320425)
(0.12387 0.000841008 -0.000283182)
(0.120967 0.00015212 -0.000221251)
(0.121832 0.000105027 -0.000385931)
(0.123963 -0.000733084 -0.000163898)
(0.123493 -2.67234e-05 0.000294258)
(0.118508 -0.000556818 -8.18804e-06)
(0.118285 -0.00030757 -9.26706e-05)
(0.104967 -0.000346216 0.000149347)
(0.117037 -0.000963681 0.000282917)
(0.11563 -0.000648872 0.000678009)
(0.106906 -0.0006238 0.000224723)
(0.123216 -0.00060672 0.000383356)
(0.121493 -9.72212e-05 0.000593577)
(0.122571 -0.00044869 0.000663777)
(0.121209 -0.000258034 0.000123988)
(0.123781 8.97879e-05 -0.000638359)
(0.124538 -3.33557e-05 -0.000602509)
(0.122366 0.000117474 -0.000417714)
(0.117722 0.000497004 0.000129965)
(0.11861 0.000101774 7.25859e-05)
(0.104781 0.000288931 -0.000502682)
(0.123847 -0.000608041 0.000125969)
(0.123763 -0.000624492 0.00038488)
(0.123648 -0.000399886 0.000284633)
(0.120479 -0.000115519 -0.000192671)
(0.118176 4.97453e-05 -0.000489714)
(0.107172 -8.42365e-05 -0.000366768)
(0.116141 -0.000272087 0.000248019)
(0.116134 -0.000549484 8.63843e-05)
(0.107546 -0.000335509 -4.18256e-05)
(0.120591 0.000245004 -0.000477151)
(0.120192 0.000217304 -0.000353235)
(0.121793 0.000321547 -0.000187402)
(0.115368 -0.000231059 -0.000384665)
(0.121347 -0.000379571 -0.000300115)
(0.123164 -0.000551746 9.12e-05)
(0.121093 -0.000299923 0.000493094)
(0.122659 -0.000404902 9.14455e-05)
(0.119267 -0.00120168 0.000212257)
(0.120961 -0.000910063 -1.34193e-05)
(0.121182 -0.000773103 -0.000115841)
(0.113712 -0.000894661 -0.000231967)
(0.116324 -0.000352689 0.00060185)
(0.120335 1.41568e-05 0.000571563)
(0.118984 0.00012312 0.000187633)