/*--------------------------------*- C++ -*----------------------------------*\
| =========                 |                                                 |
| \\      /  F ield         | OpenFOAM: The Open Source CFD Toolbox           |
|  \\    /   O peration     | Version:  2212                                  |
|   \\  /    A nd           | Website:  www.openfoam.com                      |
|    \\/     M anipulation  |                                                 |
\*---------------------------------------------------------------------------*/
FoamFile
{
    version     2.0;
    format      ascii;
    arch        "LSB;label=32;scalar=64";
    class       volScalarField;
    location    "0.03";
    object      epsilon;
}
// * * * * * * * * * * * * * * * * * * * * * * * * * * * * * * * * * * * * * //

dimensions      [0 2 -3 0 0 0 0];

internalField   nonuniform List<scalar> 
31639
(
0.946086
0.940197
0.947522
0.944988
0.956914
0.941604
0.968942
0.953648
0.949011
0.942634
0.948217
0.942967
0.938581
0.937751
0.933834
0.967571
0.950135
0.956168
0.949909
0.940235
0.984922
0.951199
0.942053
0.95584
0.961184
0.948738
0.937321
0.794562
0.960851
0.947145
0.941778
0.958464
0.941214
0.960195
0.983181
0.947087
0.980908
0.948422
0.94301
0.995078
0.972066
0.975767
0.936953
0.949027
0.952612
0.941675
0.940196
0.954257
0.946972
0.944336
0.941371
0.981389
0.95198
0.993001
0.951943
0.953479
0.982934
0.942231
0.938608
0.982388
0.950014
0.952893
0.972733
0.937151
0.948063
0.941257
0.94177
0.941365
0.978945
0.94298
0.943677
0.928752
0.938444
0.939301
0.951141
0.98682
0.940198
0.955636
0.93637
0.95199
0.958252
0.996852
0.941184
0.943552
0.931109
0.941325
0.94352
0.942503
0.967139
0.944631
0.940876
0.949396
0.975355
0.937561
0.954509
0.937435
0.949605
0.93904
0.941633
0.980966
0.94696
0.941691
0.931988
0.980785
0.974759
0.943527
0.980885
0.987591
0.964577
0.991765
0.926245
0.975512
0.943723
0.957935
0.936551
0.9856
0.967447
0.964306
0.952269
0.940532
0.949208
0.943317
0.937041
0.948203
0.954592
0.946483
0.942884
0.960862
0.961015
0.93711
0.937617
0.932378
0.932107
0.957683
0.946295
0.940472
0.977993
0.983361
0.941034
0.941459
0.940469
0.943897
0.943149
0.980708
0.993414
0.939431
0.94499
0.981681
0.974709
0.943664
0.977283
0.951029
0.952326
0.946406
0.979711
0.94276
0.94903
0.979466
0.965406
0.956964
0.940928
0.984472
0.97784
0.984138
0.986678
0.93783
0.984285
0.945138
0.941765
0.97303
0.927034
0.936962
0.980143
0.938525
0.940556
0.946353
0.941638
0.946188
0.940551
0.931947
0.936947
0.944318
0.925903
0.992287
0.954249
0.94458
0.926685
0.945339
0.987316
0.979044
0.954839
0.949039
0.941945
0.938749
0.938155
0.954748
0.962123
0.938174
0.976204
0.953395
0.943203
0.948887
0.925439
0.926808
0.958342
0.94205
0.936535
0.932189
0.945699
0.995212
0.940989
0.959276
0.945846
0.946188
0.953802
0.937567
0.976159
0.964623
0.951226
0.944151
0.937812
0.958398
0.981566
0.953248
0.982914
0.964036
0.946313
0.96518
0.980461
0.949566
0.945532
0.945593
0.96968
0.988401
0.941314
0.942572
0.969945
0.93607
0.980478
0.978941
0.936274
0.938531
0.934644
0.962622
0.983546
0.950132
0.932495
0.935373
0.966029
0.941167
0.927856
0.98874
0.967842
0.944429
0.948614
0.962507
0.977626
0.937688
0.936386
0.964945
0.944191
0.94039
0.954361
0.942873
0.938802
0.954355
0.97152
0.958309
0.927492
0.928526
0.928884
0.954932
0.957576
0.959292
0.945403
0.947416
0.976657
0.956704
0.970452
0.940993
0.954713
0.947425
0.947047
0.961929
0.973333
0.987224
0.975947
0.988319
0.935783
0.973169
0.955654
0.932249
0.954462
0.972838
0.949785
0.957764
0.987128
0.945407
0.966361
0.989074
0.943336
0.96598
0.939242
0.933474
0.981777
0.952925
0.933606
0.982272
0.988807
0.940105
0.943789
0.928596
0.982724
0.987294
0.939998
0.966195
0.955209
0.946011
0.947234
0.93742
0.941233
0.943308
0.976747
0.937341
0.99101
0.992631
0.945287
0.939867
0.938997
0.943019
0.947888
0.971793
0.928807
0.934208
0.945721
0.954973
0.948559
0.939068
0.927053
0.948159
0.939622
0.940156
0.934054
0.944222
0.934052
0.947246
0.94294
0.925153
0.981004
0.959434
0.946943
0.955182
0.953899
0.933066
0.937304
0.980064
0.935689
0.939944
0.984867
0.949092
0.975539
0.95543
0.939307
0.984004
0.941676
0.940584
0.97978
0.949083
0.978561
0.94626
0.95126
0.955243
0.990271
0.946838
0.973985
0.946738
0.940664
0.9466
0.952005
0.981418
0.932778
0.975343
0.936343
0.984083
0.939598
0.93588
0.94119
0.940356
0.954369
0.954634
0.942968
0.948806
0.938989
0.993122
0.945555
0.938529
0.932544
0.935422
0.948282
0.950009
0.948274
0.986915
0.958561
0.945149
0.938283
0.985557
0.945561
0.94119
0.942687
0.926778
0.934817
0.959125
0.935813
0.967453
0.946003
0.944092
0.986966
0.951311
0.945113
0.981201
0.975299
0.97839
0.967546
0.991772
0.943421
0.927442
0.966152
0.955781
0.978267
0.937585
0.941877
0.940183
0.940771
0.952823
0.94673
0.946227
0.96825
0.939681
0.937397
0.980137
0.939468
0.94915
0.940634
0.948411
0.945516
0.932787
0.947546
0.944674
0.943968
0.953575
0.975994
0.943348
0.988364
0.971344
0.937703
0.985098
0.999995
0.956526
0.937887
0.944974
0.983315
0.947044
0.968637
0.936135
0.950287
0.801161
0.935352
0.993079
0.934872
0.939388
0.949109
0.936905
0.955848
0.966509
0.948793
0.93405
0.937198
0.985961
0.986379
0.938778
0.983002
0.975955
0.944742
0.987687
0.953475
0.96811
0.952445
0.972723
0.9421
0.940308
0.940165
0.938478
0.984839
0.943344
0.945197
0.952682
0.950727
0.940757
0.937516
0.95602
0.962232
0.943205
0.941382
0.935976
0.953288
0.942992
0.939995
0.984131
0.997746
0.945799
0.955089
0.940741
0.940865
0.953971
0.963284
0.938568
0.946854
0.963176
0.943319
0.975246
0.939559
0.954572
0.948477
0.987921
0.971494
0.970619
0.934304
0.934189
0.9796
0.947161
0.962696
0.944101
0.946355
0.935103
0.954641
0.983001
0.941754
0.936051
0.970744
0.941943
0.948564
0.930994
0.938764
0.802461
0.97634
0.93675
0.940469
0.978643
0.977242
0.942526
0.937746
0.947458
0.980698
0.95922
0.942947
0.938933
0.971209
0.981703
0.944473
0.941403
0.982497
0.982022
0.945386
0.981402
0.93986
0.948707
0.981525
0.936015
0.960916
0.961473
0.998393
0.943803
0.967772
0.972927
0.939296
0.942484
0.940311
0.938933
0.981395
0.951383
0.948938
0.953534
0.994106
0.972979
0.965361
0.932326
0.940153
0.94976
0.936844
0.937916
0.967824
0.937087
0.951172
0.955459
0.971105
0.941014
0.950183
0.959012
0.981983
0.985825
0.941321
0.956651
0.944652
0.93829
0.970609
0.946562
0.940486
0.968387
0.946587
0.971019
0.93665
0.94057
0.991237
0.94251
0.943911
0.793799
0.978646
0.991536
0.962009
0.939757
0.94181
0.943272
0.93838
0.940586
0.941076
0.942304
0.983093
0.93929
0.991515
0.941647
0.956712
0.957634
0.944445
0.938201
0.969641
0.979716
0.995476
0.956151
0.939309
0.95727
0.94256
0.969364
0.936558
0.982852
0.935097
0.94591
0.944525
0.941122
0.932442
0.940724
0.964172
0.950889
0.949788
0.94878
0.979998
0.936483
0.971733
0.944991
0.963568
0.940837
0.976038
0.937956
0.979113
0.939946
0.962608
0.952309
0.943822
0.937001
0.969002
0.92701
0.973961
0.999579
0.99039
0.98976
0.972877
0.946348
0.993254
0.924403
0.950607
0.989548
0.94598
0.983139
0.948629
0.932152
0.949465
0.947435
0.93916
0.936854
0.948091
0.946837
0.932831
0.960327
0.953918
0.976886
0.815605
0.945194
0.939468
0.947167
0.944612
0.979958
0.944189
0.948964
0.940435
0.935729
0.937085
0.940255
0.942881
0.945147
0.946374
0.946602
0.946509
0.979477
0.942762
0.954931
0.948481
0.929313
0.934634
0.955649
0.95052
0.944356
0.945322
0.965906
0.992115
0.94121
0.949707
0.961897
0.98836
0.935859
0.974926
0.928917
0.957711
0.934435
0.957152
0.945069
0.956017
0.983616
0.940122
0.96985
0.956187
0.974833
0.935873
0.937227
0.935817
0.942554
0.930745
0.949553
0.964798
0.942337
0.983186
0.934658
0.948656
0.931225
0.982226
0.934991
0.93659
0.938263
0.967061
0.943279
0.937299
0.941319
0.977964
0.983755
0.932913
0.97445
0.955394
0.949766
0.944628
0.933607
0.979145
0.931019
0.938935
0.968646
0.971353
0.929075
0.97465
0.967087
0.981633
0.949805
0.968367
0.95755
0.944582
0.977799
0.935428
0.936712
0.940981
0.948682
0.93897
0.984256
0.935177
0.953847
0.959465
0.943161
0.942257
0.949764
0.947167
0.936498
0.954432
0.948392
0.953722
0.936758
0.956566
0.941715
0.934888
0.976652
0.92591
0.95177
0.937441
0.957595
0.947676
0.944708
0.946737
0.928172
0.953926
0.943526
0.950205
0.954355
0.976163
0.943074
0.942018
0.989748
0.95452
0.939823
0.955924
0.938984
0.940637
0.936772
0.936012
0.941199
0.94479
0.942225
0.950288
0.941926
0.959353
0.980004
0.94178
0.993552
0.941219
0.955085
0.939882
0.945411
0.947701
0.98596
0.946572
0.978674
0.94174
0.970258
0.936969
0.938015
0.940136
0.978835
0.941387
0.945542
0.960749
0.949784
0.954448
0.989037
0.94751
0.946199
0.941887
0.93587
0.939446
0.936383
0.970161
0.941059
0.966878
0.955696
0.944887
0.969072
0.975529
0.956994
0.941447
0.959708
0.948575
0.956546
0.956762
0.934289
0.962292
0.942527
0.956015
0.992288
0.950998
0.934287
0.953253
0.965335
0.933741
0.940615
0.979346
0.980481
0.946971
0.946639
0.927907
0.962931
0.935367
0.944413
0.979613
0.947359
0.935702
0.938581
0.949872
0.933923
0.949544
0.932635
0.92911
0.949363
0.971268
0.943365
0.940062
0.964479
0.938171
0.985481
0.937131
0.945409
0.979887
0.943176
0.955
0.936956
0.953514
0.948962
0.989966
0.989404
0.951668
0.973075
0.933752
0.940455
0.938731
0.94367
0.96748
0.940657
0.953041
0.958714
0.960877
0.934054
0.941698
0.949889
0.988219
0.946389
0.945679
0.9367
0.944717
0.994635
0.970725
0.942037
0.939483
0.96123
0.937743
0.96489
0.940627
0.954067
0.946425
0.933409
0.958521
0.978512
0.940105
0.964941
0.978717
0.962661
0.93722
0.960392
0.949802
0.950348
0.961575
0.985659
0.941205
0.974924
0.948739
0.960564
0.977068
0.957607
0.981918
0.942584
0.95272
0.943831
0.996391
0.974979
0.933133
0.946318
0.954417
0.938298
0.950218
0.93343
0.983706
0.982993
0.95336
0.94616
0.94406
0.948686
0.938027
0.959175
0.939784
0.949055
0.955956
0.936236
0.995629
0.951731
0.93942
0.93997
0.951464
0.954251
0.962386
0.93927
0.943293
0.984463
0.946454
0.972278
0.945274
0.954162
0.935478
0.986994
0.9364
0.951745
0.950129
0.940099
0.989184
0.936255
0.947628
0.936198
0.976829
0.95163
0.944913
0.928266
0.950855
0.946567
0.941391
0.939998
0.96651
0.956928
0.988708
0.990716
0.986717
0.97307
0.944483
0.985488
0.945958
0.941659
0.962281
0.943351
0.940333
0.942011
0.942259
0.94611
0.966759
0.945541
0.964624
0.971015
0.936688
0.936855
0.939871
0.935957
0.95998
0.955137
0.950825
0.938791
0.950966
0.945926
0.960333
0.950442
0.956549
0.949926
0.935627
0.941392
0.940737
0.940435
0.939066
0.951387
0.942758
0.945769
0.986245
0.997505
0.937504
0.972885
0.963745
0.960549
0.979243
0.949144
0.945669
0.982891
0.959048
0.938362
0.9451
0.943208
0.934719
0.988537
0.941454
0.964409
0.955864
0.943624
0.947266
0.991697
0.970743
0.971479
0.953643
0.949016
0.94725
0.952013
0.952986
0.938613
0.952913
0.960191
0.957438
1.00315
0.96226
0.946856
0.95663
0.962221
0.947791
0.979762
0.947705
0.960314
0.955918
0.949772
0.937685
0.985512
0.945728
0.981732
0.935758
0.945008
0.960516
0.956095
0.951944
0.950654
0.963197
0.9461
0.961548
0.965987
0.948352
0.996672
0.93178
0.944239
0.950165
0.934605
0.948387
0.975425
0.968205
0.948295
0.983132
0.937785
0.956155
0.945824
0.938213
0.944528
0.980321
0.989375
0.979307
0.950142
0.99511
0.93526
0.942201
0.974862
0.954949
0.942793
0.94817
0.965788
0.965188
0.93982
0.942885
0.951911
0.952431
0.968548
0.941337
0.957214
0.95278
0.964015
0.944143
0.95821
0.946254
0.955739
0.994074
0.988591
0.948939
0.954355
0.956776
1.00282
0.943724
0.948341
0.939703
0.98812
0.959284
0.942169
0.953393
0.96822
0.987022
0.950919
0.976626
0.960007
0.954634
0.942818
0.945361
0.941898
0.991915
0.987753
0.938733
0.963477
0.961623
0.959448
0.994887
0.933614
0.938439
0.969527
0.936417
0.942708
0.950952
0.942856
0.950789
0.946619
0.94212
0.985682
0.951444
0.943518
0.992521
0.947215
0.943309
0.967376
0.937272
0.887885
0.93866
0.93778
0.943539
0.994025
0.939745
0.945772
0.988967
0.951249
0.936087
0.968798
0.946873
0.981856
0.979967
0.942739
0.956002
0.941015
0.948044
0.938685
0.929937
0.937002
0.935524
0.934347
0.954536
0.977322
0.938902
0.953718
0.946287
0.961052
0.97079
0.971349
0.950978
0.98979
0.949474
0.950462
0.946969
0.996016
0.943333
1.00001
0.944239
0.995617
0.951588
0.954257
0.95678
0.942378
0.978638
0.977387
0.945589
0.954119
0.962076
0.945068
0.968941
0.932736
0.953692
0.941293
0.976478
0.975879
0.937384
0.938377
0.955803
0.956782
0.968275
0.951043
0.942029
0.936767
0.942641
0.94592
0.940245
0.944155
0.943373
0.982146
0.937022
0.950294
0.937766
0.946053
0.952055
0.995162
0.957934
0.945503
0.954535
0.94671
0.95293
0.940269
0.935196
0.939945
0.944387
0.936149
0.941997
0.96015
0.961077
0.929523
0.940998
0.947653
0.985166
0.947073
0.97606
0.943279
0.976587
0.979677
0.932061
0.977338
0.975827
0.948912
0.940443
0.94201
0.957564
0.937172
0.954863
0.991623
0.995261
0.975104
0.961382
0.944133
0.952424
0.951628
0.993265
0.956715
0.944579
0.942741
0.981649
0.982292
0.948512
0.954288
0.960877
0.956814
0.985611
0.967047
0.973198
0.946835
0.937043
0.980455
0.950683
0.949065
0.974701
0.988792
0.941348
0.959337
0.96085
0.936615
0.955451
0.93545
0.95359
0.93313
0.967343
0.948981
0.962012
0.939499
0.959399
0.948045
0.945515
0.932765
0.972267
0.932788
0.932127
0.943786
0.937442
0.944714
0.974851
0.839475
0.945004
0.967487
0.946247
0.952339
0.933109
0.983317
0.940579
0.94931
0.991627
0.957141
0.943444
0.983662
0.97188
0.942144
0.938249
0.942887
0.960645
0.982043
0.93796
0.953881
0.947885
0.948719
0.938795
0.982604
0.946003
0.941731
0.982043
0.976624
0.994084
0.961493
0.935169
0.96276
0.946669
0.942051
0.947448
0.948889
0.982252
0.986204
0.955953
0.954503
0.987794
0.953628
0.960957
0.991474
0.944513
0.959235
0.985614
0.947909
0.93436
0.99384
0.995621
0.941097
0.952178
0.971008
0.950335
0.971595
0.976894
0.981772
0.950248
0.977328
0.989156
0.944441
0.929994
0.943116
0.960908
0.945318
0.944818
0.947528
0.775548
0.954971
0.973615
0.934955
0.955139
0.933323
0.956224
0.937333
0.967858
0.938724
0.939302
0.945772
0.987865
0.970624
0.986007
0.957831
0.977804
0.952594
0.96448
0.955024
0.938392
0.950978
0.961933
0.944935
0.951807
0.941775
0.937775
0.983799
0.942776
0.943083
0.942577
0.936045
0.948505
0.968253
0.956817
0.939352
0.97931
0.962732
0.942804
0.936437
0.93356
0.953267
0.9533
0.985816
0.970567
0.93756
0.948436
0.950659
0.934881
0.963728
0.957067
0.971543
0.983998
0.982734
0.991975
0.936027
0.940948
0.942008
0.933801
0.958059
0.955437
1.00677
0.940339
0.953038
0.949974
0.927669
0.943434
0.942498
0.948034
0.948909
0.817219
0.965691
0.95088
0.947377
0.941153
0.95596
0.951134
0.945627
0.941305
0.96386
0.936906
0.95923
0.936112
0.938003
0.985036
0.939844
0.946701
0.956148
0.937792
0.968692
0.984334
0.937921
0.946988
0.97204
0.935447
0.936789
0.936343
0.93219
0.954329
0.94765
0.949336
0.949168
1.00147
1.00449
0.942309
0.968297
0.97334
0.940985
0.977746
0.952505
0.942313
0.960507
0.958522
0.935267
0.966685
0.952103
0.946031
0.957465
0.940792
0.960089
0.984568
0.946511
0.996549
1.00601
0.834271
0.963689
0.986258
0.948615
0.94438
0.976711
0.957941
0.989698
0.984174
0.936075
0.947981
0.980372
0.991535
0.937207
0.981055
0.939215
0.952012
0.962156
0.934729
0.983541
0.980535
0.943843
0.952283
0.988066
0.981034
0.960857
0.962405
0.946495
0.936865
0.995673
0.949834
0.982096
0.999034
0.96825
0.962229
0.966814
0.958988
0.966784
0.939295
0.984007
0.980288
0.939441
0.940408
0.942083
0.998427
0.993038
0.956261
0.939063
0.934009
0.942454
0.952651
0.930816
0.934639
0.971203
0.94298
0.960934
0.972773
0.992516
0.934829
0.937175
0.945706
0.936908
0.94384
0.981248
0.957886
0.983748
1.00684
0.964595
0.987865
0.968176
0.940853
0.89394
0.975503
0.942748
0.939986
0.944684
0.947941
1.01331
0.943698
0.967113
0.952319
0.986102
0.947034
0.986221
0.94542
0.964763
0.967739
0.957824
0.989427
0.964107
0.935164
0.941188
0.947984
0.946001
0.951387
0.983648
0.948279
0.829952
0.942117
0.947254
0.944923
0.958768
0.922947
0.951889
0.956065
0.954866
0.953795
0.94253
0.948585
0.951478
0.973983
0.952183
0.956061
0.937869
0.944648
0.942595
0.957658
0.957419
0.93315
0.951849
0.928903
0.935453
0.948271
0.954514
0.872421
0.931873
0.960718
0.948681
0.94538
0.935646
0.979377
0.964376
0.944032
0.933949
0.941976
0.939027
0.943332
0.940658
0.942721
0.974696
0.976537
0.939759
0.94467
0.947274
0.94319
0.972663
0.939105
0.994289
0.940123
0.952137
0.933322
0.950865
0.944135
0.931955
0.938928
0.974907
0.944545
0.944017
0.956885
0.967923
0.952978
0.937057
0.942215
0.939577
0.940544
0.950955
0.975831
0.940686
0.966032
0.947775
0.956482
0.95625
0.981207
0.982349
0.956181
0.94589
0.946268
0.963655
0.960561
0.979153
0.952589
0.945289
0.987629
0.969544
0.965194
0.947031
0.951236
0.953498
0.909215
0.954295
0.852795
0.969572
0.939209
0.942193
0.947628
0.923514
0.949708
0.992862
0.965525
0.953286
0.970473
0.967762
0.944631
0.951779
0.945464
0.927519
0.98509
0.92946
0.944494
0.955255
0.942852
0.933778
0.94792
0.918095
0.946455
0.96275
0.968608
0.942009
0.993802
0.99328
0.961776
0.94835
0.963901
0.958357
0.946961
0.95798
0.991847
0.955376
0.952407
0.955076
0.987307
0.970087
0.960807
0.926616
0.93928
0.958942
0.943355
0.952924
0.945966
0.974784
0.941026
0.98294
0.935671
0.930175
0.935766
0.93515
0.941289
0.935366
0.97479
0.936874
0.940842
0.971762
0.940788
0.938936
0.959965
0.94868
0.956887
0.941424
0.951486
0.936958
0.943394
0.94702
0.943222
0.935528
0.987545
0.928071
0.984338
0.962731
0.949518
0.944896
0.940093
0.947476
0.918588
0.943196
0.978699
0.953351
0.946051
0.946893
0.938723
0.984919
0.984572
0.938862
0.999968
0.93595
0.943829
0.990368
0.943913
0.955054
0.960132
0.97382
0.966337
0.983542
0.956676
0.986529
0.94906
0.925508
0.997406
0.953242
0.946427
0.942658
0.935642
0.961639
0.939243
0.951643
0.970323
0.951946
0.943953
0.960014
0.969631
0.931521
0.949332
0.944575
0.964989
0.931384
0.950412
0.958597
0.970472
0.95418
0.929223
0.933778
0.948256
0.97543
0.94023
0.942253
0.94179
0.955101
1.00893
0.933087
0.963999
0.929672
0.937868
0.947602
0.966839
0.945343
0.945403
0.942261
0.929738
0.952657
0.97817
0.969938
0.944702
0.943049
0.891829
0.960058
0.945065
0.973691
0.941392
0.988057
0.941475
0.946411
0.942749
0.978194
0.944346
0.977527
0.948469
0.956656
0.961971
0.959892
0.972534
0.958314
0.947494
0.975325
0.960541
0.930142
0.994601
0.954441
0.947701
0.993353
0.959712
0.929777
0.957194
0.946727
0.951998
0.949162
0.927866
0.955658
0.984294
0.983895
0.802262
0.943628
0.928775
0.936511
0.941685
0.969291
0.969249
0.933554
0.952475
0.976865
0.941374
0.932643
0.966641
0.929205
0.929087
0.937046
0.980901
0.952191
0.949772
0.992193
0.925646
0.930783
0.942981
0.934011
0.944801
0.945726
0.981304
0.950834
0.969328
0.936272
0.936047
0.910054
0.929288
0.942974
0.962744
0.938243
0.940695
0.928557
0.973925
0.952604
0.945245
0.928424
0.94953
0.947237
0.960529
0.953383
0.984934
0.945241
0.973733
0.954908
0.94552
0.948959
0.961234
0.950057
0.952499
0.951836
0.950519
0.941341
0.913728
0.939801
0.986248
0.941789
0.935783
0.971426
0.938903
0.926788
0.929966
0.948962
0.98755
0.942093
0.938646
0.944424
0.948998
0.948702
0.987799
0.983386
0.942429
0.979682
0.938044
0.947432
0.972501
0.955245
0.940312
0.958187
0.968725
0.963444
0.961932
0.941435
0.935699
0.959873
0.946017
0.929444
0.949265
0.983452
0.936723
0.949507
0.929773
0.977961
0.966827
0.946639
0.788048
0.961089
0.935294
0.942368
0.945753
0.91406
0.942602
0.950756
0.967602
0.940732
0.963536
0.946915
0.940242
0.935086
0.932943
0.930422
0.935782
0.932723
0.966975
0.980727
0.944854
0.828178
0.953036
0.939937
0.929132
0.931075
0.944732
0.932519
0.957121
0.930498
0.980498
0.941515
0.957824
0.939094
0.926268
0.928011
0.953522
0.946767
0.952791
0.941248
0.959065
0.95421
0.959231
0.964251
0.970389
0.972586
0.980086
0.959385
0.951007
0.982632
0.945421
0.930951
0.93612
0.923966
0.945958
0.933042
0.93621
0.913245
0.946123
0.937256
0.933513
0.946167
0.995674
0.931109
0.9597
0.934989
0.947597
0.940343
0.944016
0.948946
0.990754
0.961246
0.981961
0.941155
0.9468
0.976308
0.961156
0.945195
0.959714
0.95114
0.960014
0.976481
0.939931
0.972078
0.967035
0.828737
0.844808
0.923645
0.968979
0.949035
0.94146
0.973847
0.941869
0.938113
0.922629
0.937327
0.976441
0.942417
0.797354
0.938501
0.958581
0.970786
0.933228
0.980933
0.964982
0.95877
0.941292
0.928605
0.928624
0.956923
0.938468
0.888915
0.948593
0.942585
0.940804
0.948905
0.971297
0.927583
0.934766
0.941275
0.821788
0.976654
0.926058
0.97843
0.972463
0.935682
0.942765
0.960908
0.960392
0.955708
0.936421
0.959653
0.810815
0.989866
0.943913
0.986004
0.951225
0.966804
0.950737
0.942417
0.945233
0.969315
0.961229
0.94828
0.948227
0.954295
0.941187
0.943471
0.945247
0.935748
0.966857
0.944134
0.964156
0.92235
0.930163
0.928556
0.943918
0.934673
0.950455
0.944786
0.978434
0.931535
0.931351
0.991731
0.939163
0.939592
0.954271
0.980512
0.945725
0.956382
0.970593
0.804383
0.963848
0.938334
1.00747
0.946511
1.00234
0.97664
0.948417
0.945448
0.984909
0.94856
0.940047
0.840179
0.987701
0.940225
0.942993
1.00755
0.941562
1.00257
1.00957
0.950735
0.94418
0.960975
0.935408
0.94673
0.931624
0.95631
0.915503
0.966544
0.946087
0.942439
0.928352
0.969458
0.898328
0.958416
0.962641
0.937335
0.927408
0.951125
0.950089
0.943488
0.935094
0.94052
0.948365
0.946028
0.936615
0.938262
0.925546
0.931436
0.947936
0.94757
0.900924
0.890981
0.932515
0.948445
0.961515
0.917545
0.925658
0.96185
0.946155
0.897188
0.971741
0.960225
0.9343
0.889803
0.940938
0.944938
0.943469
0.976014
0.948285
0.974109
0.964625
0.953158
0.987615
0.93493
0.938937
0.936584
0.940739
0.976546
0.953654
0.936422
0.94685
0.948698
0.785331
0.939935
0.95312
0.949333
0.924668
0.932405
0.798635
0.939991
0.937032
0.961061
0.990057
0.96674
0.931751
0.930825
0.96323
0.977985
0.940302
0.945372
0.936362
0.977581
0.992123
0.962854
0.963983
0.939871
0.940176
0.950735
0.947088
0.940404
0.845125
0.943761
0.942502
0.946684
0.956947
0.941426
0.911557
0.972586
0.953259
0.942003
0.875125
0.867152
0.942388
0.950384
0.933424
0.99172
0.928794
0.924191
0.933116
0.928892
0.921809
0.938328
0.947627
0.941484
0.93369
0.944865
0.930477
0.941283
0.941914
0.947923
0.928636
0.927162
0.971062
0.961913
0.984781
0.957247
0.917415
0.943645
0.975172
0.952065
0.959851
0.972839
0.950753
0.937267
0.927806
0.924374
0.938944
0.945319
0.930708
0.979635
0.941182
0.969899
0.948472
0.9234
0.942679
0.931229
0.933656
0.924714
0.957697
0.968746
0.960432
0.969164
0.952084
0.815234
0.941884
0.948635
0.930814
0.942784
0.96103
0.959322
0.820326
0.944604
0.937092
0.857677
0.969658
0.974244
0.93497
0.932773
0.972233
0.792868
0.931078
0.980954
0.939026
0.949644
0.941279
0.986466
0.940105
0.969135
0.964114
0.970452
0.930828
0.938336
0.948383
0.947783
0.94748
0.946196
0.988617
0.989681
0.953741
0.945217
0.954155
0.933646
0.976696
0.928369
0.968027
0.871444
0.942637
0.957686
0.975849
0.964644
0.934688
0.974776
0.964997
0.922331
0.919428
0.940662
0.955161
0.960433
0.979492
0.934262
0.952482
0.897376
0.933528
0.944713
0.938259
0.927729
0.897104
0.889285
0.936073
0.96568
0.941196
0.937218
0.930961
0.955388
0.867613
0.885625
0.92385
0.870208
0.926987
0.926044
0.960096
0.923464
0.93972
0.879401
0.843636
0.979304
0.942452
0.836917
0.96959
0.956318
0.918043
0.944998
0.87976
0.977466
0.981866
0.945078
0.815221
0.95105
0.991158
0.937315
0.942273
0.976478
0.945414
0.854723
0.986912
0.95168
0.940753
0.946279
0.939499
0.936339
0.929003
0.92725
0.932463
0.93101
0.936782
0.920136
0.907861
0.934168
0.917843
0.927796
0.948259
0.959316
0.916024
0.923066
0.944581
0.94801
0.953851
0.951204
0.978147
0.931679
0.958946
0.941478
0.945052
0.92001
0.941243
0.97663
0.953859
0.963738
0.971316
0.89619
0.968843
0.887257
0.938494
0.951821
0.939221
0.917518
0.978494
0.931075
0.909586
0.970099
0.93542
0.926295
0.812727
0.879712
0.950305
0.960119
0.92165
0.893803
0.906871
0.978456
0.919569
0.905603
0.939645
0.971781
0.962479
0.895723
0.939556
0.893628
0.944807
0.93264
0.946475
0.952517
0.916669
0.899428
0.949816
0.973941
0.941081
0.958641
0.989615
0.8623
0.938726
0.966842
0.956956
0.981716
0.941435
0.923699
0.933164
0.799024
0.943288
0.952351
0.935535
0.929681
0.927563
0.934904
0.934451
0.957988
0.946355
0.943227
0.940884
0.955605
0.953684
0.963697
0.859635
0.962896
0.868127
0.925644
0.944972
0.906246
0.946141
0.966208
0.953084
0.946327
0.924783
0.887973
0.904378
0.805982
0.938839
0.92942
0.95923
0.947568
0.985641
0.928317
0.95313
0.897975
0.906039
0.914175
0.884863
0.942411
0.935981
0.925456
0.932736
0.920957
0.983836
0.962872
0.983954
0.866797
0.934145
0.801824
0.792476
0.953192
0.872026
0.982511
0.940126
0.985275
0.975652
0.910058
0.97341
0.961529
0.909237
0.856999
0.933063
0.983264
0.930439
0.943805
0.905797
0.939816
0.926898
0.907975
0.897471
0.97506
0.952029
0.93491
0.952708
0.938488
0.95574
0.927058
0.941201
0.94055
0.957528
0.931273
0.794007
0.790124
0.882079
0.941237
0.913907
0.93868
0.842243
0.991204
0.93977
0.955407
0.906656
0.990143
0.918919
0.910959
0.967605
0.998478
0.896051
0.954024
0.815071
0.896721
0.837632
0.935449
0.979262
0.963917
0.927189
0.960917
0.864011
0.960695
0.824496
0.934339
0.929345
0.946104
0.870562
0.990984
0.887636
0.939052
0.881427
0.8891
0.951695
0.914384
0.997669
0.913984
0.943275
0.913009
0.931075
0.942967
0.901313
0.957765
0.975891
0.921518
0.983896
0.822614
0.97778
0.961166
0.913364
0.923099
0.941425
0.941498
0.887821
0.972261
0.936409
0.867805
0.931171
0.972985
0.842422
0.947066
0.828862
0.934831
0.956429
0.943535
0.881103
0.946139
0.944871
0.972537
0.939959
0.944726
0.96947
0.80915
0.916794
0.918854
0.965003
0.958563
0.862054
0.945078
0.892199
0.890679
0.822559
0.787675
0.802228
0.960364
0.909494
0.956567
0.925869
0.949066
0.942172
0.946515
0.905115
0.807255
0.914047
0.941522
0.930581
0.937382
0.848056
0.990619
0.925453
0.938657
0.951346
0.906657
0.905997
0.941729
0.934192
0.909038
0.941717
0.907085
0.905087
0.907889
0.971424
0.865405
0.887538
0.877783
0.929538
0.885496
0.879179
0.897846
0.962129
0.873635
0.986763
0.965594
0.955822
0.830587
0.941667
0.929166
0.871031
0.924409
0.943968
0.949954
0.799514
0.936795
0.875999
0.939793
0.967562
0.945011
0.879617
0.95781
0.939145
0.929473
0.880662
0.875001
0.945725
0.93956
0.830002
0.825467
0.935167
0.834855
0.845069
0.906853
0.85409
0.945202
0.850508
0.873957
0.889391
0.914563
0.899164
0.875714
0.823476
0.931047
0.873259
0.966559
0.949852
0.945191
0.932329
0.903494
0.828834
0.892289
0.809716
0.816829
0.943372
0.948346
0.904749
0.955095
0.930622
0.936569
0.931687
0.823396
0.895432
0.978485
0.92551
0.963433
0.858164
0.95601
0.939506
0.970275
0.970552
0.922316
0.880378
0.889218
0.900452
0.936333
0.956454
0.947388
0.887441
0.858821
0.990774
0.875783
0.809907
0.847436
0.924796
0.890834
0.913771
0.878804
0.91068
0.916801
0.814211
0.967663
0.955904
0.861725
0.947035
0.889216
0.897286
0.945443
0.885345
0.981542
0.906555
0.887476
0.947212
0.85036
0.863622
0.94957
0.921242
0.838883
0.941276
0.931094
0.917583
0.931944
0.889127
0.923373
0.861047
0.904321
0.93219
0.906514
0.900283
0.929776
0.911657
0.841788
0.850847
0.819036
0.938074
0.942457
0.830962
0.940131
0.957123
0.865872
0.874164
0.967716
0.832047
0.8941
0.858389
0.868302
0.94841
0.906036
0.971551
0.946548
0.905674
0.88694
0.910211
0.896674
0.827232
0.847934
0.88922
0.828277
0.981416
0.88709
0.917705
0.859912
0.913395
0.961317
0.877306
0.834933
0.890356
0.852364
0.926735
0.93934
0.892103
0.812437
0.869131
0.850416
0.953129
0.958573
0.95832
0.953746
0.920085
0.943058
0.939734
0.974389
0.930209
0.951263
0.871149
0.940036
0.91545
0.893547
0.790726
0.975602
0.893773
0.938161
0.866532
0.938716
0.786577
0.813282
0.826337
0.932703
0.86075
0.860465
0.918925
0.883807
0.957262
0.860924
0.932243
0.966303
0.948441
0.948691
0.782853
0.88856
0.958527
0.856709
0.883378
0.865099
0.819203
0.891563
0.879723
0.872345
0.882755
0.882201
0.843123
0.850244
0.937362
0.927247
0.944505
0.913519
0.861
0.873453
0.864328
0.920214
0.898782
0.944369
0.841291
0.85948
0.828758
0.927959
0.848306
0.841451
0.955763
0.942167
0.87647
0.91703
0.791753
0.826792
0.890459
0.815301
0.904777
0.928027
0.941247
0.918447
0.953807
0.929301
0.898838
0.892635
0.856052
0.8438
0.842221
0.973705
0.865687
0.925388
0.893213
0.866246
0.888999
0.958233
0.955217
0.974039
0.959313
0.784872
0.84398
0.987999
0.919572
0.873541
0.954207
0.968434
0.969772
0.897659
0.869351
0.903316
0.811845
0.795352
0.907857
0.807681
0.892636
0.866134
0.833778
0.844742
0.880172
0.884329
0.95094
0.813499
0.810067
0.87183
0.843272
0.881949
0.832258
0.868003
0.856633
0.90186
0.84306
0.919023
0.938482
0.923695
0.901433
0.862198
0.899432
0.895111
0.910696
0.827526
0.879305
0.912021
0.930865
0.878818
0.944719
0.837916
0.937209
0.789576
0.827202
0.813755
0.959543
0.920484
0.933795
0.964081
0.903337
0.882108
0.945955
0.905094
0.903944
0.840728
0.870217
0.928971
0.840104
0.929091
0.909728
0.789909
0.859295
0.858091
0.842433
0.791814
0.871765
0.867353
0.939059
0.822871
0.915201
0.916885
0.805638
0.849945
0.933651
0.848872
0.88862
0.866018
0.895435
0.792636
0.8298
0.865693
0.855429
0.840664
0.847218
0.841772
0.808294
0.924372
0.912212
0.839109
0.828125
0.891454
0.91755
0.865147
0.909491
0.928825
0.796401
0.817155
0.875433
0.793698
0.954647
0.913958
0.823569
0.846429
0.90195
0.813297
0.943762
0.943992
0.792217
0.947381
0.928191
0.896827
0.796503
0.837248
0.808725
0.873105
0.935109
0.962131
0.833779
0.81944
0.875447
0.833219
0.968798
0.861002
0.833997
0.799469
0.842956
0.829483
0.852038
0.860033
0.8691
0.875336
0.844176
0.852441
0.809622
0.945696
0.842039
0.792131
0.861166
0.851598
0.810413
0.920379
0.857171
0.935058
0.853835
0.920808
0.947246
0.897487
0.880132
0.848356
0.894354
0.957763
0.85519
0.852397
0.809411
0.906996
0.816908
0.785761
0.803673
0.914707
0.808766
0.804253
0.891112
0.912398
0.898305
0.917229
0.804911
0.805363
0.84628
0.871484
0.844742
0.940914
0.829987
0.942004
0.785528
0.787031
0.851483
0.82352
0.879893
0.864063
0.90543
0.847182
0.827192
0.845798
0.855524
0.927909
0.839879
0.821817
0.931023
0.831343
0.929855
0.792419
0.804024
0.853352
0.838985
0.847834
0.831122
0.857121
0.935549
0.96454
0.969359
0.944247
0.791718
0.80357
0.851488
0.882597
0.796128
0.799844
0.820177
0.794185
0.909911
0.936652
0.839116
0.903358
0.937881
0.800381
0.874699
0.858827
0.848314
0.926502
0.810064
0.89457
0.897478
0.924993
0.946171
0.849408
0.842416
0.92842
0.958892
0.905302
0.800321
0.934655