/*--------------------------------*- C++ -*----------------------------------*\
| =========                 |                                                 |
| \\      /  F ield         | OpenFOAM: The Open Source CFD Toolbox           |
|  \\    /   O peration     | Version:  2212                                  |
|   \\  /    A nd           | Website:  www.openfoam.com                      |
|    \\/     M anipulation  |                                                 |
\*---------------------------------------------------------------------------*/
FoamFile
{
    version     2.0;
    format      ascii;
    arch        "LSB;label=32;scalar=64";
    class       volScalarField;
    location    "0.03";
    object      k;
}
// * * * * * * * * * * * * * * * * * * * * * * * * * * * * * * * * * * * * * //

dimensions      [0 2 -2 0 0 0 0];

internalField   nonuniform List<scalar> 
31639
(
0.0244208
0.0238536
0.0242536
0.0250923
0.0241582
0.023623
0.0238516
0.0246312
0.0244071
0.0247384
0.0247685
0.0246602
0.0240501
0.0248716
0.0235365
0.0235029
0.0245295
0.0238735
0.0232764
0.0239245
0.0222107
0.0248751
0.0249538
0.0234308
0.0232747
0.0242734
0.0239014
0.0207728
0.0238103
0.025025
0.0247535
0.0236782
0.0248828
0.023317
0.0227138
0.0249729
0.0217655
0.0252222
0.0248209
0.0215234
0.0226544
0.022517
0.0245912
0.024826
0.0249111
0.0247633
0.0235885
0.0238637
0.0244824
0.0250149
0.0246806
0.0216537
0.0251889
0.0221602
0.0236313
0.0243977
0.0223425
0.0240188
0.0238377
0.0222917
0.0241784
0.0247405
0.0233298
0.0237733
0.0243752
0.0249934
0.0240905
0.0240246
0.0230098
0.0249666
0.0249462
0.0229509
0.0245014
0.0239533
0.0250859
0.0226784
0.0247266
0.023908
0.023638
0.0247709
0.0232256
0.0214728
0.0248598
0.0242705
0.0242063
0.0246971
0.0249877
0.024847
0.0227381
0.0251343
0.0241308
0.0241427
0.0224315
0.0237321
0.022919
0.0236146
0.0239559
0.0239499
0.0241082
0.0223741
0.0251038
0.0247092
0.023623
0.0221267
0.0223358
0.0248252
0.0220773
0.0219364
0.0230751
0.022163
0.0242775
0.0224247
0.0237749
0.0236127
0.0239677
0.0220926
0.0239753
0.0239535
0.0248586
0.0238245
0.0246432
0.024657
0.0244839
0.0243554
0.0241992
0.0249455
0.0239557
0.023162
0.0229468
0.024556
0.024688
0.0244876
0.0245619
0.0237288
0.024621
0.0240232
0.022323
0.0220381
0.0245924
0.0239814
0.0239328
0.0247522
0.0247657
0.0219657
0.0217719
0.0249456
0.0247065
0.0225357
0.0223522
0.0247731
0.0232149
0.0242192
0.0233343
0.0245712
0.0227001
0.0249943
0.0240795
0.0230161
0.0226519
0.0234028
0.0247658
0.0228564
0.0231976
0.0222267
0.0226079
0.0236643
0.0226698
0.0249977
0.024615
0.0219882
0.0229456
0.0234219
0.0226944
0.0240527
0.0250776
0.0247285
0.0241432
0.0250562
0.0241294
0.023902
0.023676
0.0237628
0.0232858
0.0217118
0.0243825
0.0251092
0.0234228
0.0249606
0.0225805
0.0222445
0.0253801
0.0247302
0.0244052
0.0237953
0.023938
0.0237049
0.0237482
0.0245153
0.0221588
0.0237115
0.0248653
0.0251322
0.0241656
0.0242445
0.0242552
0.0239312
0.0236293
0.0234714
0.0246941
0.0217759
0.0238287
0.0238347
0.024323
0.0247431
0.0245949
0.0248048
0.0227465
0.0234344
0.0247919
0.0247726
0.0243953
0.0239121
0.0221822
0.0240551
0.0222309
0.0241844
0.0246728
0.0233877
0.0225966
0.0245849
0.0243501
0.02516
0.0227398
0.0223883
0.0243983
0.024503
0.0222777
0.024766
0.0233019
0.0220542
0.0236409
0.0242874
0.0237946
0.0234811
0.0234435
0.0245848
0.0235248
0.0233882
0.0224226
0.0238297
0.0233503
0.0227937
0.0235272
0.0250331
0.0248612
0.0236805
0.0227427
0.0244762
0.0243815
0.024109
0.0250624
0.0247439
0.0245108
0.0248184
0.0236232
0.0240131
0.0219246
0.0233038
0.0245405
0.0233821
0.0242653
0.0235386
0.0242484
0.0251768
0.0250528
0.0241419
0.0223387
0.0238758
0.0231082
0.0247208
0.0239597
0.0248918
0.0250928
0.0236769
0.022513
0.02326
0.0227132
0.022276
0.0245939
0.0228746
0.0250547
0.023618
0.0234377
0.0228005
0.025219
0.0236453
0.0237276
0.0248438
0.0243081
0.0233573
0.0238615
0.0227431
0.0239044
0.0236042
0.0226816
0.0237539
0.0235189
0.0213025
0.0219824
0.0246393
0.0249641
0.0243562
0.0222342
0.0228904
0.0245076
0.0228621
0.022835
0.0249385
0.0250362
0.0235105
0.0247625
0.0249909
0.022639
0.0249469
0.0220682
0.0222498
0.0247733
0.0245778
0.0246695
0.0249833
0.0245874
0.0227753
0.0236535
0.0236479
0.0248417
0.0251752
0.0251696
0.0236925
0.023268
0.0243692
0.0245304
0.0243125
0.0233489
0.0238956
0.0235406
0.0239069
0.0245635
0.0233746
0.022635
0.0245851
0.0252621
0.0236881
0.0250832
0.0247269
0.0237816
0.0226794
0.0237087
0.0237688
0.0222237
0.0250642
0.022799
0.0243416
0.0247221
0.0219467
0.0239072
0.0237947
0.0223285
0.024201
0.022795
0.0239261
0.0251253
0.0245724
0.0219622
0.0243277
0.022748
0.0243468
0.0247155
0.0248906
0.0248868
0.0228674
0.024396
0.022139
0.0235679
0.022097
0.0248641
0.024544
0.0247891
0.0246815
0.0230426
0.0251473
0.023876
0.0243814
0.0237344
0.0231272
0.0239517
0.02441
0.0241585
0.0244188
0.0242715
0.0246144
0.0238684
0.0226448
0.0241084
0.0246173
0.0244252
0.0219437
0.0248755
0.0246592
0.0238468
0.0241022
0.0243321
0.0242704
0.0248194
0.0221788
0.0243595
0.0248443
0.0220063
0.0241804
0.0242887
0.0228304
0.0222474
0.0223642
0.0237334
0.0224125
0.0238459
0.0236526
0.0236296
0.0251322
0.0225458
0.0245844
0.0249112
0.0238654
0.0245223
0.0237255
0.0248541
0.0239372
0.0243143
0.0249846
0.0238174
0.022396
0.0239157
0.0250003
0.0247241
0.0245515
0.0250427
0.0234552
0.0243624
0.0246308
0.0250547
0.0251344
0.0226583
0.0237634
0.0216285
0.0240873
0.0236469
0.0226253
0.0223165
0.0237059
0.0244496
0.0247074
0.0223975
0.024507
0.0235262
0.0237468
0.0246585
0.0194983
0.0236331
0.0222003
0.0234677
0.024691
0.0252113
0.024437
0.0240321
0.021799
0.0245289
0.0238614
0.024487
0.0222729
0.0226345
0.0237564
0.0224989
0.0227334
0.0243098
0.022254
0.0236526
0.0222275
0.0245581
0.0224624
0.0249724
0.0246367
0.0246526
0.0247805
0.0233798
0.0247041
0.0248666
0.0242713
0.0247441
0.02398
0.0245958
0.0253285
0.0235929
0.0248313
0.0249632
0.0237543
0.0230624
0.0250066
0.0239278
0.0217613
0.0221505
0.0240041
0.0249765
0.0249134
0.0236898
0.0252841
0.025424
0.0244747
0.0241342
0.0239179
0.0239474
0.0227969
0.0237357
0.0244551
0.0250507
0.0232754
0.0230096
0.022902
0.0232696
0.0236999
0.0216715
0.02454
0.0234678
0.0244021
0.0239496
0.0245557
0.0240565
0.0226713
0.0242203
0.0247801
0.0229909
0.0246393
0.0251755
0.0237638
0.0236901
0.0209114
0.023048
0.0237874
0.0239561
0.0227286
0.0225887
0.0240055
0.0229326
0.0245001
0.0233143
0.0239385
0.024768
0.0238522
0.0221628
0.0235501
0.0240273
0.0248635
0.0224391
0.0215525
0.0247526
0.0222932
0.0241207
0.0251801
0.0224376
0.0238663
0.0250787
0.0241906
0.0224456
0.0247795
0.0241955
0.022332
0.0246448
0.0241262
0.0235931
0.0245663
0.0218819
0.023299
0.0239838
0.0237187
0.0237584
0.0244101
0.0252633
0.0247064
0.0244471
0.0249734
0.0246708
0.0244924
0.0232911
0.0244205
0.0250145
0.0255059
0.0230195
0.0239927
0.0242418
0.025564
0.0227607
0.021874
0.0249396
0.0228648
0.0251535
0.0234601
0.022525
0.0240583
0.0247355
0.0242738
0.0244207
0.0220267
0.0245515
0.0241001
0.0220994
0.0249207
0.0246617
0.0204235
0.0226494
0.0229858
0.0238225
0.0240184
0.0239982
0.0238123
0.0239297
0.0246531
0.0239576
0.0238686
0.0227437
0.0249632
0.0222887
0.0239131
0.0239402
0.0236379
0.0251748
0.0238842
0.0230916
0.0221149
0.0227583
0.023905
0.0248055
0.0226829
0.0250245
0.0241493
0.0245788
0.022595
0.023468
0.0245803
0.0250622
0.024777
0.0244323
0.0240172
0.0241042
0.0251319
0.0250887
0.0249191
0.0232456
0.024684
0.0225742
0.0249309
0.0248764
0.0237289
0.0228157
0.0235194
0.0215248
0.024782
0.0242891
0.0252393
0.023871
0.0232937
0.0224377
0.0246151
0.0221332
0.0218058
0.0229673
0.0233751
0.0226059
0.0238927
0.0224488
0.0242231
0.0244049
0.0216889
0.0250627
0.0227155
0.0231591
0.0234309
0.023443
0.0245992
0.024842
0.0250255
0.0249201
0.023784
0.0238995
0.0237404
0.0237401
0.0220691
0.0180655
0.0249373
0.0237031
0.0245993
0.0247246
0.0224061
0.0248265
0.0250388
0.0245101
0.0245386
0.0244794
0.0241574
0.0249473
0.0250938
0.0240443
0.0247788
0.0247693
0.0228642
0.0247574
0.0235629
0.0246378
0.0232615
0.0237471
0.0232397
0.025227
0.023635
0.0240463
0.0240808
0.0228309
0.0249845
0.024226
0.0236198
0.0226386
0.0244198
0.0219314
0.0245773
0.0246914
0.0233456
0.0251573
0.0251273
0.0250896
0.0223919
0.0238925
0.0241772
0.0241716
0.0227614
0.0244662
0.0246508
0.0233012
0.0239253
0.0231803
0.0245035
0.0237475
0.0237667
0.0219741
0.0245062
0.0243449
0.0246582
0.0234218
0.0238261
0.0241113
0.0237967
0.02348
0.02418
0.0245562
0.0236778
0.0219435
0.022033
0.0236052
0.0217132
0.0223971
0.024244
0.0241896
0.0245647
0.0218957
0.0235897
0.0248516
0.0227632
0.022122
0.0239353
0.0227754
0.0247207
0.023096
0.0249766
0.023355
0.0235136
0.0249995
0.0220015
0.0234833
0.023568
0.0246552
0.0249549
0.0248079
0.0229092
0.024408
0.0249789
0.0235748
0.0249955
0.0246122
0.0245039
0.0249166
0.0239364
0.025329
0.0251395
0.0252531
0.0243387
0.0236213
0.0240887
0.0238087
0.0223113
0.0234223
0.0244742
0.0246766
0.0251773
0.0237695
0.025082
0.0247105
0.0232448
0.0247732
0.0247677
0.0245783
0.024715
0.0225335
0.0235309
0.0247913
0.0218874
0.0239975
0.0237215
0.0239217
0.0236224
0.0249555
0.0244332
0.0246263
0.0238457
0.0244994
0.024078
0.0248684
0.0240867
0.0238294
0.0226859
0.0247609
0.0229388
0.0235321
0.0239835
0.0234368
0.0241863
0.0250663
0.0226434
0.0250502
0.0226612
0.0240995
0.0239298
0.0236291
0.0237637
0.0249254
0.0224504
0.0245447
0.0247938
0.025104
0.0241751
0.0243121
0.0217446
0.0249192
0.0247317
0.0244505
0.0244827
0.0246897
0.0238941
0.0244659
0.0240186
0.0227448
0.023946
0.0249833
0.0219793
0.0230444
0.0255522
0.0246818
0.0233478
0.0236062
0.0242926
0.0233588
0.0236424
0.0228754
0.0246367
0.0251075
0.0218743
0.0241817
0.0247377
0.0247477
0.0252459
0.023497
0.0247034
0.0229124
0.0228143
0.0250459
0.0247981
0.0236673
0.0226577
0.0244822
0.0247704
0.0232995
0.0249058
0.0246813
0.0247735
0.0244561
0.0246401
0.0241531
0.0240504
0.0235604
0.0233889
0.0221879
0.0241589
0.0240247
0.0226857
0.0247932
0.0221676
0.0234717
0.0238367
0.0226732
0.0237436
0.0235345
0.0243619
0.0242044
0.0247446
0.0226015
0.0226986
0.0237258
0.0224092
0.0232886
0.0247236
0.0236672
0.0248297
0.024269
0.0238352
0.0249839
0.0236436
0.0242376
0.023712
0.0237626
0.0243926
0.0230792
0.0240622
0.0246426
0.0248313
0.0251562
0.022628
0.0222843
0.023864
0.0247735
0.022799
0.0235254
0.0245548
0.0238559
0.0254563
0.023818
0.0235114
0.0247306
0.0224384
0.024771
0.0251946
0.0227514
0.0233548
0.0237085
0.0236205
0.0250899
0.0249616
0.0245402
0.022988
0.0246755
0.0224176
0.0237223
0.0249692
0.023626
0.0253811
0.0221135
0.0238666
0.0244163
0.0240045
0.0223443
0.0221658
0.0246823
0.0249646
0.0236507
0.0248895
0.0243901
0.0237082
0.0225844
0.0231913
0.0243471
0.0239383
0.0238977
0.025114
0.0247569
0.0254309
0.0248924
0.0243274
0.0243934
0.0244706
0.0228148
0.0248091
0.0244061
0.0240446
0.0242945
0.0250712
0.0239652
0.0249099
0.0237245
0.0218237
0.0251378
0.0235188
0.0249091
0.0235754
0.0246359
0.0228809
0.024401
0.0254492
0.0239616
0.0239369
0.0224467
0.0245495
0.02498
0.0242276
0.0224489
0.0255657
0.0239705
0.0241434
0.0249921
0.0248137
0.0246069
0.0237597
0.0241512
0.0253631
0.0228658
0.0230374
0.0228044
0.0232278
0.0242115
0.0222705
0.0250366
0.0247791
0.025323
0.0236843
0.0238089
0.0240109
0.0248357
0.0240373
0.0243465
0.0249011
0.0251825
0.0242215
0.0246721
0.0239353
0.0236179
0.0244176
0.0236164
0.0252343
0.0251085
0.0250318
0.0251845
0.0248975
0.0233903
0.0253621
0.0242466
0.0242904
0.0235679
0.0242149
0.0251192
0.0239041
0.0246149
0.0236292
0.0239094
0.0245205
0.0230694
0.0225573
0.0236999
0.0240087
0.0252621
0.0235314
0.0222065
0.0243068
0.0247354
0.0232867
0.0235619
0.0239861
0.0250503
0.0249512
0.023529
0.0234892
0.0239351
0.0248455
0.0236456
0.0241495
0.0240813
0.0223621
0.0237883
0.0237329
0.0246068
0.0248812
0.0240431
0.0250337
0.0246628
0.0239171
0.0243067
0.0225512
0.0229375
0.0223756
0.0251039
0.0242169
0.0251896
0.0258345
0.0246244
0.0223102
0.0246633
0.0237454
0.0245947
0.0244577
0.0245594
0.0223747
0.0251384
0.0226893
0.0239453
0.0241789
0.0240517
0.0254209
0.0238948
0.0246148
0.022727
0.0238191
0.0242549
0.0249552
0.0232288
0.0232915
0.0243812
0.0248026
0.0244566
0.0243821
0.0250695
0.0226732
0.0241129
0.023798
0.0233397
0.0246224
0.0252036
0.0250656
0.0247218
0.0251673
0.0228563
0.0227617
0.022819
0.0252398
0.0225179
0.0245082
0.0242979
0.0226322
0.023639
0.0246676
0.0249335
0.0233316
0.0236298
0.023522
0.0240524
0.0250992
0.0242392
0.0226376
0.0239922
0.0252775
0.0249524
0.0253674
0.024998
0.0256754
0.0250794
0.0248824
0.0230908
0.0224812
0.0241213
0.0233058
0.025112
0.0227513
0.0242235
0.0238757
0.0249943
0.0230425
0.0246343
0.0246424
0.0243868
0.0238647
0.0227153
0.0248136
0.0237047
0.0253195
0.0241315
0.0254001
0.0250697
0.0240659
0.022471
0.0226663
0.0237302
0.0244972
0.023512
0.0255129
0.022916
0.0248086
0.0244964
0.0237974
0.024338
0.0247694
0.0250135
0.0249629
0.0251531
0.0242303
0.0243743
0.0223646
0.0234527
0.0249706
0.0230557
0.0244915
0.0237332
0.0227283
0.0238455
0.023655
0.0237843
0.0244586
0.0247319
0.0228725
0.0237081
0.0241078
0.0226892
0.0234757
0.0236773
0.0239542
0.0245513
0.0228255
0.0227385
0.0238485
0.0236926
0.0249246
0.0252758
0.0248793
0.0234326
0.0235871
0.024026
0.023334
0.0250525
0.022728
0.0239364
0.0239527
0.0251129
0.0247753
0.0241533
0.0243423
0.0248997
0.0227976
0.0241519
0.0250679
0.0235315
0.0212587
0.0239816
0.0227861
0.0242916
0.022228
0.0251673
0.0252133
0.0250838
0.0241831
0.0228229
0.022493
0.0247703
0.025225
0.0251684
0.0241009
0.0243915
0.0243861
0.0252484
0.0248325
0.0222559
0.0242452
0.024159
0.0243613
0.0237266
0.0246387
0.0220704
0.0251378
0.0247659
0.0241274
0.0241505
0.0245325
0.0239362
0.0250756
0.0244462
0.0229232
0.0237947
0.0246551
0.0236779
0.0241695
0.0244656
0.0222724
0.022791
0.0249148
0.0252433
0.024804
0.0251896
0.0245487
0.0247214
0.0243052
0.0241051
0.0243153
0.0248212
0.0236613
0.024089
0.0232643
0.0239539
0.0248395
0.0220624
0.0242283
0.0221976
0.0247569
0.0222605
0.0224375
0.0236685
0.0218949
0.0242817
0.0243874
0.0247489
0.0247788
0.0234268
0.0232041
0.0254571
0.0235085
0.0229417
0.0241452
0.0233307
0.024958
0.0245089
0.0242989
0.0228309
0.0249008
0.024913
0.0249774
0.0224955
0.0233049
0.0240712
0.0248808
0.025422
0.0225558
0.0224485
0.0249219
0.0244232
0.0251235
0.0238826
0.0220125
0.0245029
0.0248335
0.0224875
0.0221786
0.0248373
0.0228003
0.0227585
0.0248686
0.0252587
0.024439
0.0254972
0.0237057
0.0238451
0.0249517
0.0234061
0.0248794
0.0235733
0.0244469
0.0248727
0.0236232
0.0224871
0.0245355
0.0246702
0.0235892
0.0238024
0.0240616
0.0232742
0.0219593
0.024188
0.0246423
0.0249845
0.0235651
0.0244772
0.0223987
0.0245485
0.0252278
0.0223333
0.0249959
0.024128
0.0215274
0.022457
0.0240711
0.0238596
0.024651
0.0237086
0.02288
0.024726
0.0252458
0.0250414
0.0244181
0.0249175
0.0224774
0.0249365
0.0239287
0.0225408
0.0226377
0.0214569
0.0225479
0.0243933
0.023832
0.0243207
0.0239962
0.0229036
0.0231924
0.0220091
0.0220392
0.0254985
0.0253065
0.0229091
0.0250853
0.0249675
0.0229216
0.0238214
0.0243067
0.023309
0.0234536
0.0248709
0.0231687
0.022094
0.0249701
0.0253035
0.0235129
0.0250209
0.0239842
0.0231636
0.0228001
0.0239799
0.0224606
0.0226794
0.0241548
0.0242856
0.0237978
0.0251173
0.0249379
0.0238467
0.025056
0.0179796
0.0239956
0.0223947
0.0239308
0.0251257
0.0236862
0.0233968
0.0237367
0.022676
0.0242716
0.0238205
0.0233346
0.0226099
0.0217963
0.021802
0.0236711
0.022528
0.0239846
0.0224733
0.0237783
0.0248502
0.0244153
0.0239057
0.0241544
0.024565
0.0238669
0.0245984
0.0222828
0.0240858
0.0250539
0.0250084
0.0236113
0.0254101
0.0230617
0.0248416
0.0237065
0.0223516
0.0248539
0.0250388
0.0243699
0.0244716
0.0250477
0.0244005
0.0218768
0.0219401
0.023626
0.0251836
0.0242899
0.0246465
0.0235658
0.0237612
0.0230637
0.0223292
0.0223005
0.0223878
0.0244623
0.024162
0.0249696
0.0234306
0.0236685
0.0253486
0.0224964
0.0239844
0.0251591
0.0250326
0.0231058
0.0235513
0.0246323
0.0251411
0.0250371
0.0206207
0.0243586
0.0247499
0.0243896
0.0240233
0.0254933
0.0248277
0.0249974
0.0241425
0.0233627
0.023959
0.0251326
0.0244859
0.0238725
0.0225232
0.0248138
0.0248191
0.0250708
0.0245965
0.0221583
0.021602
0.023675
0.0246074
0.0241427
0.0240948
0.0245464
0.0245841
0.0246222
0.02358
0.0246243
0.0240492
0.0248181
0.0227604
0.0227294
0.0234868
0.0252625
0.0226873
0.0247462
0.0225817
0.0238467
0.0239579
0.0252618
0.0239257
0.0246759
0.0251349
0.024872
0.0242468
0.0248009
0.0240241
0.0236239
0.0219731
0.0251387
0.0215272
0.0224721
0.0209082
0.0218869
0.0221918
0.0237028
0.0241154
0.0226556
0.0235589
0.0215546
0.0229063
0.0235166
0.0249634
0.0221723
0.022581
0.0246004
0.0221968
0.0237142
0.0247181
0.0245296
0.023816
0.0227064
0.0222358
0.0235098
0.0251752
0.0233114
0.0225586
0.0244442
0.0236169
0.0242346
0.0237752
0.0228528
0.0250825
0.0220019
0.0225539
0.0240139
0.0251287
0.0236381
0.0239209
0.0240989
0.0239956
0.0218659
0.022941
0.0235673
0.0250214
0.0244836
0.0224356
0.0217862
0.0239377
0.0250628
0.0236882
0.0238828
0.023442
0.0234429
0.0237539
0.0223829
0.0249493
0.0234606
0.0224236
0.0217011
0.0245101
0.0238898
0.025091
0.0241226
0.024712
0.0224709
0.0238861
0.0219565
0.0217654
0.0250201
0.0228511
0.0239987
0.0239491
0.0237513
0.0224832
0.025009
0.0246765
0.025017
0.0243718
0.0212415
0.0239615
0.0218582
0.025196
0.0227052
0.0250212
0.021596
0.0242771
0.0248062
0.0236162
0.0237017
0.0218114
0.0233257
0.0238397
0.0247362
0.0244812
0.0249588
0.0250671
0.0224704
0.025054
0.0218647
0.0241709
0.0243301
0.0247925
0.0248886
0.0236902
0.0251993
0.0238362
0.0233319
0.0233273
0.0241711
0.0250032
0.023163
0.0229327
0.0250135
0.0246224
0.023781
0.0253792
0.0242819
0.0244225
0.0247998
0.024702
0.0250291
0.0236487
0.0234046
0.0248582
0.0247475
0.0217056
0.0236785
0.0232365
0.0251256
0.0242051
0.0246841
0.0226059
0.0224747
0.0240296
0.0245272
0.024761
0.0249992
0.0248114
0.0240864
0.0244561
0.0226804
0.0244239
0.0239171
0.0249058
0.025
0.0249291
0.0241459
0.0249496
0.0231084
0.0249219
0.0231502
0.0235844
0.0236423
0.024026
0.0234777
0.0245615
0.0223645
0.0248133
0.0247991
0.0239477
0.0225389
0.0252794
0.0244353
0.0248716
0.0238043
0.0239814
0.0247195
0.0223206
0.0249176
0.0240498
0.0241588
0.0231349
0.0232526
0.0233609
0.0223495
0.02351
0.0251865
0.024148
0.0218581
0.0245645
0.0222293
0.0243135
0.0242303
0.0219834
0.0221339
0.0234317
0.0241564
0.0247388
0.0235551
0.0241609
0.0239311
0.02178
0.0235687
0.0249197
0.0249331
0.0249355
0.0242865
0.0244041
0.0226115
0.022488
0.0251639
0.0239079
0.0243927
0.0247387
0.0253573
0.02407
0.0241503
0.0219163
0.0244955
0.0248372
0.0235328
0.0250036
0.0247639
0.0243185
0.0230957
0.0245757
0.0237219
0.0218416
0.0240255
0.0228674
0.022453
0.0243665
0.0240434
0.0250001
0.0249183
0.0241981
0.0251115
0.021689
0.0235629
0.0251938
0.0252068
0.0222028
0.0243555
0.0227523
0.0231917
0.0248802
0.0235191
0.0243735
0.0253366
0.0245094
0.0218178
0.0247019
0.0224863
0.0247513
0.0243781
0.0241428
0.0247325
0.0241284
0.0247502
0.0224786
0.0248604
0.0249365
0.0227784
0.0242854
0.0238563
0.0238328
0.0247642
0.0239308
0.0246925
0.0251323
0.0249557
0.0239194
0.0250219
0.0239479
0.0244328
0.0231703
0.0231242
0.0223654
0.0219423
0.0243119
0.0244051
0.0238507
0.0250508
0.0233297
0.0250052
0.022034
0.0252443
0.0251211
0.0244747
0.0249204
0.0230972
0.0220007
0.0237836
0.0224892
0.0246555
0.0240201
0.0220215
0.0236941
0.0252358
0.0247286
0.0221867
0.023197
0.0218519
0.025338
0.0224074
0.0247811
0.0229087
0.0227064
0.0250435
0.0250526
0.0249322
0.0244813
0.0223355
0.0243199
0.0251839
0.0227968
0.0250064
0.0244745
0.0252273
0.0219025
0.0244402
0.0235207
0.0244528
0.0237033
0.0235614
0.023563
0.0235844
0.023864
0.0237926
0.0243526
0.0237024
0.0251328
0.0229187
0.0237604
0.0240539
0.0246107
0.025197
0.0227038
0.0245221
0.0225447
0.023524
0.0249002
0.0250516
0.0240243
0.0243063
0.0245719
0.023446
0.023732
0.0238654
0.0223687
0.0221691
0.0242795
0.024726
0.0232765
0.023703
0.0247715
0.0225919
0.0241731
0.0227074
0.024415
0.0250448
0.0239829
0.0222901
0.0247675
0.0222993
0.0243719
0.025099
0.0218332
0.0253663
0.0228071
0.0235791
0.0237299
0.0222794
0.0234072
0.0232825
0.02186
0.0250165
0.0251172
0.0215355
0.0235038
0.0243469
0.0243367
0.0242828
0.0252774
0.0249087
0.0235502
0.0231787
0.0221537
0.0217869
0.0209351
0.0251166
0.024522
0.0243857
0.0244281
0.0223308
0.0223513
0.023655
0.0249512
0.0218121
0.0243339
0.0237721
0.023983
0.0243097
0.0231814
0.0246022
0.0234276
0.0240234
0.0252694
0.0212873
0.0239013
0.024691
0.0247709
0.0243569
0.0247245
0.0241941
0.0223857
0.0252799
0.0257079
0.0238394
0.023951
0.0229169
0.0237039
0.0244587
0.024842
0.0239636
0.0237407
0.0234673
0.0220877
0.0236309
0.0250681
0.0242759
0.0253647
0.0241581
0.0240946
0.025237
0.0226158
0.0247045
0.0223283
0.0252029
0.0245099
0.0235361
0.0254999
0.0234291
0.0239612
0.0252417
0.0236867
0.025062
0.0243093
0.0245958
0.0224789
0.0239379
0.0237222
0.0231187
0.0246459
0.0233308
0.0234488
0.0251868
0.022583
0.0249159
0.0239178
0.024937
0.0235707
0.0242734
0.0225702
0.0228803
0.0252554
0.0225589
0.0238507
0.0247396
0.0223199
0.0239242
0.0247254
0.023456
0.0226064
0.0232925
0.023825
0.0235169
0.0246602
0.0239497
0.0249719
0.0240932
0.0248806
0.0219298
0.0228136
0.0251257
0.0236088
0.0222733
0.0226791
0.0240358
0.0203795
0.0221479
0.0238444
0.023735
0.0251054
0.0231373
0.0247194
0.0249562
0.0250977
0.0247034
0.0250008
0.023508
0.0231727
0.0245676
0.0236248
0.0232765
0.0248997
0.0237283
0.0220211
0.0221738
0.0237636
0.0208424
0.0246056
0.0246371
0.0232123
0.0246017
0.0247001
0.0244888
0.0254781
0.0236988
0.0224907
0.0234161
0.0237205
0.0246772
0.0232266
0.0242774
0.0251343
0.0237552
0.0235143
0.0240491
0.02515
0.0246585
0.0257302
0.0250423
0.0241209
0.0243647
0.0229218
0.0236712
0.0250611
0.0231283
0.0250561
0.0232448
0.0246128
0.021679
0.024567
0.0238192
0.0246361
0.0234372
0.0244085
0.0237839
0.024616
0.0216756
0.0230652
0.0237989
0.0235428
0.0240681
0.0240396
0.0239796
0.0249745
0.0243213
0.0222535
0.0233259
0.0224123
0.0241363
0.0239666
0.0225955
0.0255667
0.0239723
0.0239704
0.0247428
0.0231148
0.0227029
0.0249638
0.0226056
0.0220657
0.0219815
0.0220484
0.022199
0.0234109
0.0250402
0.0247101
0.023822
0.0241142
0.024602
0.0236657
0.0245544
0.0220845
0.0248249
0.0185374
0.0246558
0.0222555
0.0222607
0.0246958
0.0222185
0.0240597
0.0244942
0.0247196
0.0231515
0.0240919
0.0236382
0.02376
0.0226568
0.0245731
0.0241736
0.0247514
0.0240004
0.0225034
0.0243116
0.0236593
0.0237016
0.0221005
0.0229458
0.0228193
0.0219839
0.0222081
0.0238373
0.0236498
0.0226672
0.0235763
0.0249663
0.0248531
0.0251645
0.0184287
0.0222583
0.0249451
0.0224377
0.0247232
0.0220525
0.0249484
0.0247854
0.0247927
0.0224467
0.0239282
0.0251111
0.0250731
0.0243935
0.0249455
0.0238544
0.0242205
0.023706
0.0222589
0.0242573
0.0234664
0.0236947
0.02375
0.022556
0.0237036
0.0248126
0.0231864
0.023138
0.0223362
0.0244087
0.0244138
0.0219028
0.0238172
0.0238468
0.02453
0.0225839
0.0240627
0.0240615
0.0255294
0.0199569
0.0241099
0.0237004
0.0221981
0.0248044
0.0229075
0.0228145
0.0243814
0.0249939
0.0220224
0.0248596
0.0242237
0.0224496
0.0221341
0.0249467
0.0249762
0.0222226
0.0239154
0.022024
0.0230175
0.0250696
0.023495
0.0244293
0.0247164
0.0250261
0.0234127
0.0234685
0.0234028
0.0239694
0.0241857
0.0233185
0.0246626
0.0224029
0.0227828
0.024099
0.0238522
0.0243914
0.023505
0.0244815
0.0246193
0.0239285
0.024909
0.0244553
0.0236455
0.023132
0.0244816
0.0235251
0.0230946
0.0242713
0.025107
0.024587
0.0240718
0.0225497
0.0243708
0.0232484
0.0222537
0.0235071
0.0240782
0.0222789
0.0244025
0.0231038
0.0213732
0.0220797
0.024489
0.0209708
0.0236408
0.024693
0.0242885
0.0224133
0.0243958
0.0256347
0.0224727
0.0221239
0.0226592
0.0247306
0.0238185
0.0236638
0.0248788
0.0222363
0.0245811
0.0238462
0.0250606
0.0252102
0.0187981
0.023929
0.024622
0.0248095
0.023856
0.0235353
0.0204097
0.0242181
0.0249517
0.0233376
0.0221107
0.0238449
0.0246317
0.0242024
0.0221316
0.0241598
0.0245771
0.024858
0.0236656
0.0241141
0.0219464
0.0223354
0.022271
0.0239459
0.0235607
0.0242777
0.0251049
0.024825
0.0213741
0.0247611
0.0248471
0.0243477
0.0235486
0.0247151
0.0231677
0.0226479
0.0234744
0.0240638
0.0231631
0.0219434
0.0243744
0.0236329
0.0246712
0.0228694
0.0214074
0.0233053
0.0248622
0.0244807
0.0231293
0.0235566
0.0247738
0.0248249
0.0232862
0.0235456
0.0246125
0.0250506
0.0244884
0.0250747
0.024422
0.0242292
0.0220004
0.0238415
0.0225218
0.024656
0.0244443
0.0233285
0.0223507
0.0251903
0.0221033
0.023522
0.0225491
0.0237928
0.0215316
0.0241062
0.0237863
0.0238287
0.0238688
0.0230238
0.0248973
0.0225398
0.0244952
0.0237193
0.0237001
0.0217843
0.0246049
0.0241235
0.0224765
0.0230987
0.0238784
0.0238147
0.0242796
0.0200723
0.0241999
0.0235993
0.0238482
0.0231789
0.0233003
0.0232471
0.0202252
0.0248445
0.0238491
0.0154876
0.0225381
0.0243803
0.0247825
0.0244927
0.0227624
0.0203835
0.0246752
0.0224704
0.0245771
0.0250379
0.0242217
0.0228216
0.0247615
0.0221259
0.0216678
0.0217768
0.0242766
0.0236771
0.0234547
0.0250986
0.0245293
0.0241662
0.0229287
0.0216302
0.0252511
0.0239968
0.0253307
0.0246109
0.0224494
0.0235378
0.0241817
0.0224274
0.0238426
0.0234
0.0239926
0.0258703
0.023988
0.0237881
0.0222869
0.0239935
0.0234376
0.0244832
0.0236321
0.0221254
0.0226838
0.0242352
0.0245215
0.0225893
0.0245025
0.0230814
0.0243283
0.0230022
0.0228679
0.0203501
0.0249679
0.0246576
0.0242783
0.0249456
0.0235657
0.022734
0.0218997
0.0205381
0.0241415
0.022127
0.0237615
0.0234688
0.0248192
0.023639
0.0246372
0.0231559
0.0161257
0.0225241
0.0246922
0.0169984
0.0239476
0.0252386
0.0242357
0.0250365
0.0223093
0.022597
0.0228916
0.0250798
0.0202065
0.0251617
0.0224965
0.0210526
0.024581
0.0226566
0.0247755
0.0166424
0.0216417
0.024223
0.024679
0.0250113
0.0243759
0.0248226
0.0242821
0.0242227
0.0246568
0.024492
0.023641
0.0233733
0.0203201
0.0246606
0.0233263
0.0232717
0.024997
0.0250349
0.0243564
0.0223195
0.0248767
0.0243816
0.0235955
0.0226696
0.0220348
0.024413
0.0250006
0.0246801
0.0248134
0.0241641
0.0239751
0.0221859
0.0246478
0.0238979
0.0240965
0.0236456
0.0220483
0.0209531
0.0233931
0.0254798
0.0243404
0.0240324
0.0226911
0.0232864
0.0230559
0.022366
0.0247904
0.023529
0.0190977
0.0198492
0.0214745
0.022528
0.0244614
0.0237792
0.0240875
0.0233011
0.0213986
0.0241512
0.0246992
0.0216095
0.0254025
0.022039
0.0249749
0.0229572
0.0246431
0.0247074
0.0239722
0.0244063
0.0234788
0.0226889
0.0228295
0.023282
0.0244043
0.0240305
0.022776
0.0230508
0.0240817
0.0220816
0.0238649
0.0228159
0.024693
0.023195
0.0236596
0.0195348
0.0247507
0.0251295
0.0239748
0.0244468
0.023373
0.023646
0.0246597
0.024287
0.0241652
0.0251053
0.0239959
0.0221952
0.0219812
0.0255641
0.022243
0.0221939
0.0219024
0.0244341
0.0250481
0.0239877
0.0250808
0.0255647
0.0250135
0.0243157
0.0233799
0.0223278
0.0240853
0.0213489
0.0241753
0.0240347
0.0235392
0.0234103
0.0228551
0.0238447
0.0251314
0.0215448
0.0231816
0.0239683
0.0217544
0.0247674
0.0209451
0.0214705
0.0221736
0.0247546
0.0225971
0.0222198
0.0227453
0.0218656
0.0239054
0.0201276
0.0204581
0.0238424
0.0223663
0.0216108
0.0237098
0.0224339
0.0230797
0.023918
0.0229854
0.0221493
0.0241626
0.022782
0.0232091
0.0221389
0.0233674
0.0233723
0.020769
0.024914
0.0237309
0.0241482
0.0231784
0.0224481
0.0221064
0.0236621
0.0236008
0.0249021
0.0239926
0.024564
0.0231413
0.0238607
0.0247223
0.0247426
0.0202064
0.0205992
0.0219533
0.0246449
0.0220487
0.0238448
0.0195236
0.0230686
0.0240087
0.0233258
0.0236968
0.0228995
0.0233581
0.0233707
0.0250415
0.0225759
0.0234252
0.0252428
0.0218895
0.0235657
0.0223303
0.0244316
0.0227469
0.0220832
0.0238397
0.0222615
0.0201968
0.0210475
0.0221801
0.0230556
0.020745
0.0250183
0.0228298
0.0216862
0.0234374
0.0246463
0.0235057
0.0210731
0.025188
0.024066
0.0220887
0.02344
0.0236496
0.0224668
0.0236146
0.0237703
0.0236182
0.0220555
0.0216695
0.023559
0.0225985
0.0209379
0.0215159
0.0217831
0.0239472
0.0218173
0.0245265
0.0235603
0.023769
0.0228256
0.0247342
0.0221779
0.0238696
0.022946
0.0165446
0.0249024
0.0211044
0.0238777
0.0246888
0.0248328
0.0202764
0.0245718
0.0249292
0.0223942
0.0240172
0.0235211
0.022835
0.0202444
0.0237137
0.0226871
0.0246717
0.0253004
0.0230043
0.0249903
0.0224508
0.0225858
0.0217149
0.020322
0.020853
0.0249456
0.0207035
0.024576
0.022698
0.0213551
0.0232403
0.0249132
0.0207597
0.0173957
0.0224525
0.0241743
0.0247061
0.0239769
0.0160017
0.023092
0.0245045
0.024091
0.0251432
0.0232077
0.02094
0.0248769
0.0209184
0.0240386
0.0231664
0.0229926
0.0228864
0.0242021
0.0222586
0.0221652
0.0206071
0.0223993
0.0243493
0.0237094
0.0235846
0.0217351
0.0225325
0.0229494
0.0222932
0.0241716
0.0215935
0.0219982
0.0239401
0.024664
0.0215786
0.0245201
0.0227609
0.0253941
0.0212623
0.0248491
0.0233393
0.0239663
0.023946
0.0228558
0.022258
0.025346
0.0236986
0.0236922
0.0234621
0.021913
0.0243892
0.0248695
0.0217933
0.0221682
0.0229378
0.0210922
0.0227248
0.0239161
0.0202072
0.0250146
0.020445
0.0229791
0.0238075
0.0209346
0.0228307
0.0234112
0.0221828
0.0235237
0.0221934
0.023708
0.0212405
0.0241287
0.0213178
0.0229609
0.0189072
0.0235664
0.0214386
0.0220008
0.0241341
0.0219138
0.0225983
0.0251951
0.0239097
0.0240387
0.024711
0.020707
0.0237364
0.0225345
0.0236616
0.0237394
0.0230553
0.0247565
0.0239324
0.0218652
0.0217177
0.024409
0.0235791
0.0237334
0.0204277
0.0247133
0.0253721
0.0243571
0.0236388
0.0221057
0.0223855
0.0231105
0.021737
0.0218564
0.0242016
0.0233135
0.0228213
0.0231478
0.0230837
0.0234391
0.0211992
0.0225547
0.0219762
0.0203186
0.0249878
0.0233651
0.0223569
0.0246321
0.0234169
0.0228893
0.0241129
0.0206687
0.0220507
0.0211238
0.0214515
0.0250835
0.024057
0.0197893
0.0246694
0.0210624
0.023455
0.0237155
0.02332
0.0245967
0.0229198
0.0236744
0.023154
0.0229021
0.0227571
0.0244345
0.0211358
0.0216149
0.0228215
0.0204347
0.0228517
0.0208398
0.0222717
0.0247977
0.0235604
0.019589
0.0197869
0.0218979
0.0213251
0.0227211
0.0219663
0.0230001
0.023961
0.020089
0.0238435
0.0231786
0.022768
0.0210781
0.0233663
0.0207849
0.0193514
0.0220204
0.0217692
0.0217489
0.0225978
0.02255
0.0230166
0.021543
0.0244354
0.0217156
0.0232463
0.0220059
0.0233977
0.022567
0.0213141
0.0238652
0.0231102
0.0203219
0.0220028
0.0228286
0.0252013
0.0247243
0.0241739