/*--------------------------------*- C++ -*----------------------------------*\
| =========                 |                                                 |
| \\      /  F ield         | OpenFOAM: The Open Source CFD Toolbox           |
|  \\    /   O peration     | Version:  2212                                  |
|   \\  /    A nd           | Website:  www.openfoam.com                      |
|    \\/     M anipulation  |                                                 |
\*---------------------------------------------------------------------------*/
FoamFile
{
    version     2.0;
    format      ascii;
    arch        "LSB;label=32;scalar=64";
    class       volScalarField;
    location    "0.03";
    object      nut;
}
// * * * * * * * * * * * * * * * * * * * * * * * * * * * * * * * * * * * * * //

dimensions      [0 2 -1 0 0 0 0];

internalField   nonuniform List<scalar> 
31639
(
5.67322e-05
5.44669e-05
5.58734e-05
5.99649e-05
5.48909e-05
5.33388e-05
5.28423e-05
5.72566e-05
5.6494e-05
5.84309e-05
5.82283e-05
5.80416e-05
5.5463e-05
5.93694e-05
5.33898e-05
5.13808e-05
5.69948e-05
5.36465e-05
5.13323e-05
5.47887e-05
4.50781e-05
5.85463e-05
5.94897e-05
5.16931e-05
5.07229e-05
5.58932e-05
5.4853e-05
4.88772e-05
5.31029e-05
5.9508e-05
5.85556e-05
5.2646e-05
5.92043e-05
5.09598e-05
4.7227e-05
5.92639e-05
4.34663e-05
6.03681e-05
5.87979e-05
4.18993e-05
4.75175e-05
4.67645e-05
5.80875e-05
5.84493e-05
5.86288e-05
5.86082e-05
5.32629e-05
5.37096e-05
5.69655e-05
5.96368e-05
5.82362e-05
4.29996e-05
5.99838e-05
4.45082e-05
5.27969e-05
5.61859e-05
4.5707e-05
5.51045e-05
5.44864e-05
4.55246e-05
5.53817e-05
5.78117e-05
5.03583e-05
5.42765e-05
5.64031e-05
5.97292e-05
5.54612e-05
5.51821e-05
4.86756e-05
5.94919e-05
5.93512e-05
5.10438e-05
5.75729e-05
5.49754e-05
5.95464e-05
4.69063e-05
5.85264e-05
5.38317e-05
5.37051e-05
5.80086e-05
5.06637e-05
4.16284e-05
5.90966e-05
5.61868e-05
5.66367e-05
5.83168e-05
5.95584e-05
5.89531e-05
4.81129e-05
6.01888e-05
5.56997e-05
5.52544e-05
4.64297e-05
5.4065e-05
4.95282e-05
5.35381e-05
5.43909e-05
5.49752e-05
5.55506e-05
4.59283e-05
5.98951e-05
5.83516e-05
5.38892e-05
4.49263e-05
4.60624e-05
5.87858e-05
4.47216e-05
4.38528e-05
4.96813e-05
4.45751e-05
5.72699e-05
4.63942e-05
5.39059e-05
5.23839e-05
5.5203e-05
4.45695e-05
5.34743e-05
5.35508e-05
5.84033e-05
5.43146e-05
5.75807e-05
5.80048e-05
5.75765e-05
5.63032e-05
5.52112e-05
5.91717e-05
5.47775e-05
5.02497e-05
4.93126e-05
5.79117e-05
5.85043e-05
5.78818e-05
5.82505e-05
5.29142e-05
5.76538e-05
5.52277e-05
4.58575e-05
4.44504e-05
5.78417e-05
5.49782e-05
5.48131e-05
5.84176e-05
5.85281e-05
4.42784e-05
4.29441e-05
5.96165e-05
5.8135e-05
4.656e-05
4.61325e-05
5.85311e-05
4.96313e-05
5.55095e-05
5.14572e-05
5.7414e-05
4.7337e-05
5.9638e-05
5.49866e-05
4.86763e-05
4.78347e-05
5.15089e-05
5.86668e-05
4.77592e-05
4.95292e-05
4.51789e-05
4.66217e-05
5.37412e-05
4.69914e-05
5.95043e-05
5.79029e-05
4.47193e-05
5.11146e-05
5.26942e-05
4.72923e-05
5.54784e-05
6.0177e-05
5.81548e-05
5.57117e-05
5.97166e-05
5.57126e-05
5.51722e-05
5.38449e-05
5.38169e-05
5.27058e-05
4.27559e-05
5.6071e-05
6.00714e-05
5.32828e-05
5.93152e-05
4.64785e-05
4.5487e-05
6.07155e-05
5.79983e-05
5.69092e-05
5.42845e-05
5.49721e-05
5.29699e-05
5.27562e-05
5.76545e-05
4.52684e-05
5.30745e-05
5.89961e-05
5.99087e-05
5.67922e-05
5.70794e-05
5.52498e-05
5.4714e-05
5.36562e-05
5.31884e-05
5.80332e-05
4.28823e-05
5.43073e-05
5.3299e-05
5.62932e-05
5.82337e-05
5.70786e-05
5.90624e-05
4.77036e-05
5.12383e-05
5.81536e-05
5.84985e-05
5.71137e-05
5.3695e-05
4.51163e-05
5.46323e-05
4.52523e-05
5.46036e-05
5.78954e-05
5.10048e-05
4.68702e-05
5.72868e-05
5.64375e-05
6.02502e-05
4.79941e-05
4.56405e-05
5.69149e-05
5.73282e-05
4.60507e-05
5.89718e-05
4.98412e-05
4.47168e-05
5.37241e-05
5.65663e-05
5.45196e-05
5.15496e-05
5.02914e-05
5.72523e-05
5.34132e-05
5.26324e-05
4.68407e-05
5.43015e-05
5.28866e-05
4.72923e-05
5.14729e-05
5.97176e-05
5.86403e-05
5.24348e-05
4.7616e-05
5.75006e-05
5.71356e-05
5.42124e-05
5.98726e-05
5.85962e-05
5.66561e-05
5.87945e-05
5.3499e-05
5.43786e-05
4.453e-05
5.10023e-05
5.84387e-05
5.29926e-05
5.70498e-05
5.22195e-05
5.52633e-05
5.94693e-05
5.975e-05
5.53662e-05
4.5985e-05
5.36268e-05
4.95223e-05
5.84496e-05
5.41166e-05
5.88585e-05
5.98369e-05
5.24505e-05
4.68648e-05
4.93226e-05
4.75745e-05
4.51877e-05
5.81731e-05
4.83908e-05
5.91182e-05
5.38515e-05
5.17981e-05
4.80938e-05
6.02663e-05
5.25379e-05
5.13307e-05
5.8757e-05
5.50306e-05
4.96431e-05
5.43214e-05
4.81917e-05
5.47544e-05
5.3718e-05
4.71603e-05
5.32911e-05
5.33226e-05
4.15788e-05
4.39827e-05
5.81198e-05
5.94292e-05
5.74954e-05
4.52744e-05
4.77643e-05
5.75064e-05
4.86868e-05
4.91297e-05
5.91681e-05
5.95555e-05
5.3068e-05
5.86322e-05
5.95869e-05
4.72255e-05
5.97557e-05
4.42281e-05
4.48855e-05
5.84316e-05
5.78446e-05
5.83311e-05
5.95692e-05
5.73996e-05
4.80391e-05
5.42135e-05
5.38747e-05
5.87275e-05
5.97308e-05
6.01078e-05
5.37983e-05
5.25601e-05
5.63697e-05
5.76365e-05
5.65851e-05
5.25295e-05
5.44258e-05
5.33958e-05
5.43035e-05
5.75889e-05
5.31518e-05
4.70038e-05
5.66986e-05
6.06536e-05
5.28709e-05
5.93616e-05
5.89754e-05
5.43055e-05
4.72334e-05
5.40662e-05
5.40948e-05
4.51333e-05
5.95718e-05
4.79546e-05
5.5814e-05
5.85605e-05
4.40539e-05
5.4626e-05
5.41757e-05
4.57967e-05
5.554e-05
4.77899e-05
5.44472e-05
5.97262e-05
5.68883e-05
4.38371e-05
5.6256e-05
4.78165e-05
5.63504e-05
5.84447e-05
5.89041e-05
5.85521e-05
4.79536e-05
5.74248e-05
4.52275e-05
5.33887e-05
4.46559e-05
5.92167e-05
5.79314e-05
5.87607e-05
5.83033e-05
5.00713e-05
5.96197e-05
5.44089e-05
5.63873e-05
5.3993e-05
4.84714e-05
5.46043e-05
5.71386e-05
5.63266e-05
5.73698e-05
5.5911e-05
5.73977e-05
5.407e-05
4.67627e-05
5.45708e-05
5.77061e-05
5.72247e-05
4.39723e-05
5.88975e-05
5.81466e-05
5.42921e-05
5.64131e-05
5.69999e-05
5.52739e-05
5.9243e-05
4.57601e-05
5.64532e-05
5.88414e-05
4.41604e-05
5.53156e-05
5.6178e-05
4.78092e-05
4.56735e-05
4.60083e-05
5.23951e-05
4.55838e-05
5.42454e-05
5.42891e-05
5.20126e-05
5.94764e-05
4.67646e-05
5.80165e-05
5.92976e-05
5.45215e-05
5.75284e-05
5.31695e-05
5.87234e-05
5.44995e-05
5.49513e-05
5.9787e-05
5.44636e-05
4.60571e-05
5.47934e-05
5.92648e-05
5.84873e-05
5.72007e-05
5.96946e-05
5.30811e-05
5.63745e-05
5.77987e-05
5.98498e-05
5.96248e-05
4.73424e-05
5.38749e-05
4.25969e-05
5.37581e-05
5.36695e-05
4.67685e-05
4.48226e-05
5.28762e-05
5.73636e-05
5.81404e-05
4.59144e-05
5.7076e-05
5.14262e-05
5.42141e-05
5.75867e-05
4.27089e-05
5.37415e-05
4.4666e-05
5.30189e-05
5.84082e-05
6.02722e-05
5.73642e-05
5.43798e-05
4.42494e-05
5.70727e-05
5.48613e-05
5.75812e-05
4.52832e-05
4.67456e-05
5.41053e-05
4.63458e-05
4.76588e-05
5.62976e-05
4.51272e-05
5.28068e-05
4.59303e-05
5.69892e-05
4.66837e-05
5.95751e-05
5.80949e-05
5.81787e-05
5.88896e-05
4.99528e-05
5.82253e-05
5.88778e-05
5.5652e-05
5.79601e-05
5.50128e-05
5.80745e-05
6.0394e-05
5.20624e-05
5.88349e-05
5.95766e-05
5.42577e-05
5.02143e-05
5.96821e-05
5.48177e-05
4.3307e-05
4.42579e-05
5.48296e-05
5.87845e-05
5.93799e-05
5.36831e-05
6.03117e-05
6.03914e-05
5.74399e-05
5.53639e-05
5.34545e-05
5.47143e-05
4.79599e-05
5.39663e-05
5.6386e-05
5.95466e-05
4.93533e-05
4.90481e-05
4.86342e-05
5.21593e-05
5.41131e-05
4.31491e-05
5.72224e-05
5.1487e-05
5.67648e-05
5.45488e-05
5.80349e-05
5.45589e-05
4.70588e-05
5.60616e-05
5.90403e-05
4.90062e-05
5.80062e-05
6.01359e-05
5.4592e-05
5.38045e-05
4.90438e-05
4.89674e-05
5.43643e-05
5.49199e-05
4.75075e-05
4.69917e-05
5.50262e-05
5.04735e-05
5.70187e-05
4.98831e-05
5.37673e-05
5.85515e-05
5.45335e-05
4.55175e-05
5.08449e-05
5.50128e-05
5.91006e-05
4.61234e-05
4.25713e-05
5.83276e-05
4.55766e-05
5.57132e-05
6.01487e-05
4.61631e-05
5.47682e-05
5.89068e-05
5.4777e-05
4.54154e-05
5.85526e-05
5.44425e-05
4.61335e-05
5.81956e-05
5.55835e-05
5.32769e-05
5.78477e-05
4.39104e-05
5.13526e-05
5.45557e-05
5.3099e-05
5.11029e-05
5.51161e-05
5.95023e-05
5.89242e-05
5.72136e-05
5.90995e-05
5.8471e-05
5.75628e-05
5.04458e-05
5.72759e-05
5.92062e-05
6.12788e-05
4.91096e-05
5.50559e-05
5.56627e-05
6.13304e-05
4.74799e-05
4.36816e-05
5.9468e-05
4.9184e-05
6.0279e-05
5.27915e-05
4.70463e-05
5.5033e-05
5.85506e-05
5.47609e-05
5.67021e-05
4.4969e-05
5.79189e-05
5.55763e-05
4.43431e-05
5.9303e-05
5.79904e-05
4.72926e-05
4.71769e-05
4.79571e-05
5.3093e-05
5.52479e-05
5.50348e-05
5.41013e-05
5.4921e-05
5.81549e-05
5.48914e-05
5.44131e-05
4.73555e-05
5.97093e-05
4.50934e-05
5.46547e-05
5.39161e-05
5.25122e-05
6.03943e-05
5.47226e-05
4.94925e-05
4.49273e-05
4.68263e-05
5.37889e-05
5.89562e-05
4.83734e-05
5.97949e-05
5.41459e-05
5.80538e-05
4.67499e-05
5.30078e-05
5.74867e-05
5.98504e-05
5.87074e-05
5.76167e-05
5.51853e-05
5.42342e-05
5.97812e-05
5.96448e-05
5.89036e-05
4.96247e-05
5.85564e-05
4.71977e-05
5.9196e-05
5.78008e-05
5.38621e-05
4.80004e-05
5.30777e-05
4.25881e-05
5.88046e-05
5.51588e-05
6.02032e-05
5.43368e-05
5.21172e-05
4.67599e-05
5.88247e-05
4.52678e-05
4.28123e-05
4.79353e-05
4.96846e-05
4.72748e-05
5.42903e-05
4.56632e-05
5.71269e-05
5.63889e-05
4.27841e-05
5.97606e-05
4.72357e-05
5.08852e-05
5.30069e-05
5.20944e-05
5.74824e-05
5.91394e-05
6.01642e-05
5.8951e-05
5.37698e-05
5.51085e-05
5.282e-05
5.31738e-05
4.48711e-05
3.60133e-05
5.92133e-05
5.38236e-05
5.7499e-05
5.82435e-05
4.61073e-05
5.87509e-05
5.94594e-05
5.74916e-05
5.79153e-05
5.75527e-05
5.58596e-05
5.94061e-05
5.99621e-05
5.49797e-05
5.83762e-05
5.83371e-05
4.80352e-05
5.85129e-05
5.23274e-05
5.75993e-05
5.24028e-05
5.43028e-05
5.08632e-05
6.02578e-05
5.32376e-05
5.50501e-05
5.40316e-05
4.72854e-05
5.96894e-05
5.5618e-05
5.21995e-05
4.66689e-05
5.73477e-05
4.44021e-05
5.85239e-05
5.72927e-05
5.24931e-05
5.95098e-05
6.01271e-05
5.92605e-05
4.58775e-05
5.46488e-05
5.42437e-05
5.49934e-05
4.7831e-05
5.75652e-05
5.83525e-05
5.22166e-05
5.46577e-05
5.19578e-05
5.69086e-05
5.26069e-05
5.3948e-05
4.42008e-05
5.78286e-05
5.62276e-05
5.87639e-05
5.02655e-05
5.46439e-05
5.58644e-05
5.43191e-05
5.13081e-05
5.57848e-05
5.79013e-05
5.3603e-05
4.43132e-05
4.44121e-05
5.37547e-05
4.35444e-05
4.72547e-05
5.56972e-05
5.57494e-05
5.81705e-05
4.4067e-05
5.37935e-05
5.9199e-05
4.81441e-05
4.53432e-05
5.5497e-05
4.78989e-05
5.68722e-05
4.89064e-05
5.91121e-05
5.06946e-05
5.19659e-05
5.95478e-05
4.45549e-05
5.30578e-05
5.33681e-05
5.81404e-05
5.90789e-05
5.89889e-05
4.79903e-05
5.73339e-05
5.88721e-05
5.21326e-05
5.96186e-05
5.78594e-05
5.68978e-05
5.89922e-05
5.50622e-05
6.04969e-05
5.99748e-05
6.01798e-05
5.69128e-05
5.24972e-05
5.54563e-05
5.45702e-05
4.58727e-05
5.33251e-05
5.66404e-05
5.84613e-05
5.95771e-05
5.36565e-05
5.99336e-05
5.80464e-05
5.2392e-05
5.79017e-05
5.85141e-05
5.72174e-05
5.7604e-05
4.68141e-05
5.28413e-05
5.87193e-05
4.35619e-05
5.42987e-05
5.38866e-05
5.38771e-05
5.34849e-05
5.95872e-05
5.73546e-05
5.83124e-05
5.43726e-05
5.71765e-05
5.53767e-05
5.85709e-05
5.54345e-05
5.32711e-05
4.72636e-05
5.85902e-05
4.76644e-05
5.29511e-05
5.42035e-05
5.25975e-05
5.5688e-05
5.96695e-05
4.68022e-05
5.96637e-05
4.72249e-05
5.55044e-05
5.31171e-05
5.36307e-05
5.41826e-05
5.94751e-05
4.63428e-05
5.75958e-05
5.85122e-05
5.90364e-05
5.53799e-05
5.5736e-05
4.3026e-05
5.89831e-05
5.8179e-05
5.71242e-05
5.76427e-05
5.83988e-05
5.48745e-05
5.55292e-05
5.51722e-05
4.81545e-05
5.39993e-05
5.94513e-05
4.48656e-05
4.89929e-05
6.14028e-05
5.82371e-05
5.11205e-05
5.28719e-05
5.55244e-05
5.13263e-05
5.38448e-05
4.8941e-05
5.79581e-05
5.93451e-05
4.33982e-05
5.53395e-05
5.89496e-05
5.78233e-05
5.94219e-05
5.32158e-05
5.83905e-05
4.82444e-05
4.7777e-05
5.96183e-05
5.84649e-05
5.43295e-05
4.79823e-05
5.76716e-05
5.84719e-05
4.98749e-05
5.89292e-05
5.85923e-05
5.88499e-05
5.66697e-05
5.85083e-05
5.52934e-05
5.58183e-05
5.37702e-05
5.18597e-05
4.56179e-05
5.56824e-05
5.5259e-05
4.80237e-05
5.89694e-05
4.4878e-05
5.29092e-05
5.40898e-05
4.72163e-05
5.37952e-05
5.21975e-05
5.70092e-05
5.52972e-05
5.80705e-05
4.64407e-05
4.6867e-05
5.32352e-05
4.64459e-05
5.22755e-05
5.84962e-05
5.37026e-05
5.87981e-05
5.47906e-05
5.43563e-05
5.89458e-05
5.24785e-05
5.50245e-05
5.41759e-05
5.3966e-05
5.63747e-05
4.85102e-05
5.50609e-05
5.77925e-05
5.92436e-05
6.0288e-05
4.6331e-05
4.60409e-05
5.44077e-05
5.87936e-05
4.86682e-05
5.3117e-05
5.62388e-05
5.44522e-05
6.11297e-05
5.39469e-05
5.33001e-05
5.74262e-05
4.63086e-05
5.87426e-05
5.9205e-05
4.75995e-05
5.09944e-05
5.39769e-05
5.22846e-05
5.96497e-05
5.90071e-05
5.63657e-05
4.82524e-05
5.82226e-05
4.63926e-05
5.3384e-05
5.84152e-05
5.14159e-05
6.05449e-05
4.48209e-05
5.43878e-05
5.63168e-05
5.49456e-05
4.5097e-05
4.5354e-05
5.87585e-05
5.92725e-05
5.27465e-05
5.94202e-05
5.63437e-05
5.41946e-05
4.66654e-05
4.92427e-05
5.59602e-05
5.45085e-05
5.44444e-05
5.98344e-05
5.88057e-05
6.0683e-05
5.93399e-05
5.61232e-05
5.60207e-05
5.75633e-05
4.70521e-05
5.82035e-05
5.70664e-05
5.53557e-05
5.58298e-05
5.92832e-05
5.37102e-05
5.94558e-05
5.37017e-05
4.35412e-05
6.00894e-05
5.12015e-05
5.90747e-05
5.24248e-05
5.83908e-05
4.77391e-05
5.72264e-05
6.12452e-05
5.43864e-05
5.48538e-05
4.58427e-05
5.79341e-05
5.92637e-05
5.64279e-05
4.64316e-05
6.18143e-05
5.47272e-05
5.65154e-05
5.91199e-05
5.85427e-05
5.78876e-05
5.405e-05
5.43142e-05
6.05017e-05
4.75934e-05
4.82125e-05
4.74338e-05
4.99015e-05
5.58587e-05
4.52952e-05
5.96378e-05
5.8684e-05
5.9975e-05
5.3517e-05
5.42549e-05
5.5081e-05
5.89149e-05
5.4963e-05
5.51819e-05
5.90199e-05
5.91675e-05
5.43775e-05
5.84871e-05
5.50363e-05
5.34144e-05
5.73315e-05
5.22886e-05
6.00013e-05
5.96736e-05
6.00701e-05
6.00265e-05
5.89787e-05
5.12736e-05
6.091e-05
5.53144e-05
5.59014e-05
5.34294e-05
5.60581e-05
6.03649e-05
5.46838e-05
5.80689e-05
5.28181e-05
5.45731e-05
5.72159e-05
4.85659e-05
4.59095e-05
5.39217e-05
5.33235e-05
5.95965e-05
5.18823e-05
4.53222e-05
5.60232e-05
5.82291e-05
4.96537e-05
5.2098e-05
5.51814e-05
5.97574e-05
5.94045e-05
5.3305e-05
5.02324e-05
5.47663e-05
5.76073e-05
5.26437e-05
5.56236e-05
5.50972e-05
4.53827e-05
5.24643e-05
5.21808e-05
5.71435e-05
5.871e-05
5.49238e-05
5.92446e-05
5.74436e-05
5.48496e-05
5.5801e-05
4.76675e-05
4.94566e-05
4.49186e-05
5.89432e-05
5.57439e-05
5.96952e-05
6.24264e-05
5.75788e-05
4.57224e-05
5.77659e-05
5.2843e-05
5.69515e-05
5.66831e-05
5.78922e-05
4.57187e-05
6.01386e-05
4.71947e-05
5.51469e-05
5.56777e-05
5.42036e-05
6.0831e-05
5.39808e-05
5.73607e-05
4.82626e-05
5.39705e-05
5.50642e-05
5.80222e-05
5.12068e-05
4.89874e-05
5.7417e-05
5.86347e-05
5.66548e-05
5.72474e-05
5.96417e-05
4.74322e-05
5.40472e-05
5.375e-05
4.98679e-05
5.81835e-05
5.97915e-05
5.97846e-05
5.86274e-05
6.03533e-05
4.79608e-05
4.71291e-05
4.78538e-05
6.03428e-05
4.58593e-05
5.78009e-05
5.63944e-05
4.72884e-05
5.26646e-05
5.8087e-05
5.90096e-05
5.07281e-05
5.20656e-05
5.2984e-05
5.52203e-05
5.95614e-05
5.55196e-05
4.76194e-05
5.50346e-05
6.00762e-05
5.88133e-05
6.00774e-05
5.95683e-05
6.19179e-05
5.98231e-05
5.83025e-05
4.82728e-05
4.60113e-05
5.51829e-05
5.12223e-05
5.9319e-05
4.6455e-05
5.59592e-05
5.40993e-05
5.98321e-05
4.83607e-05
5.69344e-05
5.80068e-05
5.61411e-05
5.29394e-05
4.70491e-05
5.82744e-05
5.17826e-05
6.01003e-05
5.49004e-05
6.15867e-05
5.98336e-05
5.53405e-05
4.58155e-05
4.68118e-05
5.39889e-05
5.60574e-05
5.1739e-05
6.10576e-05
4.75056e-05
5.93305e-05
5.75495e-05
5.25706e-05
5.69301e-05
5.85731e-05
5.92151e-05
5.9482e-05
5.98883e-05
5.58195e-05
5.67546e-05
4.56696e-05
5.20289e-05
5.9477e-05
4.82015e-05
5.69932e-05
5.37403e-05
4.80596e-05
5.45995e-05
5.67196e-05
5.42394e-05
5.74124e-05
5.83443e-05
4.73666e-05
5.383e-05
5.53058e-05
4.6849e-05
5.21419e-05
5.39001e-05
5.33056e-05
5.72927e-05
4.77567e-05
4.74849e-05
5.42965e-05
5.28456e-05
5.94161e-05
6.06491e-05
5.93471e-05
5.31412e-05
5.34379e-05
5.55329e-05
5.2446e-05
5.91767e-05
4.75694e-05
5.4921e-05
5.41416e-05
5.9981e-05
5.74821e-05
5.40843e-05
5.49023e-05
5.86762e-05
4.72584e-05
5.5292e-05
5.95037e-05
5.26265e-05
4.08367e-05
5.48697e-05
4.67278e-05
5.62437e-05
4.46634e-05
5.99053e-05
5.99568e-05
5.91858e-05
5.58523e-05
4.7903e-05
4.65874e-05
5.83988e-05
6.00207e-05
5.92579e-05
5.53152e-05
5.52614e-05
5.7381e-05
6.01594e-05
5.89603e-05
4.5653e-05
5.42123e-05
5.60382e-05
5.69202e-05
5.30087e-05
5.71036e-05
4.52755e-05
5.97995e-05
5.85984e-05
5.59282e-05
5.56865e-05
5.72628e-05
5.48416e-05
5.99381e-05
5.70141e-05
4.81523e-05
5.43816e-05
5.75702e-05
5.38064e-05
5.55728e-05
5.65838e-05
4.48626e-05
4.88014e-05
5.90876e-05
6.00816e-05
5.84883e-05
5.99273e-05
5.7683e-05
5.88147e-05
5.6564e-05
5.53748e-05
5.68404e-05
5.88624e-05
5.24785e-05
5.43403e-05
5.24039e-05
5.48788e-05
5.85976e-05
4.44669e-05
5.57832e-05
4.54336e-05
5.84785e-05
4.56667e-05
4.62496e-05
5.40929e-05
4.41452e-05
5.43786e-05
5.6409e-05
5.86169e-05
5.86606e-05
5.15824e-05
5.17074e-05
6.10827e-05
5.01588e-05
4.75945e-05
5.3809e-05
5.09567e-05
5.93786e-05
5.67625e-05
5.58404e-05
4.72307e-05
5.83294e-05
5.91364e-05
5.95585e-05
4.63958e-05
4.97619e-05
5.49788e-05
5.83838e-05
6.05332e-05
4.78556e-05
4.60163e-05
5.78041e-05
5.51627e-05
5.9997e-05
5.4783e-05
4.44788e-05
5.68384e-05
5.84822e-05
4.66933e-05
4.47721e-05
5.89797e-05
4.87701e-05
4.8515e-05
5.9427e-05
6.00973e-05
5.74633e-05
6.13571e-05
5.42007e-05
5.29006e-05
5.90454e-05
5.1253e-05
5.92959e-05
5.21297e-05
5.67364e-05
5.8887e-05
5.38453e-05
4.68084e-05
5.8083e-05
5.87642e-05
5.30637e-05
5.43925e-05
5.51557e-05
5.00096e-05
5.16979e-05
5.57197e-05
5.64884e-05
5.93715e-05
5.24796e-05
5.77872e-05
4.5919e-05
5.76632e-05
6.03386e-05
4.52688e-05
5.87497e-05
5.55352e-05
4.24015e-05
4.67019e-05
5.53499e-05
5.46073e-05
5.80031e-05
5.26612e-05
4.79762e-05
5.86633e-05
6.0135e-05
5.95392e-05
5.65625e-05
5.95224e-05
4.62759e-05
5.9159e-05
5.47209e-05
4.65642e-05
4.7226e-05
4.16824e-05
4.75891e-05
5.72654e-05
5.30939e-05
5.62339e-05
5.50114e-05
4.98305e-05
5.10173e-05
4.43838e-05
4.4327e-05
6.1212e-05
6.03851e-05
4.7818e-05
5.93884e-05
5.83834e-05
4.76925e-05
5.40717e-05
5.5433e-05
4.96115e-05
5.22268e-05
5.95815e-05
4.86103e-05
4.41264e-05
5.9628e-05
6.05181e-05
5.12427e-05
5.92887e-05
5.32853e-05
4.94317e-05
4.76545e-05
5.4463e-05
4.64563e-05
4.67995e-05
5.56001e-05
5.70768e-05
5.40446e-05
5.90891e-05
5.92083e-05
5.41692e-05
5.96312e-05
3.75142e-05
5.42643e-05
4.63604e-05
5.51271e-05
5.94855e-05
5.41006e-05
5.15223e-05
5.40988e-05
4.78149e-05
5.64809e-05
5.43676e-05
5.18151e-05
4.65739e-05
4.40511e-05
4.33867e-05
5.26491e-05
4.67127e-05
5.43501e-05
4.71283e-05
5.32832e-05
5.92266e-05
5.64154e-05
5.34687e-05
5.55688e-05
5.70596e-05
5.4436e-05
5.80709e-05
4.54231e-05
5.53802e-05
5.99021e-05
5.97171e-05
5.36026e-05
6.12655e-05
4.94353e-05
5.80461e-05
5.38456e-05
4.59133e-05
5.77464e-05
5.98478e-05
5.70785e-05
5.77331e-05
5.92328e-05
5.62096e-05
4.36932e-05
4.46368e-05
5.35824e-05
6.01823e-05
5.58558e-05
5.84788e-05
5.18622e-05
5.30928e-05
4.92763e-05
4.56032e-05
4.55446e-05
4.54741e-05
5.75372e-05
5.58397e-05
5.95675e-05
5.29123e-05
5.2625e-05
6.05271e-05
4.52417e-05
5.50575e-05
5.97756e-05
5.93667e-05
5.17952e-05
5.29129e-05
5.79393e-05
6.00051e-05
5.94546e-05
4.68288e-05
5.52981e-05
5.79781e-05
5.65103e-05
5.51884e-05
6.11863e-05
5.83278e-05
5.94722e-05
5.57286e-05
5.09653e-05
5.51424e-05
5.92645e-05
5.76429e-05
5.46807e-05
4.63499e-05
5.89621e-05
5.85602e-05
5.91637e-05
5.80606e-05
4.56173e-05
4.26665e-05
5.37844e-05
5.75477e-05
5.39672e-05
5.58561e-05
5.78864e-05
5.80919e-05
5.85315e-05
5.24362e-05
5.75866e-05
5.48307e-05
5.84031e-05
4.65548e-05
4.62883e-05
5.2686e-05
5.93179e-05
4.75931e-05
5.85701e-05
4.69386e-05
5.37318e-05
5.48206e-05
5.97957e-05
5.37491e-05
5.85939e-05
5.88181e-05
5.84761e-05
5.59303e-05
5.78169e-05
5.52132e-05
5.23158e-05
4.41344e-05
6.00902e-05
4.18524e-05
4.5178e-05
4.71594e-05
4.47378e-05
4.49404e-05
5.33029e-05
5.54224e-05
4.72964e-05
5.2145e-05
4.22494e-05
4.79823e-05
5.3172e-05
5.91629e-05
4.51307e-05
4.62829e-05
5.81154e-05
4.51991e-05
5.38882e-05
5.77605e-05
5.62832e-05
5.46128e-05
4.71786e-05
4.53823e-05
5.27036e-05
5.98993e-05
4.94985e-05
4.66856e-05
5.59672e-05
5.21591e-05
5.58463e-05
5.43016e-05
4.72066e-05
5.96126e-05
4.43616e-05
4.58252e-05
5.36021e-05
5.90615e-05
5.20146e-05
5.37011e-05
5.40638e-05
5.51701e-05
4.37299e-05
4.83187e-05
5.32099e-05
5.99167e-05
5.72669e-05
4.53736e-05
4.30169e-05
5.39302e-05
6.02013e-05
5.40699e-05
5.44694e-05
5.19154e-05
5.31374e-05
5.43338e-05
4.64265e-05
5.94096e-05
5.15496e-05
4.65202e-05
4.2704e-05
5.78361e-05
5.48082e-05
5.99133e-05
5.58976e-05
5.82318e-05
4.63131e-05
5.36069e-05
4.41047e-05
4.23463e-05
5.84084e-05
4.75729e-05
5.35382e-05
5.48654e-05
5.67949e-05
4.66368e-05
5.97091e-05
5.83026e-05
5.96249e-05
5.63945e-05
4.00748e-05
5.47567e-05
4.44625e-05
5.99962e-05
4.70513e-05
5.94969e-05
4.25615e-05
5.61064e-05
5.74039e-05
5.18686e-05
5.27855e-05
4.32739e-05
5.0791e-05
5.46962e-05
5.85102e-05
5.68994e-05
5.9265e-05
5.94419e-05
4.61981e-05
5.95744e-05
5.18416e-05
5.58113e-05
5.62426e-05
5.85448e-05
5.81472e-05
5.47273e-05
6.00387e-05
5.34845e-05
5.13097e-05
5.13473e-05
5.57879e-05
5.93142e-05
5.07498e-05
4.85963e-05
5.91387e-05
5.70711e-05
5.42703e-05
6.13663e-05
5.62966e-05
5.60546e-05
5.78146e-05
5.88511e-05
5.92329e-05
5.41858e-05
5.27016e-05
5.86473e-05
5.7746e-05
4.86029e-05
5.41495e-05
5.05812e-05
5.98904e-05
5.57764e-05
5.86091e-05
4.6961e-05
4.71394e-05
5.50489e-05
5.79718e-05
5.85786e-05
5.98985e-05
5.87329e-05
5.55076e-05
5.70998e-05
4.74979e-05
5.49773e-05
5.47828e-05
5.90966e-05
5.93808e-05
5.93004e-05
5.39471e-05
5.96563e-05
4.8336e-05
5.94595e-05
5.06585e-05
5.36367e-05
5.29058e-05
5.50266e-05
5.32304e-05
5.78256e-05
4.61742e-05
5.86665e-05
5.86321e-05
5.394e-05
4.72353e-05
6.03521e-05
5.73473e-05
5.9088e-05
5.42776e-05
5.50314e-05
5.78312e-05
4.59495e-05
5.94032e-05
5.38856e-05
5.54226e-05
5.03619e-05
5.0888e-05
5.00566e-05
4.57629e-05
5.20244e-05
6.03582e-05
5.54614e-05
4.46216e-05
5.6537e-05
4.54198e-05
5.58509e-05
5.5898e-05
4.40392e-05
4.54767e-05
5.11958e-05
5.54554e-05
5.79045e-05
5.2371e-05
5.77832e-05
5.40114e-05
5.00628e-05
5.15623e-05
5.95066e-05
5.93821e-05
5.9053e-05
5.74816e-05
5.64387e-05
4.63459e-05
4.71392e-05
5.97827e-05
5.30079e-05
5.53343e-05
5.83087e-05
6.08012e-05
5.51504e-05
5.65933e-05
4.38834e-05
5.81011e-05
5.87824e-05
5.21759e-05
5.96768e-05
5.91068e-05
5.61495e-05
5.229e-05
5.74322e-05
5.26049e-05
4.43267e-05
5.51484e-05
4.73561e-05
4.56793e-05
5.55592e-05
5.48612e-05
5.8357e-05
5.83114e-05
5.56511e-05
5.92422e-05
4.2685e-05
5.2303e-05
5.99802e-05
5.98744e-05
4.49371e-05
5.50332e-05
4.84906e-05
5.22405e-05
5.93139e-05
5.19146e-05
5.66766e-05
6.06292e-05
5.71522e-05
4.39496e-05
5.83584e-05
4.6297e-05
5.89271e-05
5.7501e-05
5.60597e-05
5.88702e-05
5.56645e-05
5.89409e-05
4.66518e-05
5.93717e-05
5.94836e-05
4.80538e-05
5.6421e-05
5.45524e-05
5.32523e-05
5.81798e-05
5.38637e-05
5.82891e-05
5.97455e-05
5.98221e-05
5.45819e-05
5.95011e-05
5.47221e-05
5.7429e-05
4.8927e-05
5.18554e-05
4.57355e-05
4.50092e-05
5.60243e-05
5.6731e-05
5.44594e-05
5.96097e-05
5.33261e-05
5.96624e-05
4.46455e-05
6.01609e-05
6.0035e-05
5.69347e-05
5.95407e-05
4.87482e-05
4.42452e-05
5.42246e-05
4.55203e-05
5.84546e-05
5.50172e-05
4.40696e-05
5.35291e-05
6.00136e-05
5.73205e-05
4.54933e-05
5.0116e-05
4.36946e-05
6.0398e-05
4.58051e-05
5.82358e-05
5.10344e-05
4.6523e-05
5.92147e-05
5.96845e-05
5.93485e-05
5.76504e-05
4.66898e-05
5.66745e-05
5.99809e-05
4.8203e-05
5.91196e-05
5.71111e-05
5.9663e-05
4.45271e-05
5.77113e-05
5.24477e-05
5.69724e-05
5.2401e-05
5.36436e-05
5.25765e-05
5.22223e-05
5.28138e-05
5.33944e-05
5.744e-05
5.41482e-05
5.99512e-05
4.84648e-05
5.404e-05
5.52646e-05
5.7881e-05
5.98263e-05
4.59813e-05
5.80012e-05
4.74519e-05
5.35717e-05
5.94985e-05
5.96055e-05
5.37268e-05
5.62461e-05
5.74782e-05
5.2506e-05
5.45194e-05
5.38076e-05
4.60373e-05
4.56031e-05
5.61602e-05
5.83466e-05
5.4676e-05
5.26686e-05
5.84367e-05
4.71766e-05
5.58647e-05
4.69671e-05
5.69834e-05
5.96483e-05
5.49096e-05
4.57134e-05
5.84625e-05
4.57821e-05
5.63637e-05
5.9265e-05
4.45979e-05
6.033e-05
4.81367e-05
5.22143e-05
5.34883e-05
4.58036e-05
5.13365e-05
5.24509e-05
4.3241e-05
5.90127e-05
5.99118e-05
4.20195e-05
5.18058e-05
5.73787e-05
5.56885e-05
5.6055e-05
6.04046e-05
5.8831e-05
5.37954e-05
5.05962e-05
4.48756e-05
4.34196e-05
4.91674e-05
6.01675e-05
5.827e-05
5.71479e-05
5.70317e-05
4.63018e-05
4.63889e-05
5.39448e-05
5.88262e-05
4.38332e-05
5.66115e-05
5.45335e-05
5.35532e-05
5.72389e-05
5.20556e-05
5.8134e-05
5.03584e-05
5.4549e-05
6.05081e-05
4.11043e-05
5.55445e-05
5.89484e-05
5.85629e-05
5.71657e-05
5.82315e-05
5.57054e-05
4.59602e-05
6.04905e-05
6.13626e-05
5.46302e-05
5.51559e-05
5.19382e-05
5.44165e-05
5.70965e-05
5.76906e-05
5.50846e-05
5.39241e-05
5.33776e-05
4.50837e-05
5.27584e-05
5.98329e-05
5.71276e-05
6.0981e-05
5.54512e-05
5.43966e-05
6.01242e-05
4.67369e-05
5.81101e-05
4.60803e-05
5.98661e-05
5.71816e-05
5.25368e-05
6.08824e-05
5.19999e-05
5.42494e-05
6.02445e-05
5.31239e-05
6.0052e-05
5.82062e-05
5.79331e-05
4.61111e-05
5.47595e-05
5.41224e-05
4.95177e-05
5.82253e-05
5.28591e-05
5.32127e-05
6.01646e-05
4.64778e-05
5.93064e-05
5.48506e-05
5.92605e-05
5.26892e-05
5.58952e-05
4.64135e-05
4.79118e-05
6.09119e-05
4.67512e-05
5.45784e-05
5.81406e-05
4.61037e-05
5.39265e-05
5.85135e-05
5.16772e-05
4.74792e-05
5.06816e-05
5.31083e-05
5.28703e-05
5.84925e-05
5.37811e-05
5.93261e-05
5.62092e-05
5.86918e-05
4.40107e-05
5.00058e-05
5.98385e-05
5.39528e-05
4.56553e-05
4.78791e-05
5.49255e-05
4.74325e-05
4.5935e-05
5.471e-05
5.38024e-05
5.9979e-05
5.27101e-05
5.83432e-05
5.89562e-05
5.85888e-05
5.83836e-05
5.83826e-05
5.25244e-05
5.1399e-05
5.80919e-05
5.38422e-05
5.24082e-05
5.96289e-05
5.43277e-05
4.51341e-05
4.51208e-05
5.37899e-05
4.7208e-05
5.71746e-05
5.81196e-05
5.21916e-05
5.85043e-05
5.81207e-05
5.78791e-05
6.10394e-05
5.43227e-05
4.64305e-05
5.24136e-05
5.28695e-05
5.83614e-05
5.24174e-05
5.71603e-05
5.96275e-05
5.36434e-05
5.22289e-05
5.53014e-05
5.93569e-05
5.73496e-05
6.21161e-05
5.85332e-05
5.39617e-05
5.49335e-05
4.82475e-05
5.25641e-05
5.9437e-05
4.89934e-05
5.97645e-05
5.22355e-05
5.82414e-05
4.57791e-05
5.74213e-05
5.47264e-05
5.8346e-05
5.41338e-05
5.66731e-05
5.43188e-05
5.84193e-05
4.46907e-05
4.80883e-05
5.47465e-05
5.19784e-05
5.57597e-05
5.48875e-05
5.50349e-05
5.94642e-05
5.61013e-05
4.49858e-05
5.09433e-05
4.60387e-05
5.57086e-05
5.46007e-05
4.70653e-05
6.12064e-05
5.47193e-05
5.38828e-05
5.7929e-05
5.00893e-05
4.75054e-05
5.96715e-05
4.73122e-05
4.53144e-05
5.24738e-05
5.17891e-05
4.80181e-05
5.09056e-05
5.94616e-05
5.83698e-05
5.24454e-05
5.55646e-05
5.8067e-05
5.46329e-05
5.78909e-05
4.49542e-05
5.88537e-05
3.87874e-05
5.82968e-05
4.65036e-05
4.59408e-05
5.8817e-05
4.52932e-05
5.39888e-05
5.63189e-05
5.84255e-05
5.19483e-05
5.62529e-05
5.25526e-05
5.41399e-05
5.19733e-05
5.72904e-05
5.57964e-05
5.8606e-05
5.46333e-05
4.69232e-05
5.73479e-05
5.38943e-05
5.37131e-05
5.34916e-05
4.85186e-05
5.06068e-05
4.44554e-05
4.5645e-05
5.4655e-05
5.33944e-05
4.81235e-05
5.20888e-05
5.86982e-05
5.93651e-05
5.93888e-05
3.76972e-05
4.50455e-05
5.93308e-05
4.59537e-05
5.78319e-05
4.52711e-05
5.89205e-05
5.86668e-05
5.85265e-05
4.67824e-05
5.36086e-05
5.98463e-05
5.96688e-05
5.61187e-05
5.95044e-05
5.42813e-05
5.58553e-05
5.40504e-05
4.61196e-05
5.60909e-05
5.14028e-05
5.47835e-05
5.45771e-05
4.93128e-05
5.35716e-05
5.92824e-05
5.09071e-05
5.09991e-05
4.5891e-05
5.75614e-05
5.75969e-05
4.35358e-05
5.43605e-05
5.44709e-05
5.67499e-05
4.68153e-05
5.51018e-05
5.44823e-05
6.04348e-05
4.45621e-05
5.42782e-05
5.38759e-05
4.40194e-05
5.85027e-05
4.71175e-05
4.79657e-05
5.64106e-05
5.94667e-05
4.43175e-05
5.86363e-05
5.6179e-05
5.3987e-05
4.46415e-05
5.95711e-05
5.95369e-05
4.41129e-05
5.46699e-05
4.35432e-05
4.72304e-05
5.94948e-05
5.26184e-05
5.58923e-05
5.87774e-05
5.9539e-05
5.29549e-05
5.18339e-05
5.38416e-05
5.34976e-05
5.56453e-05
5.19267e-05
5.89669e-05
4.65931e-05
5.20024e-05
5.45366e-05
5.31906e-05
5.71245e-05
5.36156e-05
5.67129e-05
5.74157e-05
5.46182e-05
5.9717e-05
5.72294e-05
5.30594e-05
5.09055e-05
5.75917e-05
5.30861e-05
5.1864e-05
5.69216e-05
5.98487e-05
5.74171e-05
5.78856e-05
5.13635e-05
5.73227e-05
5.12881e-05
4.63542e-05
5.42017e-05
5.63689e-05
4.64431e-05
5.66434e-05
5.35458e-05
4.23089e-05
4.56935e-05
5.77695e-05
4.44814e-05
5.34569e-05
5.80745e-05
5.62753e-05
4.63234e-05
5.6485e-05
6.07142e-05
4.71188e-05
4.62171e-05
4.67888e-05
5.88754e-05
5.43795e-05
5.38103e-05
5.9215e-05
4.55697e-05
5.70234e-05
5.46522e-05
5.9696e-05
6.0293e-05
4.04965e-05
5.48268e-05
5.72453e-05
5.83527e-05
5.53928e-05
5.3466e-05
4.69428e-05
5.61563e-05
5.97981e-05
5.10038e-05
4.44412e-05
5.29328e-05
5.86047e-05
5.66358e-05
4.57654e-05
5.37154e-05
5.78146e-05
5.88264e-05
5.38311e-05
5.35345e-05
4.3692e-05
4.66304e-05
4.63076e-05
5.49083e-05
5.31384e-05
5.57954e-05
5.9892e-05
5.89802e-05
4.86517e-05
5.84684e-05
5.89539e-05
5.63579e-05
5.21539e-05
5.83956e-05
5.29935e-05
4.74645e-05
5.20259e-05
5.53247e-05
5.5178e-05
4.99752e-05
5.67388e-05
5.28907e-05
5.86873e-05
4.7464e-05
4.44071e-05
5.28919e-05
5.96192e-05
5.80664e-05
5.22308e-05
5.32247e-05
5.82897e-05
5.89122e-05
5.22683e-05
5.28071e-05
5.85932e-05
6.0001e-05
5.72999e-05
5.96956e-05
5.78043e-05
5.69857e-05
4.48598e-05
5.3183e-05
4.63564e-05
5.7156e-05
5.86182e-05
5.19046e-05
4.61046e-05
5.99852e-05
4.58092e-05
5.11858e-05
4.8132e-05
5.43589e-05
4.49715e-05
5.65788e-05
5.42321e-05
5.40585e-05
5.50924e-05
4.87004e-05
5.92751e-05
4.71427e-05
5.69349e-05
5.48349e-05
5.36265e-05
4.5864e-05
5.83578e-05
5.66392e-05
4.74757e-05
4.95689e-05
5.34301e-05
5.26666e-05
5.57249e-05
4.44791e-05
5.59592e-05
5.28374e-05
5.4991e-05
5.12882e-05
5.08425e-05
5.0701e-05
4.48788e-05
5.88101e-05
5.46264e-05
2.51703e-05
4.71475e-05
5.49103e-05
5.91199e-05
5.78816e-05
4.79632e-05
4.71627e-05
5.88542e-05
4.63252e-05
5.78932e-05
5.94123e-05
5.60962e-05
4.75175e-05
5.86978e-05
4.54631e-05
4.38273e-05
4.39801e-05
5.69834e-05
5.37702e-05
5.22057e-05
5.9818e-05
5.71533e-05
5.55492e-05
4.78601e-05
4.25471e-05
6.01688e-05
5.483e-05
6.05225e-05
5.8387e-05
4.64402e-05
5.37097e-05
5.4366e-05
5.19469e-05
5.42758e-05
5.14579e-05
5.30903e-05
6.24421e-05
5.54068e-05
5.22466e-05
4.6325e-05
5.61751e-05
5.37715e-05
5.73516e-05
5.26225e-05
4.5873e-05
4.72795e-05
5.65806e-05
5.68172e-05