/*--------------------------------*- C++ -*----------------------------------*\
| =========                 |                                                 |
| \\      /  F ield         | OpenFOAM: The Open Source CFD Toolbox           |
|  \\    /   O peration     | Version:  2212                                  |
|   \\  /    A nd           | Website:  www.openfoam.com                      |
|    \\/     M anipulation  |                                                 |
\*---------------------------------------------------------------------------*/
FoamFile
{
    version     2.0;
    format      ascii;
    arch        "LSB;label=32;scalar=64";
    class       volScalarField;
    location    "0.03";
    object      p;
}
// * * * * * * * * * * * * * * * * * * * * * * * * * * * * * * * * * * * * * //

dimensions      [0 2 -2 0 0 0 0];

internalField   nonuniform List<scalar> 
31639
(
0.0140605
0.00980419
0.0160965
0.0071911
0.00988835
0.0138068
0.0154367
0.0147146
0.0104686
0.00893181
0.0153457
0.00997372
0.0103623
0.0134718
0.0117358
0.0164502
0.0190644
0.0195092
0.0032072
0.0149655
0.0108822
0.0084185
0.0114706
0.00709719
0.0123028
0.0145629
0.0141664
0.0446877
0.0147968
0.0147587
0.00793606
0.021063
0.0105088
0.00570577
0.0256099
0.0147062
0.00846309
0.0153284
0.015318
0.0125441
0.0100411
0.014354
0.0112341
0.0155984
0.0160592
0.00671936
0.0100526
0.0079556
0.0171954
0.00722826
0.00667374
0.00536719
0.0260349
0.0159187
0.00522008
0.0194864
0.00857112
0.014244
0.00981727
0.00684501
0.00752663
0.0143939
0.0119264
0.014665
0.0258496
0.0042305
0.00260014
0.00821392
0.010157
0.00636056
0.00906762
0.0192026
0.00883814
0.00380257
0.0261822
0.0208358
0.00906484
0.00840362
0.00973322
0.00920186
0.0140131
0.0134377
0.0132411
0.0073914
0.0130976
0.0121568
0.0112732
0.00794607
0.00255561
0.0105871
0.00601586
0.0191053
0.00704961
0.00937709
0.00449251
0.0141573
0.00765539
0.00541274
0.0102598
0.0135976
0.0241855
0.0241806
0.0123312
0.00938365
0.00521458
0.00652176
0.0137707
0.00692653
0.0080045
0.0124566
0.0153877
0.0134404
0.014354
0.00845861
0.00377343
0.014993
0.0256865
0.0158778
0.0243052
0.00756064
0.0212646
0.0065539
0.00340253
0.00721283
0.0137212
0.0134584
0.00972096
0.00731675
0.00892485
0.0108113
0.0254487
0.0011278
0.0162686
0.00383343
0.00459166
0.00818628
0.00856169
0.00937751
0.00672482
0.00750756
0.00744873
0.0110518
0.0120413
0.00689782
0.0100707
0.0131072
0.0244751
0.00853891
0.0126598
0.0261344
0.00766714
0.0175709
0.00549797
0.00494143
0.00641528
0.00491811
0.00361302
0.0090144
0.0171442
0.00812805
0.00448224
0.0192533
0.00862589
0.0143203
0.0204578
0.0205286
0.0159507
0.0179087
0.00563652
0.00392385
0.0182736
0.0134798
0.0182472
0.0104666
0.013005
0.00877366
0.0117729
0.0211821
0.00821422
0.0123944
0.0102922
0.0169258
0.014402
0.0149924
0.0150556
0.0146877
0.0176545
0.0123894
0.0134938
0.0167014
0.017003
0.00890185
0.0172695
0.00527988
0.00599883
0.00624981
0.00602117
0.00955302
0.00615159
0.0151978
0.0127765
0.0193337
0.0169472
0.0179433
0.0087457
0.00731113
0.00305826
0.00518308
0.0215855
0.00590629
0.0058842
0.0125486
0.0243291
0.0130093
0.0156577
0.0131171
0.013167
0.0131094
0.0183492
0.00984252
0.010185
0.0125187
0.0132472
0.0183655
0.0159772
0.00913149
0.0165051
0.0161281
0.0114357
0.0209504
0.00553188
0.0151714
0.0192582
0.0166873
0.0171569
0.00293821
0.00271203
0.0174729
0.0143834
0.00520591
0.00740562
0.0157477
0.0182959
0.017208
0.00760792
0.0197273
0.00583524
0.0204098
0.0166578
0.0029688
0.000859449
0.00672737
0.0170735
0.0195961
0.00951741
0.0101904
0.0142469
0.00440709
0.0140779
0.016282
0.00681515
0.00548137
0.00953803
0.0134794
0.00966264
0.0130653
0.00216816
0.0247742
0.0155219
0.0138916
0.0317201
0.00647598
0.0141629
0.0175425
0.00845013
0.0165434
0.0060272
0.0184246
0.00819655
0.00673213
0.0206393
0.0212187
0.0210902
0.0279976
0.0151191
0.0151576
0.0184549
0.0176143
0.00336164
0.0169832
0.0189171
0.00152653
0.00546915
0.00549961
0.0160115
0.00473348
0.019158
0.00255929
0.00753782
0.00868993
0.00808218
0.0183698
0.00583965
0.00525464
0.0117022
0.00470612
0.0133523
0.00311303
0.0112968
0.018477
0.00781501
0.0309215
0.0247588
0.0109785
0.0101015
0.0142029
0.00272574
0.0213594
0.0165641
0.0162798
0.0156412
0.00654574
0.0238923
0.00485836
0.0128696
0.0174726
0.0156934
0.0176433
0.00568284
0.00657509
0.00681943
0.00718435
0.0186863
0.00537764
0.0193174
0.0257229
0.0263345
0.00816035
0.0179033
0.0201684
0.00458672
0.00225367
0.0196405
0.00412668
0.00588924
0.0182157
0.00498792
0.0160834
0.0159047
0.0239482
0.0089838
0.018388
0.00897834
0.0170047
0.00521097
0.00685328
0.00582965
0.0117487
0.0119385
0.0176159
0.0193287
0.0118792
0.0308197
0.00336623
0.0082399
0.00744283
0.0039902
0.0118687
0.0127113
0.0176519
0.0115335
0.0215909
0.0135197
0.00635668
0.00428693
0.00715294
0.024811
0.0207343
0.0173386
0.0216766
0.0164111
0.00536875
0.00802684
0.00535635
0.00493347
0.00468364
0.00576174
0.00992275
0.000535838
0.0197786
0.00294141
0.0219332
0.00583392
0.0183283
0.00508556
0.0187705
0.0199012
0.0150109
0.00719601
0.0290797
0.0195106
0.0153244
0.0146781
0.00490895
0.0172804
0.00268248
0.00763039
0.0077145
0.00799993
0.015068
0.00661173
0.00774878
0.0171654
0.0318773
0.0157716
0.017336
0.0126913
0.0135579
0.0121487
0.0101057
0.00974837
0.0239208
0.0115808
0.00103865
0.0172411
0.0314534
0.0111856
0.0234114
0.0135104
0.0160971
0.00705741
0.00583666
0.0183612
0.00666733
0.0146502
0.0146681
0.017873
0.00438675
0.0054064
0.0191003
0.00809882
0.00286113
0.00343731
0.0132096
0.00458668
0.0082134
0.00865174
0.0200176
0.0195882
0.0211715
0.0199573
0.0173965
0.0084697
0.0178151
0.00802913
0.0189879
0.0213195
0.00660391
0.0174535
0.00734606
0.0143508
0.0205154
0.0135786
0.00367735
0.0167965
0.0466875
0.0036436
0.0109665
0.0074412
0.0163084
0.00210912
0.00566381
0.00676166
0.00563031
0.0178124
0.0014496
0.0113118
0.023026
0.0101565
0.0117833
0.00683869
0.0250396
0.0044027
0.00930821
0.0239365
0.0307875
0.0111708
0.0159925
0.0130218
0.00868717
0.00673182
0.00515779
0.0210042
0.00244151
0.0138602
0.0133289
0.0126137
0.00380418
0.00576549
0.020194
0.0228052
0.00293803
0.00333802
0.00374636
0.00219992
0.0269103
0.00773322
0.00321075
0.0214932
0.0239155
0.0213693
0.00451989
0.0192602
0.0179109
0.0203528
0.00231592
0.0239181
0.0239797
-0.000353448
0.0207606
0.0200482
0.0208776
0.0132829
0.0222786
0.000992094
0.00364818
0.0202868
0.00302771
0.00367644
0.00622233
0.0151116
0.0102087
0.0187087
0.00126637
0.00667165
0.010719
0.0224894
0.0014545
0.0178211
0.00275797
0.0311389
0.0314869
0.00743215
0.0449774
0.00763857
0.00760879
0.0123784
0.0127156
0.00880301
0.0120856
0.032375
0.00888278
0.0174877
0.000739742
0.00792962
0.0122862
0.00696264
0.0199855
0.00154231
0.00478841
0.0120383
0.00431934
0.010906
0.0111246
0.00600718
0.0252381
0.00437396
0.00310533
0.000494302
0.0140279
0.0229702
0.00346384
0.000732359
0.00424103
0.00470017
0.00366402
0.0213635
-1.58374e-05
0.00145316
0.00100644
0.0191838
0.00241474
0.0201049
0.0205647
0.0214364
0.00629326
9.03138e-05
0.000338052
0.00326651
0.000964801
0.0131776
0.00114712
0.0131597
0.0208717
0.00177543
0.00766131
0.0102792
0.0250929
0.0231809
0.0181848
0.00870848
0.00418893
0.0241036
0.0207325
0.00195145
0.00214044
0.00895138
0.015135
0.00623443
0.00136691
0.000128137
0.00105864
0.0200263
0.0167561
0.007685
0.0460405
0.016487
0.0128154
0.00888024
0.0138437
0.0177866
0.0176485
0.0123428
0.0078853
0.00989297
0.0102398
0.016768
0.00385854
0.0120267
0.00143029
0.0131052
0.0305271
0.0212214
0.0196008
0.0145582
0.0115119
0.0277698
0.0129329
0.0155029
0.00686398
0.0246348
0.023239
0.00341229
0.0127276
0.0144508
0.000280469
0.0282266
0.00778104
0.00132826
0.00379538
0.00216619
0.0250768
0.0228968
0.0233652
0.00352565
0.000137819
0.0198151
0.0133391
0.0209071
0.0215703
0.0215843
0.00140976
8.19102e-05
0.0205072
0.0178487
0.0184353
0.0216128
0.00121854
0.00773275
0.0316891
0.00448409
0.00252809
0.0222023
0.0125719
0.00532167
0.0202294
0.0199221
0.0161994
0.00938521
0.00623123
0.0147335
0.00847984
0.000459464
0.000819289
0.00166459
0.00625547
0.00238447
0.0251141
0.00894513
0.000689154
0.000769402
0.019223
0.00680145
0.000846304
0.0464996
0.00630972
0.00753726
0.0101277
0.01144
0.00970009
0.0123903
0.0117188
0.00786273
0.00903361
0.0130379
0.00829954
0.00775712
0.00880198
0.0116207
0.0221375
0.0125493
0.0118586
0.0194369
0.0251401
0.0211706
0.00593364
0.0116687
0.00337007
0.0132066
0.0259738
0.00100733
0.00241968
0.00217638
0.00673332
0.00779957
0.0192951
0.0184412
0.0055007
0.00226591
0.0150585
0.0250008
0.000639818
0.0205573
0.00817299
0.0189402
0.0174172
0.0183164
0.0236358
0.0220229
0.0283861
0.0201297
0.0168614
0.0209975
0.0189289
0.0195696
0.0070468
0.024648
0.00693236
0.00182925
0.00462301
0.0191319
0.0001162
0.0158648
0.00375343
0.00523705
0.015904
0.00956013
0.0237715
0.00444034
0.0166486
0.00539346
0.0273724
0.00789289
0.000787948
0.00115665
0.022348
0.0149342
0.00101631
0.00246856
0.00144331
0.00477418
0.000658543
0.000330214
0.0188145
0.0182126
0.000245154
0.01828
0.0161799
0.0195537
0.0107199
0.0106229
0.00858567
0.0137549
0.0143942
0.0067167
0.00108735
0.012607
0.0172531
0.0127511
0.0236579
0.0211582
0.0126408
0.0205297
0.00782717
0.0317609
0.00372299
0.0207362
0.0124061
0.00012554
0.0141107
0.00361451
0.00752
0.00313998
0.00316564
0.0158775
0.0224981
0.00553258
0.0199162
0.000930869
0.000984179
0.000962221
0.0262116
0.0263625
0.02507
0.0269823
0.0222555
0.0205574
0.00691263
0.00448488
0.00763341
0.00201757
0.0146785
0.00658124
0.0172924
0.00957233
0.00766138
0.00239892
-0.000117163
0.00559707
0.00298998
0.0233882
0.0101822
0.00550231
0.00527865
0.00978325
0.000986326
0.0164314
0.00534155
0.0205668
0.00396817
0.00270146
0.0135315
0.0134698
0.0209127
0.0248951
0.0218262
0.0166296
0.00936894
0.0101663
0.0197774
0.0001703
0.00107935
0.0194559
0.019881
-0.000109861
0.000458312
0.0028276
0.0196059
0.00517973
0.0119228
0.0252961
0.0246505
0.0125724
0.0295389
0.0095069
0.00823018
0.00847771
0.00549135
0.00341218
0.0206501
0.00350284
0.0126254
0.0152868
0.0233059
0.00735652
0.00847672
0.00808758
0.0187553
0.0190011
0.0190567
0.0270455
0.00252959
0.0219335
0.0216318
0.0220768
0.0119846
0.000450971
0.0259229
0.0267377
0.0246325
0.0145321
0.0153634
0.0167899
0.0156516
0.0186398
0.0143451
0.000573032
0.0196281
0.00913779
0.00626693
0.0199626
0.00152438
0.000902199
0.00348805
0.00326416
0.0239171
0.00962082
0.00354485
0.0049208
0.00867713
0.0176985
0.00831078
0.00763245
0.0159773
0.0111894
0.000336462
0.0205906
0.013046
0.0216257
0.0109182
0.00227115
0.0167746
0.0166574
0.000822773
0.00962155
0.00896932
0.000689117
0.000831193
0.0204068
0.0234406
0.00945806
0.0122026
0.00142322
0.0217052
0.0270333
0.0226447
0.0156284
0.00731799
0.0211461
0.0160021
0.00848076
0.0117778
0.00655676
0.00665958
0.0105778
0.0200828
0.00364403
0.0131333
0.00830996
0.00749969
0.000250842
0.0224369
0.00881657
0.023169
0.00639972
0.0189697
0.0219172
0.0108956
0.0109584
0.0228571
0.0185131
0.0208
0.00806693
0.0093607
0.0184041
0.017574
0.0139357
0.0147537
0.0214319
0.0219316
0.0288493
0.0169762
0.0191591
0.00123535
0.000830413
0.0196327
0.0179226
0.00920946
0.0212824
0.00307119
0.0150183
0.0167168
0.020968
0.00259697
0.0215124
0.0195582
0.0233241
0.0221504
0.0231686
0.0109442
0.019914
0.00884586
0.0152944
0.0148576
0.0141178
0.0240807
0.0223132
0.0216043
0.0182668
0.0099168
0.012926
0.0142436
0.021938
0.0140775
7.17038e-05
0.0228623
0.0251609
0.0118785
0.0100472
0.00421235
0.00304124
0.00836575
0.0221551
0.00695213
0.00744525
0.0272733
0.0111382
0.0041546
0.00571361
0.000508599
0.0106227
0.0120389
0.0109456
0.0204212
0.000756852
0.023649
0.00210199
0.0229907
0.0222188
0.0271283
0.0104719
0.0107531
0.00918226
0.0172104
0.015294
0.0179503
0.0276222
0.0201084
0.0213105
0.0140862
0.0171532
0.0101716
0.0180247
0.0156387
0.0034214
0.00308688
0.0126227
0.00103175
0.00899621
0.0238145
0.0250892
0.00458941
0.0230558
0.0150068
0.0242321
0.0132751
0.0136575
0.00184854
0.00101304
0.0176343
0.0159276
0.00769735
0.0101273
0.00955969
0.0147823
0.0102317
0.0199967
0.0214476
0.0274608
0.0211219
0.0228115
0.0138232
0.00973734
0.011381
0.00102272
0.00194674
0.00374662
0.0100279
0.00904296
0.0158634
0.00934306
0.0167154
0.0189291
0.0209701
0.00968224
0.00603858
0.0281103
0.014717
0.0251185
0.0247989
0.0110624
0.0253362
0.00258724
0.0213158
0.00640049
0.0120711
0.00481714
0.0093577
0.0104555
0.0240231
0.024421
0.000761373
0.0219864
0.0262052
0.0299903
0.00977336
0.0184744
0.0212171
0.0215521
0.00869791
0.00937793
0.0199884
0.0302569
0.0199021
0.00369213
0.0176026
0.0295858
0.0171199
0.016939
0.0163888
0.00814714
0.0248048
0.021427
0.0250158
0.00220116
0.0178394
0.00149328
0.0147866
0.0209832
0.00449322
0.0210963
0.00648531
0.0200841
0.0273258
0.0118238
0.000609703
0.0133463
0.0143263
0.00081926
0.0088572
0.00899891
0.0141376
0.0103261
0.0287951
0.0230298
0.00906886
0.00896299
0.0223013
0.0125438
0.0212021
0.0279376
0.0215981
0.000776102
0.000745299
0.0228516
0.0198403
0.0139205
0.0154709
0.0177548
0.0146947
0.0152688
0.024967
0.0219051
0.0263031
0.0197437
0.0172997
0.00247571
0.0253299
0.00334022
0.00959093
0.0236609
0.0253255
0.0204579
0.010711
0.00957129
0.000531574
0.0221608
0.0137294
0.0234679
0.0129091
0.0248343
0.0263237
0.0166182
0.0177445
0.0106159
0.00518978
0.0287105
0.0137013
0.017595
0.0136621
0.0126185
0.0182799
0.0290708
0.0168126
0.0158065
0.0312387
0.00273269
0.0245505
0.0151613
0.0302379
0.0156862
0.0126281
0.0243753
0.0249576
0.00450612
0.00936081
0.00521564
0.00641139
0.0215738
0.0114603
0.0124408
0.000529554
0.00996245
0.036171
0.010214
0.0106957
0.0147461
0.015217
0.0143868
0.0227264
0.023292
0.0168742
0.0090394
0.0230646
0.012958
0.0239013
0.021395
0.0215769
0.0238039
0.0243249
0.0223391
0.00854346
0.000717701
0.0255339
0.00773958
0.0268657
0.0299476
0.0280524
0.0102366
0.0256365
0.0172066
0.00274699
0.00225723
0.00376447
0.0228919
0.0237346
0.0235759
0.0218776
0.0261339
0.0106782
0.0088667
0.0239888
0.0266112
0.0126876
0.0236256
0.0253783
0.0168371
0.00977441
0.0288521
0.0257604
0.0221784
0.0179774
0.022981
0.0188055
0.0247651
0.002088
0.0186785
0.0221776
0.025379
0.0181335
0.0240967
0.0120881
0.0303805
0.0189677
0.00254493
0.0229965
0.00552848
0.000166338
0.0052223
0.0181192
0.0154271
0.0179159
0.0230019
0.0249939
0.00948349
0.0197815
0.0113021
0.0153918
0.0145573
0.014362
0.00884058
0.0235144
0.0157785
0.0163567
0.0232953
0.0163605
0.00816087
0.007838
0.0164342
0.0172485
0.015704
0.021897
0.0223971
0.00130871
0.0154863
0.0233182
0.0222589
0.0160952
0.0164481
0.0135383
0.0168048
0.0293779
0.00146391
0.00807624
0.0244778
0.00379487
0.0108051
0.0116875
0.0111525
0.0272612
0.0289034
0.00362824
0.0295562
0.0262892
0.0188517
0.0188079
0.0267204
0.0194831
0.0246998
0.0231946
0.00466158
0.0103248
0.0281135
0.000523708
0.000815461
0.0268585
0.0250525
0.00436619
0.0265737
0.0195338
0.0171381
0.0111276
0.0252233
0.0246264
0.0089543
0.0233218
0.0216822
0.019073
0.0170364
0.00106181
0.00182538
0.00128405
0.0196303
0.0225272
0.0145097
0.0256361
0.0284037
0.0140254
0.0124528
0.00874243
0.00523627
0.0310875
0.000145504
0.00358134
0.0112065
0.00138039
0.000316012
0.000590198
0.0119573
0.00876596
0.0010955
0.0386262
0.024427
0.0184868
0.0285966
0.0159649
0.0306855
0.00501468
0.00987712
0.0103207
0.029529
0.029613
0.0160215
0.00839345
0.0168202
0.0151808
0.0198426
0.0184122
0.0191732
0.0224465
0.00167858
0.0239462
0.0241934
0.0243844
0.0236945
0.0198908
0.0196151
0.0151118
0.0139062
0.0254828
0.022108
0.00715117
0.00558517
0.0149956
0.0214685
0.0286475
0.00696017
0.00805396
0.00835934
0.0213758
0.027044
0.0284517
0.0279203
0.00228024
0.00137329
0.0265712
0.000859406
0.0261271
0.0271902
0.00551691
0.0076492
0.00344025
0.025418
0.00966485
0.0223298
0.0175316
0.017638
0.027435
0.027957
0.0125893
0.0307053
0.0304034
0.0207053
0.0190205
0.000113025
0.000763233
0.0211409
0.0191373
0.0231286
0.0300308
0.0456862
0.03062
0.0241217
0.0306246
0.0242855
0.0030304
0.0223957
0.0258257
0.00350335
0.0242347
0.00592984
0.000675475
0.0237398
0.00084994
0.0110801
0.0120327
0.011907
0.0109724
0.000533618
0.00235221
0.00757529
0.0290877
0.0271009
0.0196598
0.0116955
0.0147849
0.00935168
0.0117532
0.00868311
0.0113642
0.011143
0.0100559
0.0207827
0.0178138
0.0238927
0.0176788
0.0239229
0.00168363
0.0234228
0.00124286
0.0309347
0.0241436
0.0157957
0.0198871
0.00965971
0.0126671
0.00441542
0.00325227
0.00775877
0.00523569
0.0143112
0.0234205
0.0109612
0.0183595
0.0167508
0.00659532
0.0164864
0.0289936
0.00165575
0.00374691
0.00157201
0.0191315
0.0272716
0.0220622
0.00714863
0.00563974
0.0268763
0.00347046
0.0269631
0.0255263
0.0464877
0.0270741
0.0267676
0.0305656
0.0286619
0.0275394
0.0214908
0.00553616
0.0222194
0.00527646
0.022772
0.0235646
9.5538e-06
0.0288065
0.0134595
0.00269745
0.022606
0.0284743
0.0222657
0.025561
0.0222904
0.0112898
0.0137993
0.0214573
0.0242217
0.0265001
0.0284405
0.000876173
0.00377082
0.0181204
0.0240034
0.0225418
0.0199612
0.0209991
0.00155459
0.0199664
0.0107743
0.0113041
0.0110007
0.00959775
0.0127279
0.0153494
0.000655147
0.0244771
0.0255161
0.0215522
0.00143734
0.0253541
0.0154171
0.0162343
0.0183307
0.0191381
0.0223289
0.0174562
0.0393161
0.0044982
0.0159121
0.0247546
0.0190966
0.0191014
0.00371609
0.0173834
0.0271668
0.0305017
0.0223664
0.0102676
0.0263734
0.0094209
0.0176001
0.0280953
0.0296349
0.0176081
0.0299424
0.0296771
0.029488
0.0274784
0.0186114
0.0285928
0.0270473
0.0237021
0.0106335
0.0213524
0.00841962
0.00234864
0.0218845
0.00693021
0.027868
0.0283994
0.027665
0.0257428
0.0163263
0.0259163
0.0292708
0.00915733
0.00644335
0.0126886
0.031393
0.0213857
0.020579
0.00529976
0.00462146
0.024719
0.00158489
0.0150113
0.0307464
0.0264217
0.0225056
0.0232344
0.0139527
0.0123341
0.00326654
0.023925
0.000364973
0.00873387
0.0267919
0.00119398
0.00334081
0.00516883
0.00682109
0.00401409
0.0189107
0.0212191
0.0247489
0.016243
0.00999754
0.0358115
0.00995149
0.0114944
0.0122519
0.0257986
0.0232882
0.02925
0.0263578
0.00827591
0.0147036
0.0143006
0.0142779
0.0166622
0.020212
0.0202811
0.0235962
0.0224635
0.0209702
0.015431
0.011465
0.0116525
0.00287103
0.022176
0.0264085
0.00944638
0.00391224
0.0396172
0.0149562
0.0270721
0.0182208
0.0274416
0.0329137
0.0212947
0.00957198
0.00813619
0.0175487
0.0291856
0.0279085
0.00722831
0.0310006
0.000299931
-0.000203074
0.0267542
0.02983
0.0149172
0.0123457
0.0250087
0.00641732
0.0279361
0.0301443
0.0121418
0.0246315
0.0255924
0.0380435
0.00690015
0.0288397
0.0169249
0.0176476
0.024268
0.0289381
0.00328873
0.0226345
0.030981
0.0301575
0.0322695
0.00692432
0.0253094
0.0246638
0.0035662
0.0199922
0.0288855
0.0206778
0.0029356
0.00899035
0.019065
0.00625678
0.0209293
0.00890958
0.000778638
0.00100866
0.0127391
0.00367081
0.0274943
0.0160835
0.00707472
0.0123019
0.0285229
0.0285917
0.0253048
0.0264843
0.0281124
0.0162207
0.00293281
0.0060935
0.0140471
0.0239792
0.0240555
0.0247089
0.025001
0.0171078
0.0167581
0.0151696
0.0208022
0.0184729
0.0185951
0.0200603
0.0303726
0.0218918
0.0240481
0.0205206
0.0227599
0.0224977
0.0114005
0.022084
0.0172901
0.0106916
0.0155353
0.0350599
0.017498
0.0390496
0.0230986
0.0067266
0.0104152
0.0203278
0.0331941
0.0186647
0.0176279
0.0079364
0.0232063
0.000766087
0.00201203
0.000390846
0.0288724
0.0286459
0.0290727
0.0149573
0.0314279
0.00560678
0.0297964
0.0302086
0.0290232
0.00304665
0.0331441
0.0292829
0.00225453
0.0310046
0.0176395
0.0184945
0.01739
0.0241654
0.026249
0.0215461
0.0226618
0.0239704
0.0148688
0.0143363
0.00371875
0.0301784
0.0237484
0.0271576
0.0207314
0.0264122
0.0295452
0.010988
0.0284022
0.00292759
0.021221
0.0100635
0.00117232
0.000188772
0.0127897
0.0265656
0.0100518
0.0242651
0.0246787
0.00833825
0.0259241
0.00969829
0.0311313
0.0246621
0.0306925
0.0231408
0.0125764
0.0244142
0.0255601
0.0283682
0.00655848
0.0251498
0.0251502
0.0263596
0.0283412
0.0202304
0.0267433
0.0215516
0.00293222
0.0256274
0.00650953
0.0191447
0.0201936
0.0138736
0.0221323
0.0334788
0.0169165
0.0156432
0.0164841
0.0114656
0.0214666
0.0079952
0.0142763
0.0263091
0.0124932
0.0248214
0.00746032
0.0265512
0.0221486
0.00693042
0.0187718
0.0276284
0.00731198
0.0217798
0.0143315
0.00196679
0.000222741
0.00199765
0.0277691
0.0182412
0.0207998
0.0158641
0.0155448
0.0278684
0.0302326
0.0292558
0.0221897
0.028821
0.0235533
0.0304847
0.0160334
0.031059
0.0308654
0.0308486
0.0298734
0.0290504
0.00351205
0.0243936
0.0291153
0.0222223
0.0200709
0.0324043
0.029171
0.0146769
0.0302723
0.00307287
0.027515
0.028758
0.0201187
0.01919
0.0260346
0.0272368
0.0259447
0.00129919
0.0303231
0.0228777
0.00866171
0.000473038
0.0300274
0.00924475
0.00388416
0.00252463
0.000353671
0.0215108
0.00686136
0.0361192
0.0109754
0.0258513
0.0138541
0.0105217
0.0151101
0.0252809
0.0108261
0.0299714
0.0249431
0.0146727
0.0280557
0.0250704
0.0215324
0.0336298
0.0227207
0.0288814
0.018578
0.0311571
0.0184819
0.0183601
0.00390236
0.0233682
0.0221159
0.0234748
0.027016
0.0197874
0.0312563
0.0233876
0.0227303
0.0031972
0.00701725
0.0313968
0.0165258
0.00614973
0.0166579
0.0414297
0.0100669
0.0324374
0.00755482
0.0014809
0.0124812
0.0129644
0.0115244
0.0214651
0.00665364
0.0200156
0.0250682
0.0179027
0.00599645
0.00649871
0.0293829
0.00185825
0.0218737
0.0203497
0.0135191
0.0274218
0.0327251
0.0142481
0.0273928
0.0256308
0.022692
0.000463401
0.0221266
0.024729
0.0292403
0.0298712
0.0337476
0.0313287
0.00391343
0.00260165
0.0316188
0.00380532
0.0283755
0.0303664
0.0281618
0.00612487
0.0346751
0.0133392
0.0251312
0.0301883
0.0272572
0.0280745
0.026958
0.0256627
0.0234787
0.0138033
0.0257626
0.0194799
0.00228418
0.012783
0.0281969
0.025646
0.0332397
0.0350625
0.00179986
0.0183012
0.00300605
0.00572393
0.0295097
0.0056563
0.00483379
0.0310067
0.0071578
0.0120843
0.0178597
0.0299213
0.00032365
0.0292512
0.0251864
0.013897
0.0287776
0.0306189
0.0158633
0.0288416
0.0233638
0.0309996
0.0287727
0.0283107
0.020902
0.0320905
0.0223363
0.00651768
0.00686193
0.0311671
0.0232039
0.0284825
0.03461
0.0256281
0.0273309
0.0341162
0.00684567
0.0309914
0.0302628
0.0311091
0.0170625
0.0448197
0.00526437
0.00880516
0.0138045
0.0127498
0.0336332
0.0101678
0.0246874
0.0195961
0.0204592
0.0191337
0.00698637
0.0125893
0.00819219
0.0292499
0.00138394
0.0311508
0.0317331
0.0321434
0.0151886
0.0266543
0.0398091
0.0247568
0.0022405
0.0285198
0.0096132
0.0119994
0.0327624
0.0153763
0.0323531
0.0328997
0.0220137
0.00354196
0.0291932
0.0280466
0.0290692
0.0216264
0.0287361
0.0287025
0.027715
0.0244658
0.0251933
0.0259291
0.026061
0.0214321
0.0199521
0.00199561
0.0298966
0.0180947
0.0193851
0.0211526
0.0107756
0.00905027
0.0360353
0.0280346
0.0256677
0.0326716
0.0337891
0.0126829
0.00520762
0.00876388
0.0353549
0.0182267
0.00932058
0.0302206
0.0079057
0.0263482
0.0151369
0.006659
0.00637027
0.0247391
0.0143905
0.027114
0.00112523
0.0238807
0.0025162
0.0258639
0.0148141
0.0216145
0.0221715
0.0210305
0.0272152
0.0263803
0.0297243
0.0091904
0.0406416
0.0392228
0.0344709
0.0237141
0.0234562
0.0182761
0.0248198
0.0277358
0.029143
0.0333267
0.000113212
0.0129752
0.0143502
0.0440421
0.029849
0.00371194
0.0307205
0.00379348
0.017533
0.0201174
0.0123106
0.00898344
0.0346426
0.0280636
0.00956495
0.0189036
0.0357601
0.012202
0.00754029
0.000638494
0.0174608
0.0026098
0.0321775
0.00761856
0.0341538
0.040564
0.0104242
0.0284662
0.000385468
0.000410803
0.00990937
0.0329678
0.0329411
0.0313991
0.0278656
0.00209904
0.0214987
0.0461291
0.0206105
0.0277164
0.026427
0.0274523
0.0278409
0.0220459
0.0305158
0.0270315
0.00951099
0.00235612
0.00266115
0.00267572
0.0259242
0.0289848
0.016245
0.0289336
0.00685037
0.00710197
0.0080733
0.024965
0.0337954
0.0333402
0.0349946
0.0197625
0.00985519
0.0306908
0.00932793
0.0248308
0.0269415
0.0279183
0.0152196
0.0306515
0.0138879
0.0254021
0.0263764
0.0252304
0.0133522
0.0189316
0.046866
0.0118137
0.00302948
0.0240618
0.0205875
0.0256823
0.0165999
0.0193439
0.0208712
0.0222743
0.0184321
0.0268745
0.0389357
0.019982
0.0301755
0.013916
0.0247448
0.0188498
0.0238746
0.0259394
0.0244948
0.0330492
0.0047087
0.0324375
0.0214642
0.00103675
0.0140887
0.0340345
0.0304653
0.0180228
0.00429161
0.0275351
0.00997358
0.0349839
0.0100265
0.0285035
0.02697
0.0317608
0.0240683
0.0292766
0.0199965
0.00337554
0.0262269
0.00302383
0.0318736
0.000315451
0.00109072
0.00668674
0.00244109
0.0218006
0.00115565
0.0352919
0.0355431
0.0298398
0.0307172
0.0334419
0.033495
0.0323746
0.0328149
0.00918792
0.0357247
0.0322637
0.00713705
0.0305719
0.0376068
0.0210801
0.000122014
0.0294471
0.0320214
0.027528
0.0256626
0.0289481
0.0344404
0.00328475
0.0303166
0.001503
0.000821505
9.66741e-05
0.0264018
0.018688
0.00816324
0.0153373
0.0300148
0.0442371
0.0210534
0.0274423
0.0281656
0.0342461
0.00277996
0.04653
0.0315821
0.00919802
0.0224351
0.0109124
0.0235743
0.0290325
0.011107
0.0311587
0.0242484
0.0131811
0.020692
0.0126855
0.0255949
0.0205768
0.0328088
0.0337133
0.00964622
0.0175515
0.0212644
0.0207577
0.0281458
0.0396523
0.0143907
0.028048
0.0214413
0.0141712
0.0181957
0.0358015
0.0201207
0.0184868
-0.000139808
0.0380278
0.037264
0.00121923
0.0306944
0.00236416
0.0231047
0.035144
0.00524765
0.0326475
0.0325733
0.0346629
0.0332575
0.0267102
0.0274603
0.0300059
0.00818747
0.0289193
0.0100926
0.00270828
0.0153373
0.00414934
0.0274353
0.0297353
0.0127042
0.0126906
0.0154881
0.0347756
0.00393854
0.0297111
0.0177241
0.0343435
0.0243351
0.0335933
0.0323865
0.0362174
0.0321743
0.00151937
0.0213974
0.0320247
0.0223487
0.0291351
0.0281018
0.00594752
0.0337886
0.025606
0.0353887
8.17173e-05
0.0322084
0.00816911
0.0173551
0.00233738
0.0274352
0.0265797
0.041613
0.0254199
0.00852475
0.0315112
0.0300759
0.000928644
0.000647343
0.041002
0.0281137
0.00981323
0.0455543
0.0112628
0.0177487
0.0307128
0.000411492
0.00356537
0.0465265
0.00896844
0.013441
0.013279
0.0218817
0.0300127
0.0173344
0.0126196
0.0307091
0.0345311
0.031937
0.0297974
0.0175381
0.0300514
0.0211011
0.0129631
0.0264828
0.0260793
0.0211623
0.0239532
0.0173965
0.0163413
0.0303364
0.0311677
0.0316035
0.0263194
0.0373785
0.0254102
0.0263654
0.0247915
0.0260175
0.0314558
0.0226237
0.0050711
0.0342343
0.0331568
0.0309309
0.00528201
0.0294785
0.0256579
0.0287447
0.0261689
0.0351013
0.0307342
0.00404957
0.0124291
0.0347242
0.0350132
0.0378115
0.00341945
0.0169159
0.0118921
0.0323656
0.0313096
0.0335514
0.03751
0.0378684
0.0325449
0.0371737
0.0320819
0.0315607
0.0202859
0.0335433
0.0283956
0.0371705
0.0448338
0.0281414
0.0262971
0.0463793
0.0232309
0.0165565
0.034626
0.0190936
0.0371617
0.00106801
0.0288756
0.0178697
0.0427882
0.0278531
0.0265508
0.0353778
0.0170378
0.00114097
0.0156545
0.0430838
0.000302082
-0.000159245
0.0284821
0.0111304
0.0120028
0.0118147
0.00848917
0.00720703
0.00805312
0.00651055
0.0127232
0.0330292
0.0369945
0.00377904
0.0333436
0.0295679
0.00298004
0.0279903
0.034183
0.034647
0.0195525
0.0240596
0.0184005
0.0339276
0.0191422
0.0295786
0.0263024
0.0195296
0.0271905
0.0332097
0.0188241
0.0184491
0.0269699
0.0264961
0.0224536
0.0361517
0.00425966
0.0380506
0.0231041
0.0198146
0.0217742
0.0342378
0.0149691
0.01155
0.0343608
0.0304689
0.0313087
0.033467
0.0426396
0.0386438
0.0345619
0.0312054
0.0340766
0.0358648
0.0347315
0.0215516
0.0365058
0.0349013
0.0101648
0.0312228
0.0231265
0.0364131
0.0302342
0.0358643
0.0180414
0.0322766
0.0227988
0.0265312
0.0335576
0.0362878
0.00983464
0.0296384
0.0235751
0.0227811
0.0240606
0.0371335
0.0303845
0.0320673
0.000660366
0.0272329
9.12595e-05
0.0319143
0.00269868
0.0437489
0.011064
0.02265
0.00892061
0.00859946
0.00774864
0.0294128
0.0319817
0.021972
0.02251
0.0293611
0.0200303
0.0335797
0.034462
0.0250429
0.0378111
0.0327721
0.0380294
0.0329447
0.0307922
0.0354294
0.0200141
0.0259336
0.0267912
0.0212902
0.00481545
0.0357366
0.0351013
0.0415456
0.0108748
0.0328288
0.0292431
0.0116339
0.0266027
0.0325187
0.0283581
0.0370179
0.0351612
0.0335691
0.0365583
0.0272021
0.0349506
0.0364604
0.0352717
0.0346224
0.0289089
0.0323799
0.0255833
0.0374555
0.031369
0.0465641
0.0458711
0.0302459
0.0370413
0.0297284
0.0292185
0.0284422
0.0243092
0.0343166
0.0304298
0.0328337
0.0343071
0.0375278
0.0330323
0.0281275
0.0313288
0.0314079
0.0366138
0.030355
0.0323984
0.034492
0.0358049
0.00256985
0.0331197
0.00352865
0.0040548
0.00447366
0.00225909
0.0326158
0.006986
0.000785372
0.0239733
0.0323396
0.0441977
0.0449887
0.0373681
0.0298969
0.0366119
0.0199291
0.0411672
0.0264458
0.0290582
0.0316782
0.0342653
0.0224501
0.033829
0.0353167
0.0256392
0.0274662
0.0352243
0.0277188
0.0406129
0.0354283
0.0393042
0.0121588
0.00221812
0.032786
0.0324813
0.0319373
0.0394818
0.0335047
0.0402123
0.0335817
0.0361362
0.0211868
0.0375665
0.0271246
0.0362447
0.0287734
0.0366864
0.0377207
0.0229858
0.033345
0.0247492
0.0345756
0.024663
0.0349037
0.0303368
0.0291919
0.0348797
0.0337127
0.0303552
0.0337101
0.0230843
0.0402642
0.031466
0.0334023
0.0344892
0.035938
0.00981843
0.0243294
0.0364085
0.00360349
0.00475759
0.0371324
0.0326478
0.00057493
0.044324
0.0295114
0.0408622
0.0321298
0.0279966
0.028001
0.0386271
0.0323577
0.0277478
0.0292163
0.0314844
0.0322908
0.0319995
0.0415668
0.0355211
0.0356938
0.0240107
0.0240892
0.0375999
0.0303811
0.0355874
0.0355784
0.0401471
0.0442048
0.0422902
0.028243
0.0376059
0.029693
0.0349253
0.0341452
0.0292476
0.0133662
0.0370267
0.0446491
0.0362971
0.0278896
0.0321543
0.0278973
0.0459451
0.0257495
0.0330569
0.027982
0.0292931
0.0350305
0.0370238
0.0295329
0.0354296
0.0347321
0.0315216
0.0359972
0.0349431
0.0348982
0.0312547
0.0376009
0.0377964
0.0371386
0.0318608
0.0366596
0.0367357
0.0363562
0.0116195
0.0372351
0.0264242
0.0273194
0.0335486
0.0400956
0.0266668
0.03246
0.0376535
0.0318325
0.0325703
0.0281682
0.0421468
0.031391
0.0368961
0.0267307
0.0268158
0.0322639
0.0373446
0.0265839
0.0317461
0.0314954
0.0367266
0.0373385
0.0318041
0.0321317
0.0400224
0.0399019
0.0328867
0.0394378
0.03862
0.0348045
0.0396571
0.016227
0.0394667
0.0373515
0.0367405
0.0371121
0.0354765
0.0370706
0.0409562
0.0334781
0.0368836
0.0294822
0.0337576
0.0303827
0.0348686
0.0348725
0.0422389
0.035509
0.0419681
0.0420841
0.0302277
0.0345019
0.0361663
0.0242696
0.0311861
0.0323522
0.0323722
0.0411723
0.0358451
0.0280064
0.0319903
0.026141
0.0381321
0.0265677
0.0278596
0.0318931
0.0325608