/*--------------------------------*- C++ -*----------------------------------*\
| =========                 |                                                 |
| \\      /  F ield         | OpenFOAM: The Open Source CFD Toolbox           |
|  \\    /   O peration     | Version:  2212                                  |
|   \\  /    A nd           | Website:  www.openfoam.com                      |
|    \\/     M anipulation  |                                                 |
\*---------------------------------------------------------------------------*/
FoamFile
{
    version     2.0;
    format      ascii;
    arch        "LSB;label=32;scalar=64";
    class       surfaceScalarField;
    location    "0.03";
    object      phi;
}
// * * * * * * * * * * * * * * * * * * * * * * * * * * * * * * * * * * * * * //

dimensions      [0 3 -1 0 0 0 0];

oriented        oriented;

internalField   nonuniform List<scalar> 
68568
(
-1.46377e-07
1.51302e-07
-2.85739e-08
2.36491e-08
1.41228e-07
-7.21553e-08
-7.50857e-08
6.01349e-09
1.70675e-07
-1.30469e-07
-5.816e-08
1.79533e-08
-4.31966e-09
2.1966e-09
-1.63454e-07
1.65577e-07
-1.23737e-09
1.36936e-07
9.88137e-10
-1.36687e-07
1.35274e-07
-4.85495e-10
-1.24186e-07
-1.06019e-08
8.08642e-08
-8.61113e-08
1.26161e-07
-1.20914e-07
-3.81944e-08
-2.60893e-08
1.45148e-07
1.2691e-07
-1.50995e-08
-1.07021e-07
-4.78974e-09
1.45226e-07
5.1843e-08
-5.5841e-08
9.76116e-08
1.33354e-07
-6.02902e-08
-6.24414e-08
-1.9551e-07
1.85796e-07
-1.36289e-07
6.67216e-08
-5.51821e-09
1.77267e-07
-1.82793e-07
1.34033e-08
-7.87707e-09
-6.84027e-08
-5.01611e-08
1.17427e-07
1.13663e-09
1.24042e-07
8.55119e-08
-1.26977e-07
-8.25762e-08
-4.95732e-08
-7.63665e-08
1.11633e-07
1.4307e-08
1.09656e-07
-1.14603e-07
-4.46261e-08
1.08511e-07
-4.44477e-09
-6.23811e-10
-1.03442e-07
8.3401e-08
-1.50361e-07
7.54311e-08
-8.47128e-09
1.10395e-07
-4.80436e-10
-1.09838e-07
-7.57711e-11
-1.73672e-08
8.81763e-09
1.36406e-07
-1.27856e-07
-4.45987e-08
1.84578e-07
-2.67019e-08
-1.13277e-07
-6.46257e-10
-4.0087e-10
-1.32755e-07
1.33802e-07
-7.32512e-08
-4.74885e-08
1.14027e-07
6.71241e-09
-9.49797e-08
-3.8866e-08
-1.25314e-08
-6.3458e-08
1.38515e-07
8.34447e-09
7.56008e-08
4.48779e-08
-2.91676e-08
-9.13111e-08
-6.64017e-08
-9.76788e-08
1.25886e-07
4.75014e-08
-1.17341e-07
3.43771e-09
1.49499e-07
-7.99763e-08
-1.40833e-07
7.13106e-08
-1.30841e-08
2.50368e-09
1.14874e-07
-1.04294e-07
1.5302e-07
-3.19992e-08
-1.08761e-08
-1.10144e-07
1.17342e-07
-9.01258e-08
-5.75989e-08
3.03829e-08
-3.56873e-10
1.07472e-07
-1.07124e-07
9.48048e-12
1.19024e-07
8.35731e-08
-8.3757e-08
6.37036e-10
-4.53208e-10
4.19999e-08
-1.55931e-07
9.07839e-08
2.31474e-08
-1.58743e-07
1.37917e-07
6.28257e-08
-7.2789e-08
-1.78099e-10
-2.84102e-10
-8.06454e-10
1.12242e-07
-1.04071e-09
1.10657e-07
-1.10387e-07
-4.83538e-10
2.13217e-10
-2.60958e-08
-1.54792e-07
1.17033e-07
1.89646e-07
-1.44421e-07
-1.62258e-07
-6.03798e-08
-1.01342e-07
2.85763e-07
-1.43099e-07
1.60432e-07
-1.34732e-07
1.17398e-07
-1.2177e-07
6.46843e-08
-5.35605e-09
1.1261e-07
-1.09926e-07
-3.46708e-09
7.83506e-10
9.61705e-08
2.46964e-08
1.14953e-08
-1.32362e-07
2.08084e-09
-1.49586e-07
1.44973e-07
3.3492e-08
-2.88792e-08
-8.21549e-09
-9.22098e-08
1.00086e-07
3.39382e-10
-1.63371e-07
1.34926e-07
1.7861e-07
-1.48351e-07
-3.58847e-10
-2.40537e-10
1.96423e-09
-1.58501e-09
1.06603e-07
-1.06982e-07
3.87634e-08
-1.1298e-07
-2.15037e-09
9.04112e-08
-9.66945e-08
3.71766e-09
2.56558e-09
-8.40035e-08
1.39522e-07
-6.15021e-08
5.98327e-09
1.44288e-07
-7.48004e-08
-7.29249e-08
3.43764e-09
8.95354e-08
-8.97331e-08
-4.48577e-10
-1.09798e-07
-1.71526e-09
1.1371e-07
7.42336e-08
7.00597e-08
-7.5299e-09
-1.36763e-07
-5.86243e-09
1.3329e-07
-1.28192e-07
7.64877e-10
8.72386e-08
-1.47649e-07
-3.04747e-09
1.06282e-07
-1.77427e-08
3.3138e-08
-1.21677e-07
1.46798e-07
-2.28878e-08
-1.66338e-07
4.24278e-08
3.9988e-08
8.02138e-08
-1.16912e-08
6.33339e-08
-1.25395e-07
6.87996e-08
-6.73863e-09
1.32579e-07
-1.33691e-07
-1.2539e-10
-9.85785e-08
1.40607e-07
-3.11116e-08
-1.09169e-08
-2.01326e-07
-1.4785e-07
2.82515e-07
6.66607e-08
-1.14606e-07
1.11387e-09
1.18408e-07
-6.45157e-09
1.32738e-07
-1.40823e-07
-5.28198e-08
6.09051e-08
-1.23449e-07
6.37519e-08
6.56036e-08
-5.90633e-09
-5.59866e-08
-5.0593e-08
-4.77696e-08
-9.93369e-08
9.96689e-08
-4.03752e-10
7.17641e-11
3.92739e-08
1.70789e-07
-6.57753e-08
1.03049e-07
-6.18921e-08
4.92546e-08
-7.18131e-08
-7.8897e-08
1.46762e-07
3.94812e-09
-5.35067e-10
-2.14964e-07
-6.78177e-10
2.16177e-07
7.30506e-08
-4.57481e-08
8.33545e-08
-1.52147e-10
6.38136e-08
-6.36946e-08
3.31408e-11
-1.87013e-08
1.37347e-07
6.57873e-08
-1.84433e-07
1.67282e-07
-8.45403e-08
-8.77268e-08
4.9848e-09
1.17506e-07
3.71506e-08
-3.55902e-08
-1.19066e-07
1.60104e-07
-7.5447e-08
7.47491e-08
-1.59406e-07
3.44227e-08
1.29399e-08
1.12741e-07
-8.7015e-08
8.28216e-08
-1.5926e-07
1.22565e-07
8.68655e-10
-1.19532e-07
-3.90158e-09
-3.88579e-08
-2.74452e-07
1.9154e-07
8.24942e-08
8.45614e-08
-6.62333e-09
-4.77952e-10
5.09338e-10
9.18787e-08
-9.19101e-08
-1.21621e-07
1.21511e-07
-2.91423e-10
-5.8953e-08
1.1768e-07
5.95709e-09
7.15227e-09
8.56725e-08
-4.82366e-09
-8.80011e-08
-1.25766e-07
5.54725e-08
8.78226e-08
-1.75287e-08
-4.33104e-08
-7.94636e-08
-9.98099e-09
-8.15125e-08
1.58527e-07
5.48016e-09
7.10154e-08
7.40918e-08
-1.40137e-07
-4.97052e-09
1.11988e-07
7.77157e-10
-1.12697e-07
-6.7545e-11
-6.18943e-09
-1.75234e-07
-1.35523e-08
1.8387e-07
-5.15835e-09
1.16151e-07
-1.18103e-07
5.64767e-08
-7.37358e-09
9.60315e-08
-4.46645e-10
-9.44982e-08
-1.08662e-09
1.20103e-07
-7.97416e-10
1.33289e-07
-4.53011e-08
7.92948e-08
1.09411e-10
-1.02105e-07
-3.33037e-09
1.09769e-07
-4.33283e-09
8.95861e-08
-4.93234e-08
-8.88122e-08
1.27328e-10
8.85628e-08
1.22059e-10
-3.43875e-08
-1.33672e-07
1.42569e-07
2.54905e-08
-1.99618e-09
1.28323e-07
-1.25956e-07
-3.7125e-10
-8.64869e-08
-3.59945e-08
1.22984e-07
-5.03091e-10
-4.18929e-09
2.05691e-09
-1.07666e-07
-1.60702e-07
8.60408e-08
7.99102e-08
-5.24922e-09
2.71025e-10
-9.92517e-08
9.91929e-08
-2.12206e-10
1.3527e-07
-7.00934e-10
-1.83046e-10
-1.08516e-07
2.83399e-10
1.08416e-07
-5.98587e-08
2.03075e-08
4.81494e-08
1.29095e-07
-7.06265e-08
4.86564e-09
1.37843e-07
-1.36972e-07
-1.39551e-08
-1.21977e-07
1.37556e-07
1.88139e-08
-3.43928e-08
7.08792e-08
-7.208e-08
1.47999e-07
3.7974e-09
1.10893e-07
1.48955e-07
-1.29366e-09
-1.49658e-07
6.71532e-08
-1.40225e-07
-4.26277e-09
7.73344e-08
1.40586e-07
-7.75701e-08
7.99979e-09
9.82881e-08
-9.6206e-08
-1.10556e-07
5.69499e-08
-3.01507e-08
-1.47377e-07
1.40518e-07
-1.87571e-08
2.56155e-08
1.59898e-07
4.47599e-08
-4.79144e-08
-1.55943e-07
-7.26049e-08
-2.9573e-08
7.92952e-08
2.28827e-08
-1.28261e-07
6.74511e-08
-5.34632e-08
1.14273e-07
-1.49205e-07
-3.28366e-09
1.55426e-07
-2.93687e-09
-1.06854e-07
2.02853e-08
-6.26365e-08
-1.60745e-07
-6.24629e-09
9.3247e-08
-1.40484e-09
-1.10593e-07
-4.98707e-10
-1.06984e-07
1.375e-07
-7.27061e-08
5.9421e-09
1.53213e-07
-8.18288e-08
-7.79008e-08
6.51628e-09
-1.31792e-07
1.76991e-07
-4.54771e-08
2.78389e-10
8.09583e-08
-8.13646e-08
-1.31386e-07
9.33865e-08
7.23973e-09
-2.33812e-09
6.31939e-10
1.03047e-07
-1.02525e-07
-1.1543e-09
1.86468e-07
-4.73386e-08
-1.01979e-07
-1.06701e-07
9.35272e-08
1.13171e-07
-1.08527e-07
-2.58793e-09
-1.74592e-09
1.00305e-07
-9.88621e-08
3.02909e-10
-9.41657e-09
-1.32753e-07
1.29727e-07
1.24426e-08
-1.36983e-07
1.53615e-07
-9.72471e-09
-6.9072e-09
1.192e-07
-4.75914e-08
-7.16457e-08
8.92945e-09
-7.78119e-09
-9.5797e-08
9.53627e-08
3.22435e-08
-6.54984e-09
-1.32548e-07
-1.98425e-08
1.08729e-07
-8.26686e-08
-6.21804e-09
1.56964e-07
-6.53302e-09
-1.34032e-08
-1.37028e-07
1.53583e-07
1.05663e-10
-2.50418e-09
-1.51185e-07
1.33987e-07
-1.35304e-09
-5.50079e-11
1.27129e-07
-1.27363e-07
2.08557e-10
2.50365e-11
-1.22943e-07
-8.04276e-08
1.23907e-07
2.07446e-08
-1.67082e-07
-1.09042e-07
1.08898e-07
7.91868e-12
1.35571e-10
-1.31723e-07
-7.12299e-09
1.86309e-09
-1.00355e-07
-4.97286e-11
1.00386e-07
1.83549e-11
-1.20226e-07
-3.57227e-10
1.20634e-07
-5.14245e-11
-1.02312e-08
1.20266e-07
-1.00926e-07
-7.79965e-09
-1.00976e-07
1.00678e-07
1.14969e-10
2.23852e-08
2.80296e-08
8.37719e-08
-1.33201e-07
7.13809e-08
-7.16574e-08
1.41328e-07
-1.41052e-07
1.0154e-07
-7.99596e-08
-2.38001e-08
2.21972e-09
9.6278e-08
4.10958e-09
-1.05138e-07
6.9472e-09
5.63362e-09
-1.06701e-07
1.2079e-07
-1.97229e-08
-5.17285e-10
1.00607e-07
-9.97021e-08
-3.87628e-10
-1.38223e-07
-8.39029e-09
1.61714e-07
2.0202e-07
-8.62103e-08
1.82434e-07
1.50676e-07
-7.52753e-08
5.55734e-09
-3.53759e-08
2.52701e-08
-1.06766e-07
1.19237e-07
8.65505e-08
9.1636e-08
-7.39743e-09
9.12128e-08
7.11515e-08
-1.56693e-07
-5.67171e-09
8.03602e-08
7.77132e-08
-7.39701e-09
1.19327e-07
-7.36938e-08
8.14956e-08
7.23987e-08
-1.22694e-07
5.83242e-08
-8.02931e-09
6.28072e-10
-9.70724e-08
-1.23452e-09
3.20142e-10
-3.03031e-07
1.80702e-07
1.72218e-07
-1.13974e-07
3.06186e-08
9.16392e-09
4.24322e-08
4.43231e-08
-9.59193e-08
-1.25358e-07
1.8674e-09
1.24614e-07
-1.12298e-09
-9.64802e-08
9.6068e-08
-2.65072e-11
4.38671e-10
1.25452e-07
-1.6251e-07
1.92213e-07
-1.55155e-07
1.5103e-08
-1.43441e-09
1.23267e-07
-3.09335e-08
7.25054e-09
-7.1866e-08
9.5549e-08
-7.05262e-08
1.36696e-07
5.21083e-09
-1.42865e-07
7.4009e-08
7.39939e-08
-5.13776e-09
-1.07927e-07
-2.44196e-08
1.12504e-07
4.38158e-10
7.49647e-08
-3.30026e-11
-7.53699e-08
1.42616e-07
-6.50375e-08
7.54413e-08
1.29008e-09
-1.13321e-10
4.95296e-11
-9.47582e-08
1.73549e-07
-4.63746e-08
-2.86033e-08
-9.85707e-08
8.87111e-09
2.88848e-08
-1.19901e-07
8.55022e-08
-3.3337e-08
2.21358e-08
1.7727e-07
1.65716e-08
1.62365e-07
-1.78856e-07
-6.15547e-08
-6.59075e-08
5.48507e-09
1.28389e-07
6.24234e-09
-6.96339e-08
-7.03844e-08
1.32779e-07
7.23952e-09
8.7786e-10
1.03112e-07
-1.39551e-07
-1.52276e-10
6.84928e-08
-6.86154e-09
-6.50178e-10
-1.31564e-07
1.18991e-10
1.32095e-07
-1.31679e-07
1.59537e-07
-3.9751e-08
1.08449e-08
-9.19793e-09
4.97236e-08
1.08429e-07
-1.25479e-07
7.31353e-08
-2.61919e-08
7.85358e-08
-1.37366e-07
9.25782e-08
-1.26018e-07
1.24417e-07
3.07436e-10
9.03289e-08
2.15461e-08
-1.62409e-07
-2.11694e-08
1.62032e-07
-1.78454e-07
9.78375e-08
-1.34347e-07
-1.66674e-09
1.61635e-07
2.37796e-08
6.5249e-08
-9.35593e-08
4.53066e-09
9.14491e-08
-5.85774e-08
-1.1791e-11
-9.77888e-08
3.57552e-10
-2.29924e-07
2.29804e-07
-5.58043e-10
-9.33365e-08
-9.7512e-08
-9.1382e-08
9.91546e-08
-1.08748e-07
8.23688e-08
-1.04451e-07
1.66761e-08
5.40573e-09
1.22996e-07
-8.86768e-08
-9.04881e-09
-1.51315e-07
-1.10415e-08
2.06377e-08
1.41719e-07
-3.02374e-07
-3.36893e-10
-1.28594e-07
1.27838e-07
2.78287e-10
-9.14471e-08
-9.10698e-11
1.5616e-10
-1.38936e-08
-9.21756e-08
1.47883e-07
-4.18136e-08
1.05659e-07
5.29072e-09
4.26336e-08
-1.32334e-07
1.31391e-07
-3.50122e-09
-5.86494e-08
1.42344e-07
-9.71358e-08
3.16431e-10
-1.25345e-07
-3.29464e-10
9.02202e-08
-9.19952e-08
1.89969e-10
-6.51008e-08
-6.48827e-08
1.22246e-07
7.73717e-09
1.10918e-07
1.73434e-08
-9.51954e-08
-3.30662e-08
2.51628e-08
1.49793e-07
-1.70759e-07
-6.41431e-09
-1.0843e-07
-1.8984e-08
1.24833e-07
9.39459e-13
-1.25038e-07
2.04186e-10
2.35408e-08
7.4211e-09
5.33751e-08
-8.4337e-08
-1.39193e-07
7.45691e-08
-5.01002e-09
-1.12506e-07
1.08444e-07
-7.00234e-09
-3.27115e-10
1.19301e-07
3.52903e-10
-7.89476e-08
-7.07446e-08
1.42644e-07
7.04868e-09
1.27119e-07
-6.81991e-08
-6.56522e-08
6.73222e-09
1.26972e-07
-2.12125e-09
-1.83236e-11
-9.94879e-08
-8.96504e-08
9.76912e-08
-1.25479e-07
-4.58877e-08
-3.16564e-09
1.75218e-07
-1.03909e-07
2.90395e-08
-1.26456e-07
1.11598e-10
-1.03389e-07
5.25922e-10
-6.58089e-10
1.32185e-07
2.51251e-08
-2.68816e-08
-1.30429e-07
4.52551e-08
-1.27149e-07
-7.92446e-11
5.19735e-11
3.81072e-08
-1.90392e-07
-7.69744e-08
1.29738e-07
8.78437e-08
2.02104e-08
-1.43221e-07
-1.79817e-08
1.40992e-07
-8.01662e-08
6.40811e-09
1.30708e-07
-1.2971e-07
9.0246e-08
4.09005e-08
-1.43649e-09
-5.03377e-10
8.39506e-11
-9.52465e-08
6.54437e-08
-4.58474e-09
-1.41246e-09
-2.80221e-09
-2.34457e-09
9.35397e-08
-8.83929e-08
8.08415e-08
1.03327e-07
-1.01674e-07
-8.24945e-08
1.4599e-07
-1.63029e-07
3.38399e-10
1.80913e-10
1.54399e-07
-9.98976e-09
-1.35591e-07
-4.1641e-08
1.49932e-07
1.09094e-08
1.16675e-07
-1.10066e-07
-5.64241e-09
-9.65938e-10
-9.26974e-10
1.12042e-07
1.61585e-07
-5.61383e-08
-2.39767e-09
9.21075e-08
-8.17592e-08
-5.18424e-10
3.79524e-10
1.37981e-07
-1.49874e-07
5.40015e-09
1.37108e-07
5.5839e-09
-1.19134e-08
1.38606e-07
-1.73464e-07
3.71141e-08
1.03634e-09
8.87544e-08
-8.72653e-10
-8.89181e-08
-1.15854e-07
1.1601e-07
-1.06283e-10
1.08958e-09
-2.7376e-10
-1.10242e-07
1.09354e-07
-3.88059e-11
-1.08379e-07
-2.53916e-10
2.03377e-10
7.04041e-08
-1.00865e-07
-7.53086e-08
1.05769e-07
2.59396e-11
-1.13827e-07
1.13949e-07
-1.48403e-10
-4.4404e-08
1.02119e-07
-2.83565e-08
-1.91547e-08
-1.38635e-07
7.21352e-08
-6.10562e-09
2.76669e-08
-1.56378e-08
1.04645e-07
-1.3353e-07
6.42361e-08
6.20349e-08
7.25908e-09
-1.55717e-07
-1.08731e-07
1.09655e-07
-1.24083e-07
-4.23959e-08
5.6824e-08
1.27703e-07
-1.28434e-07
2.27284e-10
5.037e-10
-1.69849e-09
-1.80536e-07
1.1009e-10
1.82125e-07
-1.03465e-07
3.6143e-11
1.0343e-07
-1.25461e-07
-2.00417e-11
4.43165e-10
7.11927e-08
-1.25885e-07
-6.86197e-09
2.08072e-10
-1.27366e-07
-2.0492e-10
7.51896e-08
7.53338e-08
-5.55049e-09
-7.25477e-08
-7.28251e-08
1.39095e-07
6.27802e-09
-1.15204e-07
9.19217e-10
1.14107e-07
1.78276e-10
1.22203e-07
3.01438e-08
1.08971e-07
-1.55148e-08
1.06455e-07
-5.53857e-09
-9.75412e-08
4.59791e-08
4.43282e-08
7.23385e-09
5.51992e-08
1.26174e-07
-5.97255e-08
-1.1775e-07
7.21983e-08
-7.0188e-08
-1.29122e-07
-1.03894e-07
1.14083e-07
1.18933e-07
1.07098e-07
-1.29757e-10
1.13674e-07
-1.14999e-07
1.40575e-09
-8.08728e-11
-1.28909e-07
-1.2687e-07
8.37446e-10
7.67537e-11
1.67327e-08
3.83905e-08
-1.58835e-07
1.50314e-08
-4.22385e-08
1.92811e-07
1.31622e-07
-9.42254e-08
-4.18297e-08
4.374e-09
1.88945e-08
-2.07698e-08
1.30565e-07
-3.24825e-08
-7.73122e-08
1.04566e-07
-6.41696e-10
-1.03674e-07
-2.49873e-10
-4.05652e-08
-1.42235e-07
2.82166e-07
-9.93659e-08
1.02722e-07
-7.80696e-08
-8.73225e-10
4.26232e-11
1.00859e-07
-2.95051e-10
7.20847e-08
-7.25137e-08
1.23234e-07
-1.61307e-07
-1.27881e-07
7.78923e-08
1.23998e-07
-2.2817e-09
-2.98167e-08
-8.03922e-08
6.98403e-08
8.34183e-08
8.32614e-09
1.41323e-07
-1.22701e-07
1.9593e-09
1.45634e-07
-7.86031e-08
6.96341e-09
1.16538e-07
-1.53516e-07
1.30201e-07
-8.21002e-08
-3.28403e-08
-1.3775e-08
1.89478e-09
1.02041e-07
-1.13353e-07
6.70527e-08
-1.26866e-07
-5.2874e-09
1.46818e-07
1.06774e-08
-4.31733e-08
1.28817e-07
-8.56374e-08
-2.36117e-09
-2.52415e-08
1.37252e-07
-1.53869e-07
4.18576e-08
1.14204e-07
2.05023e-08
-5.44927e-08
-1.35081e-09
-1.30237e-07
1.29934e-07
-8.76226e-10
-2.93404e-08
2.23051e-08
-9.54716e-08
1.02507e-07
7.41923e-08
-1.39512e-07
-5.06466e-09
-1.33368e-07
1.33752e-07
-1.75618e-10
-7.52454e-08
1.55286e-07
-1.20606e-07
-7.11651e-08
-7.85168e-08
1.60102e-08
-9.88885e-08
-7.9886e-11
2.08519e-07
1.12006e-08
-1.17844e-07
-1.04946e-07
-7.25346e-08
1.30164e-07
2.24886e-07
-2.10756e-10
-8.78594e-08
1.15527e-11
8.80586e-08
3.18088e-08
1.10428e-07
-6.48869e-10
1.46924e-07
6.15831e-09
9.50357e-08
5.58834e-08
2.69606e-09
7.23255e-08
-1.39369e-07
-5.50391e-09
-7.17126e-08
-8.0876e-08
1.43769e-07
8.82e-09
-8.91601e-08
-4.28316e-09
-4.09793e-09
-4.2212e-08
-1.2259e-07
1.11785e-07
-7.66561e-11
-1.21456e-07
-3.27918e-09
1.18873e-07
-8.82422e-08
-1.339e-07
9.56576e-08
1.26485e-07
-1.1036e-07
3.83212e-08
7.52226e-08
-3.18332e-09
6.92899e-08
6.91172e-08
-1.31434e-07
-6.97303e-09
-7.03598e-08
-6.77922e-08
1.31905e-07
6.24703e-09
5.09211e-08
4.73086e-08
-1.08182e-07
9.95239e-09
-6.61647e-08
1.10296e-07
-3.59179e-08
-8.21349e-09
1.04199e-07
-1.0462e-07
-2.29567e-10
-9.25459e-08
5.78811e-10
8.05578e-08
1.0422e-07
-2.77898e-08
-1.56988e-07
-3.06733e-08
8.73743e-08
3.77905e-08
-9.44916e-08
-9.65517e-08
2.82907e-11
9.81418e-08
-1.61843e-09
-7.25514e-08
-4.17458e-08
9.35275e-08
1.22255e-07
-3.33595e-09
6.91528e-08
-1.28733e-07
6.46426e-08
-5.06279e-09
-5.57782e-08
3.86516e-08
-1.16238e-07
1.13732e-08
1.308e-07
-1.04401e-07
-3.71343e-08
9.60982e-08
8.0778e-08
-7.30994e-08
7.22597e-10
-1.20849e-07
-9.90756e-11
4.0516e-08
-2.83855e-08
1.02032e-07
-1.15829e-07
5.57551e-08
5.28353e-08
7.23832e-09
7.2738e-08
-4.88256e-09
3.87397e-08
6.25904e-08
7.39912e-09
8.92255e-09
1.25373e-07
-1.02979e-08
-6.14571e-09
-8.12044e-08
7.93147e-08
1.32454e-07
-7.34574e-08
-1.54657e-07
1.55189e-07
1.61936e-07
5.76718e-08
-5.50252e-08
-1.64583e-07
1.42297e-08
-1.27714e-07
1.37025e-07
-7.75211e-08
-7.09222e-08
1.41774e-07
6.66938e-09
-4.49299e-08
-1.08284e-07
1.83795e-09
6.72216e-08
-6.69603e-09
1.28291e-07
-5.47513e-10
-4.06875e-11
2.20031e-08
-8.47847e-08
9.04485e-08
1.93268e-10
2.09964e-10
-1.33771e-07
-2.23892e-09
8.59947e-08
-8.376e-08
1.12847e-08
-8.29559e-08
1.41782e-07
-7.0111e-08
-2.75456e-08
-1.3321e-07
1.18262e-09
1.59573e-07
9.17489e-08
-1.76625e-07
6.91904e-08
1.56853e-08
-1.21255e-07
8.91183e-08
-9.6458e-08
9.92612e-08
-6.05138e-10
-9.82958e-08
-3.60211e-10
-4.51538e-08
-1.27045e-07
4.5508e-08
1.26691e-07
-7.19147e-08
-1.21109e-07
1.47134e-07
4.58902e-08
-2.83885e-09
-1.40944e-07
1.4155e-07
2.23269e-09
-1.23858e-07
1.23728e-07
-1.56856e-09
-1.42109e-07
1.25575e-07
-6.32192e-08
1.35789e-07
7.00793e-08
-5.82269e-09
7.58031e-08
-1.3549e-07
-6.30064e-08
-1.24712e-07
8.64938e-08
-1.00974e-07
-1.34201e-08
1.40101e-07
-8.65453e-08
-3.44651e-08
1.19277e-07
-1.17202e-07
-3.35326e-09
1.27809e-09
-9.64625e-08
-2.36806e-09
4.07236e-09
2.01941e-10
-1.48157e-07
1.45116e-07
-8.95179e-08
-4.34411e-10
7.92195e-10
-9.15436e-08
7.69586e-08
1.51054e-08
-5.20485e-10
-5.47879e-08
-1.31472e-07
1.76792e-07
9.46751e-09
1.14311e-07
-5.2482e-10
5.58297e-08
4.74535e-08
-1.12176e-07
8.89277e-09
-1.07876e-07
-5.79645e-10
1.08156e-07
2.98908e-10
-1.05286e-07
1.49963e-08
-2.47098e-08
6.23113e-08
-1.19825e-07
5.05647e-08
6.94885e-09
-4.59641e-09
-9.30476e-08
4.3075e-09
1.42001e-09
-1.32279e-07
1.73695e-09
5.29645e-08
7.35724e-08
-1.17005e-07
2.05818e-08
8.45719e-08
2.03886e-08
1.26002e-07
-1.26563e-07
5.63699e-10
-2.51525e-12
-2.03501e-07
1.91906e-07
8.463e-08
-7.30354e-08
5.61371e-08
-1.44803e-07
1.11216e-07
-2.25511e-08
7.37035e-08
-6.67368e-09
-6.65664e-10
-1.53606e-12
5.71377e-08
-6.05364e-08
-1.14492e-07
1.62595e-07
-1.3459e-07
1.12179e-07
-1.48196e-08
6.54005e-10
-1.49475e-07
1.48863e-07
1.28362e-07
-1.56392e-07
-1.3106e-09
-8.61705e-08
-8.19664e-08
1.61369e-07
6.76753e-09
9.3457e-08
2.32629e-11
-9.35225e-08
4.21986e-11
-1.45837e-07
7.8075e-08
7.23928e-08
-4.63049e-09
-1.9711e-07
1.22165e-07
-1.36639e-07
2.11584e-07
-1.90016e-07
2.49623e-08
-4.51164e-08
-1.1141e-07
-1.61678e-07
9.9116e-08
3.73205e-08
-1.44795e-08
-1.2676e-07
1.38211e-07
3.02867e-09
-3.25404e-09
-1.10217e-07
-9.4723e-09
1.173e-07
-1.08447e-07
1.11789e-07
-3.44533e-08
1.67086e-07
1.1081e-07
1.45322e-07
-1.27914e-07
-1.21349e-07
4.19071e-10
1.17937e-07
-1.18441e-07
8.48182e-11
1.01893e-07
-1.10309e-07
3.8196e-09
-7.91383e-08
-6.52347e-10
6.89301e-08
1.03688e-07
-4.4327e-08
6.3206e-08
-1.2175e-07
-4.67499e-09
-2.18696e-10
1.14774e-07
-1.14686e-07
1.30368e-10
-1.18713e-07
-1.79511e-10
1.19657e-07
-7.64319e-10
-1.2071e-07
4.4198e-08
-3.35546e-08
-1.1808e-08
9.91374e-08
7.95015e-08
-1.07075e-09
-1.77568e-07
2.84886e-09
-1.39425e-10
-1.71963e-08
8.21435e-08
-1.47239e-07
8.22914e-08
-1.27037e-07
1.28933e-07
6.62886e-08
-6.18325e-09
2.74857e-08
-1.32146e-07
-3.73807e-08
1.42041e-07
4.1088e-08
1.20109e-08
3.51223e-08
-8.82212e-08
6.99059e-08
7.60093e-08
-1.39702e-07
-6.21287e-09
-1.04641e-07
1.02872e-07
1.75092e-09
1.82122e-11
-6.88609e-08
7.35463e-09
5.62299e-08
-5.41526e-08
1.26841e-07
-1.28918e-07
-1.05898e-07
2.23937e-07
-4.64848e-08
-7.1554e-08
8.69547e-08
-7.30497e-08
-7.60672e-08
6.21622e-08
6.90574e-08
-5.66903e-08
-1.38098e-07
5.41282e-08
8.72451e-09
5.8848e-08
8.1224e-08
7.63385e-08
7.80849e-08
-1.48278e-07
-6.14498e-09
1.36493e-07
8.1518e-09
-6.2613e-09
-1.38383e-07
1.04109e-07
8.29523e-10
-3.72823e-10
9.8295e-08
-1.00064e-07
2.32873e-09
-5.60168e-10
-6.67699e-08
-7.86778e-08
1.38462e-07
6.98554e-09
-1.22672e-07
1.53847e-09
4.23965e-10
-1.08192e-07
-2.43294e-11
3.40998e-10
1.14756e-08
1.25271e-07
1.13364e-07
1.97406e-09
-1.02708e-09
1.40011e-10
-1.0482e-07
1.041e-07
9.8956e-08
1.7616e-08
2.70522e-09
-1.20098e-08
3.67956e-08
-1.22256e-07
9.74704e-08
1.27357e-07
-1.27168e-07
-8.37425e-11
-1.05079e-10
-3.02315e-08
-1.20556e-07
1.7575e-07
-1.21214e-07
-1.95268e-08
1.45862e-07
-5.12127e-09
1.56913e-07
-1.33259e-07
-2.2996e-08
-2.08539e-08
1.30805e-07
1.28364e-07
-1.29224e-07
4.25792e-10
4.3436e-10
1.53112e-07
-4.71449e-08
-1.50575e-07
4.46079e-08
1.26729e-07
-1.26942e-07
1.50227e-07
-1.50014e-07
9.15943e-09
-1.25845e-08
-1.00265e-07
1.0369e-07
2.72519e-08
-1.04719e-07
-4.44241e-08
1.21891e-07
8.82933e-08
8.02564e-08
-1.61415e-07
-7.13423e-09
2.07695e-07
-2.19673e-07
-9.01407e-08
-1.37314e-07
1.04572e-07
-1.32858e-08
1.28227e-08
-1.89512e-07
1.64401e-07
-8.73914e-08
1.36311e-07
-2.32008e-07
1.83088e-07
8.15065e-08
-1.62713e-07
-6.18509e-09
2.08099e-08
9.12648e-08
-1.57842e-08
-9.62905e-08
-1.49055e-09
1.28203e-07
-1.43918e-08
-1.09274e-07
-6.01713e-08
1.56798e-07
-1.09628e-07
1.30018e-08
-2.79723e-08
8.09664e-08
-4.54886e-08
-7.50543e-09
3.10723e-10
-1.01713e-07
1.01806e-07
-4.04277e-10
2.66495e-09
1.27268e-07
-1.28817e-07
-1.11604e-09
-6.64855e-08
-1.28866e-07
1.41817e-07
5.92464e-08
-3.06198e-08
1.33105e-07
3.88135e-09
-4.88573e-08
-4.52415e-08
1.2902e-07
-2.34346e-07
1.1556e-08
-1.55103e-07
1.22629e-07
-7.34234e-08
1.25643e-07
-1.22531e-07
-4.47413e-10
-9.98416e-08
1.55413e-09
-2.31969e-09
1.00607e-07
6.31305e-08
-1.93901e-07
-1.48607e-07
-1.12868e-10
1.28879e-07
-1.28579e-07
-1.87334e-10
-1.17074e-07
-4.13984e-08
1.50189e-07
5.74961e-09
-9.30278e-09
1.12775e-07
-1.00969e-07
-1.14875e-08
1.47376e-07
-1.1901e-07
3.66619e-10
-6.93718e-11
6.54847e-08
-1.55709e-07
8.45056e-08
5.7191e-09
-1.49698e-09
-1.16724e-07
-1.53345e-09
1.30068e-07
6.12643e-09
-1.07223e-07
5.45713e-08
5.07861e-08
1.86536e-09
-1.08438e-07
2.98633e-08
1.47632e-07
2.8178e-11
1.3834e-07
-6.79792e-10
-1.37689e-07
7.19444e-09
1.22102e-07
-2.60003e-08
-1.03296e-07
1.46271e-07
-1.66812e-07
8.67312e-08
-6.61908e-08
4.65832e-08
1.17236e-07
-5.74646e-08
-6.80709e-09
8.40411e-08
9.36322e-08
-1.65951e-07
-1.40877e-08
-6.70547e-09
1.11361e-07
-1.34229e-07
1.18298e-07
2.85311e-10
-1.1865e-07
6.61177e-11
7.27319e-09
1.02207e-07
-3.82116e-09
8.07012e-08
-2.00719e-07
3.17755e-08
-1.34822e-07
2.34219e-09
-7.61565e-08
-6.49038e-08
1.34207e-07
6.85334e-09
-1.09128e-07
-5.0437e-08
3.36446e-08
1.2592e-07
-1.21335e-07
-6.4458e-10
-6.92824e-10
-7.10879e-08
1.50276e-07
-8.51423e-08
5.95441e-09
7.63864e-08
-1.51399e-07
7.86025e-08
-3.58998e-09
-1.14861e-07
-2.24345e-10
1.0456e-07
-1.07279e-07
4.66868e-09
-1.94888e-09
1.54033e-07
-8.6301e-08
8.65472e-09
-1.17195e-07
1.97481e-08
-1.97554e-08
6.02509e-08
-9.9667e-08
-2.2476e-08
1.2759e-07
-1.26752e-07
-1.84493e-10
6.93131e-08
6.20765e-08
-6.19589e-08
-6.94306e-08
8.12608e-08
1.51392e-07
-1.63362e-07
8.05596e-08
6.87488e-08
-1.44066e-07
-5.2424e-09
-1.18225e-07
6.23889e-08
4.8393e-08
7.44319e-09
2.22401e-10
1.27939e-07
2.02817e-10
8.11618e-08
7.58397e-08
-1.51433e-07
-5.56847e-09
1.07897e-07
1.18795e-07
-9.69685e-09
-1.05402e-07
-3.69608e-09
9.73171e-08
5.54e-11
1.49972e-07
-1.51589e-07
-8.29068e-08
8.45237e-08
5.08317e-08
6.06285e-08
7.33466e-09
-6.25765e-09
-2.15141e-07
1.90449e-08
1.31117e-07
-3.64264e-09
6.31354e-09
1.55108e-07
1.33373e-07
-2.2617e-07
-1.25202e-07
1.0937e-09
-1.49315e-09
1.25601e-07
6.77875e-10
1.01201e-07
-1.01724e-07
-1.55015e-10
-8.10363e-08
1.84277e-07
-1.80762e-07
5.2933e-08
1.25315e-07
-6.60213e-08
-1.12226e-07
4.67678e-08
5.96524e-08
-1.13916e-07
7.49533e-09
1.5175e-07
-1.15887e-08
2.12078e-08
-1.36001e-07
-5.66628e-09
4.47334e-08
-1.39881e-07
-1.90691e-08
-9.64584e-08
-1.13701e-07
1.07154e-07
2.05474e-08
-5.13638e-09
-2.06505e-08
9.83213e-08
2.94831e-08
5.88361e-08
-7.9185e-08
-3.36997e-09
1.27391e-07
3.61039e-09
1.37297e-10
4.49186e-10
-2.17108e-07
-1.55021e-08
-3.98344e-10
1.31988e-07
1.49753e-08
-1.39106e-07
-1.42664e-08
2.78241e-07
-1.22602e-07
-1.41372e-07
-1.71133e-07
1.39169e-07
1.16654e-07
-1.47628e-07
-6.94218e-08
7.52205e-08
-7.7048e-08
7.12493e-08
1.20333e-07
-1.24584e-07
-3.89241e-09
8.14406e-09
-3.96051e-09
-6.47067e-08
8.06961e-08
-1.87122e-07
-8.14769e-08
6.60289e-08
-9.85907e-09
-1.20412e-07
2.66393e-07
-4.21331e-08
-9.99264e-08
-1.36498e-08
-7.81654e-08
1.57271e-07
2.15499e-09
-3.35815e-08
-7.22412e-08
9.06436e-08
1.51791e-08
4.02878e-08
-1.80975e-07
8.21034e-08
5.85834e-08
-1.08486e-07
1.08208e-07
-6.68102e-11
3.45512e-10
9.34451e-08
-1.98889e-10
1.40598e-08
1.27122e-07
1.147e-07
-7.39788e-09
-8.49972e-08
-1.55102e-07
1.83997e-08
8.12556e-10
1.37186e-07
-9.51941e-08
1.42692e-07
-4.46853e-08
-5.98155e-09
3.14065e-09
1.27369e-07
-3.11869e-09
1.06216e-07
3.97464e-08
-1.55352e-07
-3.0232e-08
-1.26553e-07
-1.09813e-07
-8.58171e-08
4.43156e-08
-1.13104e-08
1.10231e-07
-8.67444e-09
-9.56477e-08
-1.10019e-07
-3.04471e-09
9.60852e-08
-1.23441e-07
1.00095e-07
-6.61677e-10
-9.88638e-08
-5.69314e-10
-2.6108e-08
-1.49907e-07
-1.79311e-07
1.79031e-07
1.15268e-07
-4.81405e-08
1.1135e-08
-7.82629e-08
1.1441e-07
-6.27157e-10
-1.1372e-07
-6.22638e-11
9.43097e-10
1.03689e-07
-1.04893e-07
2.60339e-10
2.93485e-08
1.21001e-07
-3.69856e-08
-7.8793e-08
-8.30758e-08
1.04698e-08
7.78474e-09
1.10637e-07
-1.14389e-07
-4.03198e-09
-1.26083e-07
1.3617e-07
-2.30157e-09
-1.34893e-07
-3.58978e-09
-1.50044e-07
1.51963e-07
-5.62534e-08
-8.58547e-08
1.48329e-07
-6.22045e-09
1.08727e-07
-1.50082e-08
6.57026e-10
-4.41229e-11
4.7092e-08
1.18483e-08
-7.12783e-10
-3.74012e-10
7.59494e-08
8.29692e-08
-5.80706e-09
-3.39755e-08
1.00478e-07
7.91791e-08
-2.82303e-07
-1.33332e-07
2.70581e-07
1.43936e-07
1.32005e-07
-5.56237e-08
-8.44717e-08
6.36335e-09
-6.46445e-10
-1.25575e-07
-3.41734e-10
5.47386e-08
6.33633e-08
-1.17024e-07
-1.07761e-09
-1.15263e-07
1.15094e-07
1.1751e-10
5.17263e-11
1.05845e-07
3.24084e-08
-1.38364e-08
1.59343e-09
1.94791e-07
-4.47829e-09
-5.32704e-08
-8.13087e-08
-3.51908e-09
-9.09e-08
-2.3173e-08
7.15368e-10
1.07582e-07
-1.07467e-07
7.83866e-08
-1.91889e-07
1.07516e-07
-1.09366e-09
-5.77278e-10
7.02235e-08
6.53923e-08
-1.31633e-07
-3.98239e-09
-1.61998e-07
8.09706e-08
-2.28131e-08
-2.68069e-08
-3.67176e-08
1.27049e-07
-6.35243e-08
-2.95009e-08
7.11631e-08
3.07306e-08
-1.40177e-07
-8.94514e-08
9.4175e-08
1.35453e-07
7.66376e-08
-5.92374e-09
6.49453e-08
1.28836e-07
-5.31432e-08
-1.40639e-07
-3.77545e-09
1.16396e-07
1.4938e-08
-1.27559e-07
1.10888e-07
-9.43009e-08
-2.05893e-08
4.00204e-09
1.417e-07
-1.90537e-07
1.76104e-07
1.4133e-07
-6.8608e-08
-6.5898e-08
-6.82445e-09
4.19838e-08
-1.68634e-07
-1.20346e-07
-1.20855e-07
1.94225e-11
-1.87115e-07
1.57683e-07
-1.63227e-07
1.92659e-07
8.22578e-08
-1.53173e-07
-2.62372e-08
1.19295e-07
-1.18272e-07
-4.7738e-10
-5.4609e-10
6.01622e-08
-1.19562e-07
-5.30728e-09
-6.43001e-09
8.23679e-08
-1.76601e-07
7.78385e-08
-1.35218e-07
-7.55021e-11
2.58594e-10
1.35035e-07
-1.44711e-07
1.3799e-07
-1.25644e-07
-8.49816e-08
-2.82381e-08
-7.19539e-09
5.93761e-08
6.93125e-08
-6.06002e-09
-5.25729e-08
-5.98739e-08
-5.77837e-09
-3.65887e-09
-1.03038e-07
-1.00461e-07
-1.02837e-09
-5.73371e-09
6.93306e-08
-6.89332e-08
6.68997e-10
-1.0663e-09
1.06662e-07
-1.04564e-07
-1.37857e-09
-7.19561e-10
-1.07623e-09
1.26719e-07
-1.25496e-07
-1.46408e-10
-1.3168e-07
1.40727e-08
1.11867e-07
5.74015e-09
1.26505e-07
-1.20231e-07
-4.36072e-09
-1.91259e-09
-1.0691e-07
-1.13716e-09
1.0871e-07
-6.6288e-10
-1.03327e-07
-6.30842e-08
9.61464e-08
3.37794e-08
-9.37025e-09
-1.20556e-07
7.54217e-08
-8.00457e-08
3.7889e-09
8.35112e-10
4.4813e-08
3.70387e-08
-1.27006e-07
1.08826e-07
-1.05905e-07
-7.29496e-09
4.37422e-09
-5.04743e-08
5.09118e-08
1.51675e-07
5.35963e-09
1.27505e-07
-9.53298e-08
1.20226e-08
-2.74194e-08
-1.16607e-08
-1.01097e-07
-3.15967e-08
1.95617e-07
6.10956e-09
-1.70276e-07
1.29242e-07
-3.32328e-08
-1.92356e-08
2.08696e-08
-7.94269e-08
5.83937e-09
-1.2429e-07
1.24095e-07
5.79792e-08
-6.98045e-08
-2.99205e-08
7.69052e-08
2.18054e-09
6.23163e-08
5.59094e-08
-7.71378e-08
-8.23886e-08
1.13758e-07
-1.25553e-08
-6.99852e-08
5.84394e-09
9.3396e-08
1.12626e-08
2.22517e-08
2.44334e-08
-1.05375e-08
5.10573e-08
5.92464e-08
6.93263e-09
-4.88574e-08
1.59802e-07
-1.65733e-07
-1.73476e-07
8.6192e-08
2.19379e-07
-1.47735e-07
1.05556e-07
-3.1945e-08
6.05806e-08
-1.34191e-07
-1.22843e-07
-4.22814e-08
-1.43572e-07
-5.68101e-09
-1.0085e-07
7.97945e-08
-8.78273e-08
1.08883e-07
8.33316e-09
-1.18631e-07
-1.40265e-07
-7.46665e-09
-3.85757e-09
-1.2663e-07
1.146e-07
1.22918e-07
1.93816e-08
1.02142e-07
2.09445e-09
-1.31938e-07
1.21934e-07
-8.4796e-08
9.47994e-08
-1.00945e-07
1.30726e-08
-2.03196e-08
-3.44015e-08
-9.68132e-09
1.02507e-07
-4.79275e-08
-1.11431e-07
-4.30413e-08
1.22371e-08
-7.04216e-08
-8.45716e-08
7.61664e-09
-6.93092e-08
7.96581e-08
7.96197e-08
2.32413e-08
4.22153e-08
-1.45076e-07
6.50891e-08
1.60753e-08
-7.13932e-08
-2.92682e-09
-7.96099e-08
-8.92503e-08
6.86187e-09
6.20024e-08
-7.20045e-08
-4.76418e-08
5.76439e-08
-4.88738e-08
-8.94864e-09
1.45645e-07
-1.83876e-07
3.87667e-08
-5.36195e-10
-8.1331e-09
2.70186e-08
7.85507e-08
-9.74362e-08
5.08118e-10
-9.3041e-08
-8.15845e-10
9.33487e-08
-9.99965e-08
9.96528e-08
1.44205e-10
1.99461e-10
1.29203e-07
-7.10629e-08
-1.30966e-07
-6.06726e-08
-3.78432e-08
1.00214e-07
-1.69801e-09
1.52532e-07
1.15622e-08
-1.15179e-07
5.8369e-09
-1.38484e-07
1.65378e-08
-5.8512e-10
-1.53002e-07
-1.13412e-07
1.13649e-07
-3.12861e-10
8.80925e-08
6.79339e-08
-1.40845e-07
-1.31299e-08
-1.47836e-08
2.25343e-07
-8.25571e-10
-9.64788e-08
-1.57999e-09
9.68159e-08
-9.58323e-08
5.28048e-11
-3.48559e-09
1.28876e-08
2.61515e-08
1.21082e-07
-2.34791e-08
1.14735e-07
-8.99398e-09
-3.24462e-09
1.26584e-07
-1.219e-07
-1.43973e-09
-1.03103e-07
1.10814e-07
-5.78839e-09
1.20514e-07
5.44308e-09
-3.13782e-08
-9.45787e-08
1.17411e-07
1.66007e-09
-1.16986e-07
-2.08573e-09
-7.01077e-08
-5.3262e-08
7.00994e-08
8.86088e-08
1.53165e-09
1.55532e-07
1.92029e-08
-3.564e-08
-1.44068e-08
3.74754e-09
-7.72002e-08
1.21326e-07