/*--------------------------------*- C++ -*----------------------------------*\
| =========                 |                                                 |
| \\      /  F ield         | OpenFOAM: The Open Source CFD Toolbox           |
|  \\    /   O peration     | Version:  2212                                  |
|   \\  /    A nd           | Website:  www.openfoam.com                      |
|    \\/     M anipulation  |                                                 |
\*---------------------------------------------------------------------------*/
FoamFile
{
    version     2.0;
    format      ascii;
    arch        "LSB;label=32;scalar=64";
    class       volVectorField;
    location    "0.03";
    object      U;
}
// * * * * * * * * * * * * * * * * * * * * * * * * * * * * * * * * * * * * * //

dimensions      [0 1 -1 0 0 0 0];

internalField   nonuniform List<vector> 
31639
(
(0.119547 0.000677217 -0.000525015)
(0.117142 -0.000356396 3.02899e-06)
(0.118726 -0.000228467 0.00077075)
(0.121476 4.33798e-05 -0.000158427)
(0.11817 -0.000697457 -0.000285262)
(0.117691 6.99609e-06 -5.52658e-05)
(0.116348 4.2854e-05 -0.000331874)
(0.118971 -7.55102e-05 -9.42034e-05)
(0.118871 0.000146875 -0.000219188)
(0.120071 -0.000347888 -0.000491484)
(0.120538 0.000481058 -0.000140363)
(0.119804 -0.000523678 -0.000725306)
(0.11775 -0.000342995 -4.40243e-06)
(0.119845 3.01015e-05 0.000114396)
(0.11637 -0.000375799 2.2862e-05)
(0.116655 -0.000366911 0.000690916)
(0.118368 0.00029561 0.00013548)
(0.116054 4.26525e-05 0.000374396)
(0.116941 0.000126246 -0.000407454)
(0.118241 -9.03855e-05 -9.97868e-05)
(0.112335 -0.000254197 -0.000402399)
(0.120342 -0.000243157 -0.000536334)
(0.120198 0.000677236 -0.00017986)
(0.117059 0.000147834 -0.000195188)
(0.115693 -0.000120806 -0.000102417)
(0.118744 -9.76759e-05 7.04987e-05)
(0.118214 3.26288e-05 -7.50915e-05)
(0.120928 0.000502697 -0.000134357)
(0.116435 0.000400055 0.000612377)
(0.119928 5.30381e-06 0.000491948)
(0.120497 -0.000135707 -0.000104724)
(0.115955 -9.64251e-05 -0.000139075)
(0.120354 0.000296236 -0.000490014)
(0.116943 -0.000152377 -9.2043e-05)
(0.113734 1.98842e-05 0.000113649)
(0.120445 0.000463335 -3.73681e-06)
(0.111269 -0.0002833 -6.33833e-05)
(0.12116 -0.000434284 0.00033173)
(0.120268 -0.000307625 0.000274828)
(0.111214 5.01706e-05 -8.05939e-05)
(0.114633 -7.81628e-05 -0.000341203)
(0.113227 -0.000371073 0.000139406)
(0.119663 0.000158206 -7.07668e-05)
(0.120808 -0.000787222 -0.000815307)
(0.11956 -0.0005431 0.000682907)
(0.121024 -0.000750019 -0.000388579)
(0.115447 0.000257526 -0.000264708)
(0.117805 0.000437112 -0.000384892)
(0.118058 -6.16773e-05 0.000197338)
(0.121023 -0.000385044 -0.000279025)
(0.12072 -0.000133741 -0.000422273)
(0.112595 0.000201469 -0.000192883)
(0.120287 0.000521112 0.000177703)
(0.11177 -0.000198346 0.000290783)
(0.118225 -0.000305376 -0.000176924)
(0.117902 0.000119761 0.000108863)
(0.113112 -3.69894e-05 -0.000624403)
(0.11817 8.9683e-05 0.000337001)
(0.117813 6.47019e-05 0.000340967)
(0.113741 0.000187496 -0.000163426)
(0.119176 -0.000143146 -0.000405039)
(0.119655 0.000348615 -0.000161091)
(0.115999 -0.000198297 -0.000349925)
(0.117826 2.16955e-06 -0.000135215)
(0.118806 0.000365025 5.65184e-05)
(0.121111 -0.000195659 -0.000533918)
(0.118634 0.000155369 -0.00094735)
(0.117978 -0.000282265 0.00010152)
(0.114629 -3.3254e-05 -0.000343095)
(0.121073 0.00031458 -0.000189051)
(0.119486 9.03617e-05 -0.000229148)
(0.115046 0.000148268 -0.00109938)
(0.119802 -0.000374343 -0.000758234)
(0.118353 -0.000121433 -0.000191371)
(0.119231 0.000445361 -1.53228e-05)
(0.112155 0.000232644 -0.000666889)
(0.120664 -0.000650551 0.000224576)
(0.117359 0.000279453 -0.000589802)
(0.117245 -0.000163587 0.000338146)
(0.119441 0.000282047 -7.10382e-05)
(0.115972 3.33028e-05 0.0001428)
(0.10995 -0.000124819 6.28961e-05)
(0.120582 -0.000249689 0.000138825)
(0.11871 -0.000244294 -0.000215627)
(0.118588 -5.26648e-05 -0.000140476)
(0.120537 -0.000322739 -0.000247079)
(0.121133 3.42599e-05 0.000126543)
(0.120855 -0.000187943 -0.000371035)
(0.112947 0.000897018 -0.00135847)
(0.12004 -0.000263011 -0.000432806)
(0.118752 -0.000286304 0.000282051)
(0.117154 -0.000414578 -0.000106361)
(0.113921 -0.000481622 -0.000330244)
(0.116525 0.000462216 -0.000737636)
(0.116008 -0.000719779 -0.000344456)
(0.116915 0.000923028 0.00030282)
(0.118344 0.00021688 -0.000407894)
(0.118316 -0.000120009 0.000172812)
(0.117788 0.000148557 0.000187899)
(0.113224 -0.00086324 -6.67075e-05)
(0.119144 9.47788e-05 -7.96629e-05)
(0.119116 0.000299034 0.000619636)
(0.116601 -0.000252638 -0.000179539)
(0.112378 7.54055e-05 -0.000179344)
(0.113609 -3.32381e-05 -0.000337585)
(0.121094 -0.000545842 -0.000257418)
(0.111901 0.000370569 -0.000388895)
(0.112933 -0.000740969 -0.000792586)
(0.115136 0.000423466 1.45671e-05)
(0.111586 -0.00012133 0.000561542)
(0.119315 -0.00101092 0.000229479)
(0.114004 -6.65142e-05 -0.000263613)
(0.11769 -4.36824e-05 -0.00026523)
(0.117012 -0.000589504 -0.000618805)
(0.118151 0.000158961 -0.000669048)
(0.112282 -0.000453041 0.000262617)
(0.117114 0.000502299 -3.52569e-05)
(0.116583 -0.000594054 -0.000111944)
(0.119062 4.56975e-05 -1.2747e-06)
(0.117596 -0.000285919 9.80291e-05)
(0.118633 -0.000450043 -7.22066e-05)
(0.119809 -0.000507919 0.000368857)
(0.120376 7.17538e-05 -0.000593022)
(0.11914 0.000312891 -0.000691849)
(0.118965 -0.000118218 -0.000786373)
(0.11992 -0.000315848 0.000121743)
(0.117527 -2.72519e-05 0.00028707)
(0.115993 0.000170862 -0.000249849)
(0.115777 -0.000567229 -0.000273868)
(0.119969 -0.000251681 0.000116873)
(0.119621 5.47648e-05 -0.000285985)
(0.120209 0.000205905 -0.000414369)
(0.119552 -0.000424436 1.49469e-05)
(0.118103 -0.000131687 6.12499e-05)
(0.120135 -0.000120512 -0.000160404)
(0.118384 -0.000111013 9.9998e-06)
(0.113752 -0.000140323 -0.000320659)
(0.112961 -0.000690664 -0.000395475)
(0.120448 0.000402849 0.00054247)
(0.118006 -0.000401743 -0.000395474)
(0.117727 -0.000104796 -0.000354562)
(0.120859 0.000258743 0.000977229)
(0.120152 0.00048592 0.000232228)
(0.112393 -0.000307781 -0.000442837)
(0.112788 -0.000117968 -0.000640723)
(0.119793 -0.000191308 -7.88653e-06)
(0.119626 -0.000214101 -0.000301812)
(0.11339 -0.00021278 -0.000416094)
(0.113945 -8.7636e-05 0.000118263)
(0.120081 -0.000349581 -2.09563e-06)
(0.115803 -6.94212e-05 -0.00106097)
(0.11738 5.15189e-05 0.000211135)
(0.117619 -0.000255 -0.000763872)
(0.119831 -0.000163014 2.19332e-05)
(0.114109 0.000636153 -0.00107297)
(0.121421 4.47801e-06 6.48413e-05)
(0.119047 -0.000220668 -0.00026445)
(0.114713 -0.00117705 -0.000148528)
(0.113384 -0.00070146 0.000889298)
(0.11675 -0.000370301 -0.000235835)
(0.12091 -0.000121118 -0.000437937)
(0.112353 0.000239445 0.000141643)
(0.114019 0.00010564 -0.00105361)
(0.113031 -0.000370422 0.000146487)
(0.112542 -0.0011272 0.000142117)
(0.116401 0.000101091 -0.000125709)
(0.113098 0.000416783 0.000109232)
(0.12045 -0.0006528 0.000194659)
(0.120594 -0.000427941 0.000228363)
(0.113083 0.000207485 -0.000675114)
(0.114062 -0.000637859 0.000387891)
(0.117298 0.000575706 -0.000610107)
(0.113618 -0.000102018 -8.11177e-05)
(0.118375 -8.27046e-05 0.00044973)
(0.121065 -0.000228398 -0.000281475)
(0.119409 -0.000589993 -0.000401257)
(0.118115 0.000605042 0.000197112)
(0.119946 0.000256345 0.000422427)
(0.118642 -0.000449792 -6.75225e-05)
(0.117156 -0.000303234 -0.000220057)
(0.117476 0.000126877 -0.000104301)
(0.117049 -0.000553001 0.000701085)
(0.116656 6.78926e-05 0.000207698)
(0.111435 0.00103624 -0.000510749)
(0.118466 -7.70684e-05 0.000149072)
(0.120539 0.000369585 -0.000287953)
(0.116515 -3.93099e-05 0.000487393)
(0.120073 0.000252706 -3.31729e-05)
(0.11379 -0.000245563 7.50974e-05)
(0.11199 -0.000169529 0.000348394)
(0.120925 -0.000217014 -0.000107903)
(0.119846 -0.000224934 -0.000246777)
(0.118045 -0.000306646 0.000548033)
(0.117631 -0.00010004 0.000235616)
(0.11808 -6.31016e-05 -0.000318151)
(0.117833 -8.2265e-05 -0.000577695)
(0.117599 0.000515153 0.000430916)
(0.119851 0.000304561 -0.000427241)
(0.113591 -9.10118e-05 -0.000264773)
(0.116845 0.000189424 -0.000180455)
(0.120749 0.000118865 0.00010474)
(0.119857 -0.00029662 -0.000105608)
(0.118945 -0.000438278 6.55004e-05)
(0.118099 -0.00134928 -0.000404766)
(0.118051 -0.000536355 -0.000429804)
(0.117096 -4.17988e-05 -0.000352792)
(0.117902 -0.000148821 -0.000427333)
(0.116785 0.000525084 -0.000492275)
(0.119816 4.79601e-05 -0.000411092)
(0.112369 -0.000177098 -3.6796e-05)
(0.117961 -4.61513e-05 -0.000110084)
(0.117269 0.000475481 -3.08036e-05)
(0.118412 -8.03057e-06 -0.000441498)
(0.12004 -6.48745e-05 -0.000495097)
(0.119437 -0.000447922 -0.00039859)
(0.120424 -0.000121932 -0.000285608)
(0.11379 -0.00103919 -0.000381572)
(0.115892 -0.000461988 0.000425161)
(0.119791 -0.000346115 -0.000268664)
(0.120567 -0.000152355 0.000230598)
(0.119669 5.22007e-05 0.000241751)
(0.117826 -0.000359026 -0.000525603)
(0.110891 -0.000179736 0.000649361)
(0.117866 -0.000599364 0.00046249)
(0.112949 -0.000461845 -0.000299996)
(0.116126 0.000390819 3.4551e-05)
(0.119833 -0.000413685 0.000512011)
(0.115947 0.00022989 0.0004087)
(0.112555 0.000381674 -0.000244271)
(0.118211 0.000116603 0.00025139)
(0.119137 0.000347982 -0.000203812)
(0.120707 -0.000256838 -6.75386e-05)
(0.112936 -0.000263242 -4.10941e-05)
(0.112115 -0.000630554 0.00016541)
(0.118594 -0.000371474 0.000275928)
(0.119951 8.69841e-05 -0.000629886)
(0.113324 6.36353e-05 0.000433956)
(0.12015 -0.000766908 0.000240625)
(0.115469 6.12367e-05 -0.000450578)
(0.113804 -0.000373699 0.000144406)
(0.117519 0.000206435 -0.000306741)
(0.118989 -0.000261001 1.20984e-05)
(0.116629 -0.000937375 -4.95131e-06)
(0.115394 0.000233442 0.000865583)
(0.11626 0.000231097 0.000305625)
(0.118001 -0.000172648 -0.00011452)
(0.117038 0.000515881 -0.000395451)
(0.115833 0.000333198 -0.000894602)
(0.112514 -0.000469964 0.000473142)
(0.117218 0.000345557 -0.000493134)
(0.11751 0.000145415 -0.000627948)
(0.114669 -0.000195084 -2.29771e-05)
(0.116081 -0.00103138 0.000221312)
(0.120183 2.14574e-05 -0.000147944)
(0.1205 0.000601986 9.51027e-05)
(0.117953 0.000522067 -0.000110814)
(0.113699 0.000109012 -5.79774e-05)
(0.120164 0.000257904 -0.000206842)
(0.119505 0.000364926 -0.000526314)
(0.117643 -0.000364031 -0.000366703)
(0.121231 0.00016135 0.000779082)
(0.120846 0.000120354 -0.000369189)
(0.119151 0.000220831 -0.00045596)
(0.120642 3.29206e-05 0.000110453)
(0.116684 0.000417546 7.87298e-05)
(0.117698 -0.000278392 -0.00064752)
(0.112315 0.00032536 -0.00150599)
(0.116061 -0.000124511 -0.000210827)
(0.119998 -0.00082575 0.000210675)
(0.116508 6.51156e-05 0.000336112)
(0.119704 0.000297169 -7.06896e-05)
(0.117321 0.000466894 -0.000665496)
(0.118235 -0.00019327 4.13665e-05)
(0.119063 0.000202446 0.000351925)
(0.120933 1.3297e-05 -0.000642756)
(0.118377 0.000587664 0.000169974)
(0.113123 0.000223998 -1.24452e-05)
(0.117047 0.000117891 0.000136468)
(0.114441 0.00148981 -0.000362085)
(0.120607 -0.000189696 -0.000862765)
(0.117149 -0.000581319 -0.000258113)
(0.119795 -2.28703e-06 -0.000411035)
(0.118407 7.42285e-05 -0.000300833)
(0.116103 -0.000107395 -0.000470837)
(0.11255 -7.88527e-06 1.57354e-05)
(0.114111 0.000144208 -0.000570135)
(0.113641 0.000257231 0.000195771)
(0.112257 -0.000301703 0.000109953)
(0.120899 -0.000380105 -0.000357225)
(0.112965 -0.00041785 -0.000526932)
(0.118884 -0.000364238 0.000211412)
(0.118409 0.000552481 -0.000258833)
(0.117048 1.33483e-05 -0.000225019)
(0.114041 -0.000153377 -0.000179728)
(0.120386 -0.000741206 1.57439e-05)
(0.117316 9.73477e-05 -0.000722658)
(0.115361 0.000103749 0.000612531)
(0.120114 0.000219829 -0.000439535)
(0.118667 -0.000152699 -9.68471e-05)
(0.114179 0.000427383 0.000396153)
(0.116777 8.14996e-05 -7.797e-05)
(0.113517 0.000207199 -4.21372e-05)
(0.118245 0.000322101 -0.000287977)
(0.117229 0.000261724 -0.000162237)
(0.114014 0.000377656 0.000807114)
(0.117689 -5.54118e-05 -0.00022222)
(0.116848 0.000955086 0.000363637)
(0.111297 0.000127552 -0.00112247)
(0.11133 0.000340533 0.000305428)
(0.119476 -0.000555731 0.00023534)
(0.12055 0.000141333 -3.09005e-05)
(0.120953 0.000174495 -0.000121171)
(0.112691 0.000223495 0.000127482)
(0.114165 -8.96956e-06 0.000372375)
(0.119851 0.000264525 0.000302938)
(0.115362 -0.000221101 -0.000254323)
(0.115071 0.000627388 -0.000783832)
(0.119743 0.000286855 0.000417636)
(0.120225 -0.0004307 -7.65551e-05)
(0.116938 -0.00073071 0.000102022)
(0.120025 -0.000839514 -0.000297678)
(0.121025 2.1604e-05 -0.000229457)
(0.113328 -0.000133452 -0.000224176)
(0.12105 -0.00089128 -0.000420552)
(0.111377 0.000302963 -0.000147905)
(0.112428 -5.27884e-05 -6.65487e-05)
(0.120482 -0.000422322 -0.000243421)
(0.119775 -0.000527279 -0.000131112)
(0.120874 0.000183277 -0.000642816)
(0.120985 0.000505783 -0.000914106)
(0.119656 -7.82291e-05 -0.000673966)
(0.114476 0.00106982 -0.000544817)
(0.116109 -0.000900427 0.000663263)
(0.117339 -1.30785e-05 -0.000162218)
(0.119182 -0.000871519 9.30389e-05)
(0.120487 0.000863945 0.00065799)
(0.120739 -0.000683644 0.000257002)
(0.117688 0.000159337 -0.000224227)
(0.115761 -0.000888484 0.000473618)
(0.117478 -0.000146995 -4.03515e-05)
(0.120174 3.82725e-06 -0.00018558)
(0.119393 -2.74191e-05 -0.00092514)
(0.116362 0.000129432 -0.000251657)
(0.118505 -0.000270206 -6.03527e-05)
(0.117299 0.000596504 -0.000519552)
(0.116991 -0.000334138 -0.000312158)
(0.119221 -0.000268019 9.12089e-05)
(0.116151 -0.000870449 0.000768995)
(0.113503 -0.000150646 2.88197e-05)
(0.117973 0.000659454 -0.000644851)
(0.119463 -5.5937e-06 1.83909e-05)
(0.116535 6.95755e-05 -0.000179722)
(0.119186 0.000361906 0.000266594)
(0.12006 -0.00061042 0.000198848)
(0.118262 0.000134646 -0.000298917)
(0.114306 0.000331089 -0.000401442)
(0.117547 0.000361022 -0.000385661)
(0.116737 0.000349304 0.000315842)
(0.112453 0.000260773 -0.000436856)
(0.119691 -0.000841625 0.000206308)
(0.112467 0.000487465 0.000415)
(0.118899 -9.38934e-05 -0.000464289)
(0.120626 -0.00083391 -0.000134607)
(0.113223 -0.00025713 0.000148026)
(0.118078 0.000279179 1.73868e-05)
(0.117016 0.000342179 0.000475631)
(0.112911 -0.000214287 0.000109612)
(0.118617 -0.000135088 -0.000112427)
(0.114311 1.7383e-05 -0.00020392)
(0.117282 -8.27002e-05 0.000578596)
(0.120148 0.000494516 0.000115532)
(0.118781 8.39374e-05 0.000193787)
(0.112136 0.000326255 -0.000115345)
(0.119141 0.000196731 1.63843e-05)
(0.1141 0.000153704 -0.000394007)
(0.119106 -0.00013384 -2.89888e-05)
(0.119305 0.000292301 3.56261e-05)
(0.11969 -0.000311526 -0.000445756)
(0.120342 -0.000260664 -0.000441717)
(0.113182 -0.000100452 -0.000498422)
(0.11949 -0.000935567 0.000177931)
(0.112558 -1.51364e-05 -0.000491642)
(0.117083 3.3754e-05 -0.000387278)
(0.113247 0.000135204 -0.000256829)
(0.12115 9.95742e-06 -0.000352172)
(0.12042 0.000126445 -0.000377018)
(0.121062 -6.76132e-05 3.06664e-05)
(0.120599 -0.000370855 -0.000502287)
(0.118052 -8.1336e-05 -0.000383408)
(0.119663 -7.83353e-05 0.000193437)
(0.117508 0.000221896 -3.08672e-05)
(0.118282 0.000143564 -0.000236297)
(0.117826 0.000129132 -0.000354301)
(0.114038 6.3191e-05 9.16375e-05)
(0.119335 -0.000104956 -0.000346823)
(0.117911 -0.000304407 -0.000142739)
(0.118202 -0.000263413 -0.000242249)
(0.119982 8.82792e-05 8.49704e-05)
(0.119494 -8.62784e-06 -0.000505464)
(0.119662 4.68764e-05 0.000145034)
(0.117135 -0.000659399 0.000106608)
(0.112456 -8.26072e-05 0.00065663)
(0.117038 0.000228741 0.00028847)
(0.119317 0.000134344 0.000235546)
(0.118845 -0.000296168 0.000153532)
(0.113184 -0.000521306 -0.000444003)
(0.120506 3.78417e-05 -0.000333243)
(0.120238 -8.45611e-05 -0.000717677)
(0.116577 0.000185074 -0.000514246)
(0.119424 -0.000349704 -0.000486683)
(0.119796 -0.000176573 -0.00100059)
(0.119084 -0.000243694 -0.000572716)
(0.119499 -0.000304153 -6.50953e-05)
(0.112793 -0.000234696 -0.000120361)
(0.118744 -0.000295876 9.39563e-05)
(0.119419 -0.000396895 0.000267728)
(0.111273 0.000144313 -8.19567e-05)
(0.118236 -0.000646371 4.40284e-05)
(0.118903 -0.000305024 -0.000216727)
(0.115337 0.000150845 0.00016622)
(0.112267 -0.000177651 6.67868e-05)
(0.112285 -0.000189742 0.000623319)
(0.116805 -0.000822246 0.000136591)
(0.111937 0.000311237 -0.000271568)
(0.117446 2.59013e-06 0.000189736)
(0.118287 -0.000159064 3.31698e-05)
(0.115563 0.00053652 0.000321278)
(0.119233 0.000572941 -9.22851e-05)
(0.113274 -0.000123475 0.000179244)
(0.119155 0.000400953 0.000120025)
(0.121171 0.000191636 1.47959e-05)
(0.117545 -0.000172786 8.32055e-05)
(0.118994 -8.97967e-05 0.000506695)
(0.116947 6.36013e-06 7.03526e-06)
(0.120477 0.000720483 -0.000193396)
(0.118531 0.000443619 -4.8743e-05)
(0.118173 -8.96304e-05 -0.000555568)
(0.121244 1.67133e-06 -0.000435892)
(0.118038 4.47689e-05 -0.000328647)
(0.113119 -3.55096e-05 0.000192757)
(0.117697 -5.49233e-06 -0.000182296)
(0.12092 0.000239133 -0.000909516)
(0.120239 0.000274535 -0.000550013)
(0.119413 -8.30799e-05 0.000526661)
(0.120309 0.000162557 -4.85802e-05)
(0.117833 -0.000622701 0.00042067)
(0.119356 -0.000234578 0.000139242)
(0.118674 0.00012693 0.000297036)
(0.119811 0.000154268 -0.000260638)
(0.120098 -0.00054305 -0.000285613)
(0.112119 -0.000409365 -0.000225773)
(0.117152 -0.000374535 0.000182976)
(0.111014 -0.000221766 0.000144964)
(0.116781 0.000378448 0.000633383)
(0.116603 -2.71618e-05 -0.000555634)
(0.11304 -0.000440905 0.000601399)
(0.112158 -0.000405599 -0.000438076)
(0.117599 0.00032316 -0.000243759)
(0.118755 -0.000346486 -9.38079e-05)
(0.120041 5.31331e-05 -0.000557277)
(0.113278 -5.77985e-05 0.000437518)
(0.118915 -0.00022017 0.000135864)
(0.117098 -9.59724e-05 0.00015239)
(0.117762 -0.000143164 -0.000500669)
(0.118654 6.37788e-05 -0.000516596)
(0.113616 0.00101237 0.00210703)
(0.117769 -4.81394e-06 -0.000537859)
(0.112872 0.000104795 0.000349411)
(0.116445 -0.000311221 -0.000319482)
(0.119628 -0.000182825 1.73632e-05)
(0.121365 0.00117419 0.000419913)
(0.120089 0.000185265 -0.000865389)
(0.118155 0.00062641 -0.00058318)
(0.111918 0.000198976 0.000901794)
(0.119048 -0.000246047 6.99532e-05)
(0.11875 1.83565e-06 -0.000351949)
(0.119833 -0.000228556 -0.000368295)
(0.112256 6.97563e-05 1.63123e-05)
(0.114406 -0.000133375 0.000321415)
(0.11691 0.000382064 0.000437668)
(0.114196 0.000396002 -0.000269546)
(0.111784 -0.000453302 -9.31929e-05)
(0.119449 -9.24872e-06 -0.000356619)
(0.113869 -5.08978e-05 -2.42569e-05)
(0.116272 0.000770785 0.000213306)
(0.113115 -0.000499842 -0.000818211)
(0.11919 0.000248008 3.83039e-05)
(0.113706 5.97318e-05 -0.000232537)
(0.120553 -9.47547e-05 0.00046529)
(0.119591 0.000173262 -0.000350952)
(0.120737 -0.000121035 0.000496885)
(0.120817 -0.000100499 -0.000329284)
(0.113563 -3.06643e-05 0.000167339)
(0.120069 0.000163875 0.000227807)
(0.120889 -0.000109759 -0.000179538)
(0.118144 -0.000361775 0.000255106)
(0.119221 0.000487172 -0.000170746)
(0.118723 -0.000407961 -0.000244151)
(0.120478 0.000360751 -5.69338e-05)
(0.119761 0.000117519 0.000564413)
(0.115657 7.71188e-05 -0.000403201)
(0.121469 -9.74992e-05 -0.000109056)
(0.120984 -0.000218622 5.05826e-05)
(0.118191 -0.000153195 -9.01915e-06)
(0.116818 -0.000335391 -0.000752951)
(0.120306 -0.000408479 -0.000226332)
(0.118346 0.000219673 -6.51651e-05)
(0.111551 0.000594029 -0.000278211)
(0.11158 0.000393443 -7.05087e-05)
(0.117691 2.53346e-05 0.000164005)
(0.119931 6.35925e-05 0.000109009)
(0.120981 -0.000165909 -0.000213846)
(0.115921 -0.000262121 -7.77949e-05)
(0.119951 0.00038936 0.000236595)
(0.118994 -0.000135665 0.000363931)
(0.120619 0.00102609 0.0008638)
(0.117985 -3.59871e-05 -3.37326e-05)
(0.117282 0.000453572 -0.000327391)
(0.11835 -0.00157622 0.000878134)
(0.112891 -5.12843e-05 -0.000180944)
(0.117204 8.09e-05 0.000101012)
(0.118394 1.21818e-05 -0.00014685)
(0.120361 4.31693e-05 -7.31579e-05)
(0.114201 -0.000287882 4.84701e-05)
(0.11461 0.000457534 -0.000496371)
(0.115551 -7.24481e-05 -0.000352157)
(0.115563 -0.00040825 -9.9809e-05)
(0.11781 -0.000110706 -0.000511348)
(0.11252 -7.90303e-05 -0.000452149)
(0.119751 0.000338452 -0.000738679)
(0.116508 0.000124997 -0.000212333)
(0.118938 5.25503e-05 0.000855117)
(0.116962 -0.000212229 -0.000100725)
(0.121021 -0.000246029 -0.000285658)
(0.117893 -8.80774e-05 -0.000731192)
(0.112534 0.000157402 0.000533125)
(0.118435 0.000819086 0.000147434)
(0.121064 -0.00013773 -0.000859918)
(0.113356 0.000303711 0.000992123)
(0.119851 -3.40276e-05 -0.00068719)
(0.121349 -0.00104818 -0.000422954)
(0.118207 -0.000331976 7.07888e-05)
(0.117066 0.000254539 0.000105736)
(0.12149 -0.000238635 -0.000620644)
(0.115587 2.06939e-06 -9.47258e-05)
(0.117966 -0.000371135 -4.14955e-05)
(0.117713 0.000184899 0.000159104)
(0.113622 -2.60132e-05 3.78377e-05)
(0.113922 -8.77361e-05 -0.0011327)
(0.117015 0.000224161 0.000303708)
(0.115723 0.000537363 0.000151721)
(0.11951 -6.94951e-05 -0.000288066)
(0.115322 -0.000347373 0.000304166)
(0.116786 0.000359866 0.000450338)
(0.120754 0.000119037 0.000286478)
(0.117176 0.000178213 -3.35668e-05)
(0.112135 0.00022229 0.000220548)
(0.11557 0.000212828 1.63398e-05)
(0.118161 0.000361328 -0.000184747)
(0.120939 -0.00017058 0.000164458)
(0.11243 0.000653845 0.000448846)
(0.112383 -5.9378e-05 0.000234438)
(0.120941 0.000201147 0.000803083)
(0.112608 0.000204789 7.67425e-05)
(0.118826 -9.83474e-05 -9.91355e-05)
(0.119598 0.000200424 -0.000227966)
(0.113905 -0.000148688 -0.000761957)
(0.1182 0.000274457 -0.000140331)
(0.120413 0.000321632 -0.000371888)
(0.117604 5.63155e-05 0.000647723)
(0.111161 1.28502e-05 0.000161106)
(0.120476 9.76275e-05 -4.43413e-05)
(0.117608 -5.76344e-05 -0.000355023)
(0.11193 0.000485039 -2.90626e-05)
(0.120609 0.000167397 -0.000130747)
(0.116833 -0.000134438 -0.000140622)
(0.116754 0.000416382 -0.000357314)
(0.119255 -0.000278919 3.62214e-05)
(0.112134 0.000783401 -0.00041342)
(0.116439 -6.53383e-06 -0.000915291)
(0.116332 -0.000483656 3.94916e-05)
(0.117474 0.000117844 -0.000427925)
(0.113761 -8.1663e-05 0.00040963)
(0.115445 -3.28938e-05 -3.02259e-05)
(0.119469 0.000537559 0.000260656)
(0.121503 -0.00065346 -0.000688804)
(0.121808 -0.000363126 0.000258947)
(0.120682 0.000215509 -0.000154268)
(0.120549 -0.000529108 -0.00018163)
(0.119204 0.000132753 -0.00116665)
(0.115051 -0.000209001 0.000316103)
(0.121483 0.00017085 -0.000865752)
(0.11944 -0.00010303 -0.000109362)
(0.119301 0.000665905 0.000273655)
(0.114055 0.000816941 -0.000248637)
(0.118378 -0.000169323 -0.000227986)
(0.118606 0.000263717 0.000505751)
(0.121717 0.000853891 6.44051e-05)
(0.112658 -4.34352e-05 0.000248295)
(0.111664 -0.000572419 0.000315625)
(0.120413 7.99179e-05 -0.000528773)
(0.115679 -0.000142498 -0.000318328)
(0.120236 9.73494e-05 -2.56281e-05)
(0.116486 -1.89055e-06 -0.00034117)
(0.113869 -0.000142782 -0.000724027)
(0.118447 6.17766e-05 -0.000788549)
(0.12045 0.000364825 -0.000164891)
(0.117723 0.000230489 5.67772e-05)
(0.119634 0.000829258 -0.000247745)
(0.113211 9.79641e-05 -0.00151222)
(0.119815 0.00108306 0.000478866)
(0.119313 -0.00011255 -0.000443356)
(0.111854 0.000305337 -3.10462e-05)
(0.119575 -0.000136907 -0.000443154)
(0.119571 -0.000268049 9.2387e-05)
(0.119814 0.00052339 0.00140714)
(0.113454 -0.000611293 -0.000829348)
(0.112631 0.000250228 -0.00069545)
(0.116889 0.000320264 -0.000322456)
(0.117562 2.30998e-05 0.00085321)
(0.11799 -0.000189756 0.000149032)
(0.117437 0.000422025 0.000160893)
(0.117032 0.000399509 0.000569167)
(0.120191 0.000133695 -2.42946e-05)
(0.118244 -0.000211747 0.000136189)
(0.118547 0.000194463 0.000154272)
(0.114023 -0.000262269 0.000595168)
(0.120873 -0.000120425 -0.000925101)
(0.112981 -0.00018643 -5.55468e-05)
(0.118066 0.000747453 5.3897e-06)
(0.117201 0.000371296 -7.1554e-05)
(0.116954 -0.000815858 -0.000509905)
(0.118902 0.000395502 3.05962e-05)
(0.116091 -0.000389804 -0.000409458)
(0.113669 -0.000692287 -0.000431867)
(0.112173 -0.000119552 -0.000457383)
(0.113404 -0.000276435 -0.000206791)
(0.116924 -0.000475276 -0.000360839)
(0.119511 0.000640829 0.00030136)
(0.112829 0.000428167 0.00149313)
(0.119714 -0.000199566 -9.48994e-05)
(0.117135 6.69117e-05 -0.000642894)
(0.120698 -0.00030398 -0.000409288)
(0.112709 -5.26801e-05 -0.000710343)
(0.116161 0.000406415 0.000564198)
(0.119792 6.48067e-05 -0.000567584)
(0.120556 -0.000697187 -3.74427e-05)
(0.119652 0.000289712 -0.000356622)
(0.120527 -0.000231779 -0.000177886)
(0.118434 5.41364e-05 0.000189253)
(0.117332 0.000557938 0.000133409)
(0.120708 -4.36446e-05 0.000370212)
(0.120439 0.000320204 -1.77301e-05)
(0.120846 0.000229687 6.50247e-05)
(0.114345 0.000877321 -0.00034012)
(0.120623 -0.000557814 -0.000685667)
(0.112271 -0.000294736 0.00037235)
(0.120848 0.00067436 -3.69975e-05)
(0.118308 0.000236629 -0.000223734)
(0.117203 1.27324e-05 -0.000418365)
(0.113307 0.000722906 3.34777e-05)
(0.117556 0.00109983 -0.000658052)
(0.110991 -0.000945187 -0.000399481)
(0.119636 3.84129e-05 -0.00039067)
(0.117495 9.92486e-05 -0.000242418)
(0.120127 -0.000125971 -0.000231816)
(0.116749 0.000384633 -0.0002876)
(0.117048 0.00103637 -0.00025722)
(0.112815 -0.000280345 0.000588135)
(0.121026 0.000171652 -1.47322e-06)
(0.113881 -0.000527533 0.000164873)
(0.111451 -0.000252924 -0.000325682)
(0.113683 -0.000218494 9.15748e-05)
(0.114122 0.000194595 0.000106449)
(0.113674 0.000694955 -6.94338e-05)
(0.117718 -0.000292253 9.79825e-05)
(0.112695 0.000129799 -7.53074e-05)
(0.119079 -0.0010168 0.000283434)
(0.119354 1.05295e-05 -0.00048904)
(0.111346 -6.90853e-05 -7.85156e-06)
(0.119203 0.000388952 2.56224e-06)
(0.113352 0.000343743 -0.000681139)
(0.116707 0.000774913 -3.35129e-05)
(0.118012 0.000319392 -4.18914e-06)
(0.117182 -0.000161388 -0.000916088)
(0.119423 8.32911e-05 -0.000107752)
(0.121342 0.000188835 -0.000771093)
(0.119575 4.36487e-05 0.000431696)
(0.11881 2.95033e-05 -0.000237721)
(0.11836 -0.000163462 -0.000974379)
(0.119448 0.000415661 0.000247246)
(0.116496 0.00019865 6.85038e-05)
(0.11697 0.000291538 0.000127361)
(0.111945 0.000656899 -0.000732517)
(0.110785 0.00189082 0.00342346)
(0.120319 5.42371e-06 0.000119214)
(0.117879 3.00596e-05 -0.000184146)
(0.119304 -0.000266695 -0.000140989)
(0.119615 -3.25267e-05 9.94438e-05)
(0.112186 -0.000503744 -7.32114e-05)
(0.120171 -0.000110333 -0.000362489)
(0.120529 0.000500924 -1.49733e-06)
(0.120352 4.84271e-05 0.000146845)
(0.12032 0.000136982 0.000337245)
(0.119011 0.000341871 0.00039998)
(0.118574 -0.000496034 -0.000266447)
(0.120404 -5.54715e-05 1.65023e-05)
(0.12089 -0.000138013 0.000406333)
(0.118794 0.0003464 0.000349795)
(0.120466 0.000151664 -0.000193218)
(0.119713 -0.000356773 -0.000454342)
(0.114525 -0.000311062 -0.000438059)
(0.120186 -0.000125363 0.000232022)
(0.114973 -4.43122e-07 0.000519319)
(0.117861 2.66206e-05 -4.67815e-05)
(0.118164 -0.000713344 -7.36349e-05)
(0.11759 -0.000517567 0.000121939)
(0.1166 0.000614547 7.36951e-06)
(0.119402 0.000290908 -0.000165716)
(0.116932 0.000439085 0.000316587)
(0.118584 0.000354634 -0.000396506)
(0.116744 0.00106147 -0.000508805)
(0.112305 0.00104358 -0.000683726)
(0.121306 0.000387735 -0.000294763)
(0.119139 0.000544483 -0.000175259)
(0.116288 -1.21893e-05 0.000613259)
(0.112686 -0.000530701 -3.05837e-05)
(0.119874 -0.000387937 -8.99888e-05)
(0.11224 -0.000606171 -0.000567342)
(0.120543 -0.00030623 3.00161e-05)
(0.119385 -5.07834e-05 0.000388705)
(0.116828 0.00104205 -0.000409232)
(0.119454 -0.000375622 0.000264907)
(0.120825 8.27225e-05 -0.000474491)
(0.118502 -0.00041709 -9.36452e-05)
(0.112229 -0.000145142 0.000188669)
(0.116975 -0.000147436 -0.000120432)
(0.114853 0.000478912 -0.000515382)
(0.117673 9.35042e-05 -0.000115905)
(0.112338 -0.000498016 -0.000876726)
(0.118993 -0.000125359 -0.000299837)
(0.119514 -0.000480772 0.000512514)
(0.115539 0.000504345 -0.000628756)
(0.117621 6.45996e-05 3.73127e-05)
(0.115158 -5.17624e-06 -0.000190516)
(0.11967 -9.57071e-06 -0.00037836)
(0.116404 -0.000637779 0.000171248)
(0.117555 0.000360424 0.000376321)
(0.112846 -0.000198751 3.70043e-05)
(0.120307 -3.79052e-05 -4.33772e-06)
(0.11833 -0.000442404 -0.000219631)
(0.120328 0.000150988 1.25584e-05)
(0.11515 0.000516639 -0.000344934)
(0.117901 -7.91118e-05 -0.000304884)
(0.118647 9.71768e-05 -0.000308663)
(0.116729 -3.04378e-05 0.000312528)
(0.117954 -7.74454e-05 0.000159071)
(0.117679 -0.000121196 0.000493103)
(0.120092 -0.00038872 8.78075e-05)
(0.117696 -0.000218263 -0.000103584)
(0.113277 5.75607e-06 -0.000192728)
(0.111628 -0.00019447 -0.000587179)
(0.119214 -0.000555823 2.24979e-05)
(0.112337 0.000501064 -0.000868534)
(0.11551 -0.000650248 -0.00114525)
(0.117761 0.000277133 -0.000203299)
(0.117918 0.000256097 1.93954e-05)
(0.120816 0.000551965 -0.000232406)
(0.112213 -8.0975e-05 -7.93442e-05)
(0.117714 -0.00011372 -0.000667589)
(0.121125 5.23558e-05 -0.000357867)
(0.113273 0.000820157 -0.00247919)
(0.113563 0.00138681 0.000115065)
(0.116998 -3.69371e-05 -0.000677906)
(0.113667 -9.95306e-05 -2.64257e-05)
(0.118832 0.000403192 -0.000570007)
(0.113681 -0.000300867 8.01991e-05)
(0.120452 -0.000751956 -0.000309932)
(0.115122 0.000157458 0.000473842)
(0.116119 0.000340193 0.000468406)
(0.121381 0.000316703 0.000746926)
(0.111569 -0.000193401 0.000417463)
(0.116178 0.000126449 0.000394847)
(0.116097 6.18285e-06 0.000555305)
(0.120363 -8.41065e-05 -0.000672533)
(0.120539 5.00215e-05 0.000213844)
(0.120095 2.36298e-05 -0.000197366)
(0.113095 0.00067858 0.000340922)
(0.119205 2.48517e-05 -0.000419998)
(0.119891 0.000181115 0.000792785)
(0.115399 -0.00025835 -0.000125042)
(0.120245 0.00032515 -0.00012327)
(0.119637 0.000275238 0.000197791)
(0.119304 0.000357672 -1.88645e-06)
(0.120312 -0.000120134 -0.00054407)
(0.118031 6.20372e-05 -0.000199832)
(0.121407 3.59402e-05 0.000280208)
(0.120716 0.000681443 0.000777997)
(0.12049 -4.04975e-05 -0.000263021)
(0.118548 0.000493907 0.000339976)
(0.116838 -0.000241289 -0.000430204)
(0.118214 0.000336263 5.75557e-05)
(0.117867 0.000152464 -0.000362961)
(0.11217 -0.00081067 -0.000218837)
(0.116979 -0.000545906 7.21619e-05)
(0.118628 -0.000121405 0.000463223)
(0.120328 -0.000249545 -0.000264148)
(0.120475 -0.000330834 -0.000595119)
(0.117315 -0.000431138 8.88996e-05)
(0.121549 0.0010022 -9.34035e-05)
(0.119678 -4.90062e-05 -1.83989e-05)
(0.116109 -0.000669011 0.000615212)
(0.119219 -3.71938e-05 -0.000396241)