/*--------------------------------*- C++ -*----------------------------------*\
| =========                 |                                                 |
| \\      /  F ield         | OpenFOAM: The Open Source CFD Toolbox           |
|  \\    /   O peration     | Version:  2212                                  |
|   \\  /    A nd           | Website:  www.openfoam.com                      |
|    \\/     M anipulation  |                                                 |
\*---------------------------------------------------------------------------*/
FoamFile
{
    version     2.0;
    format      ascii;
    arch        "LSB;label=32;scalar=64";
    class       surfaceVectorField;
    location    "0.03";
    object      Uf;
}
// * * * * * * * * * * * * * * * * * * * * * * * * * * * * * * * * * * * * * //

dimensions      [0 1 -1 0 0 0 0];

internalField   nonuniform List<vector> 
68568
(
(0.118883 0.000318282 -0.000127607)
(0.118222 0.000612559 -0.000162819)
(0.117935 0.000426766 -2.6749e-05)
(0.120254 0.000828 -0.000311941)
(0.118498 -0.00034428 -0.000233276)
(0.118429 -0.000426657 -0.000426354)
(0.117453 -0.000349025 1.01921e-06)
(0.112502 -0.000160202 -0.000189594)
(0.119517 0.000235102 0.000235583)
(0.119234 -0.000430351 0.000698176)
(0.118189 -0.00027826 0.000185148)
(0.115205 -0.000550294 0.000717963)
(0.121238 -0.000183146 -0.000223259)
(0.120122 -2.04626e-05 -0.000355087)
(0.121215 -0.00010526 -0.000241742)
(0.121441 -0.000143918 -0.000260738)
(0.116403 -0.000223672 -0.000227006)
(0.11899 -0.000462114 -0.000266867)
(0.115848 -0.000205222 -0.000294621)
(0.118627 -0.000475341 -0.000324435)
(0.118937 -3.88149e-05 -4.90566e-05)
(0.117772 1.52462e-06 0.000113138)
(0.119062 -4.53847e-06 0.000126611)
(0.113691 -1.46005e-06 -0.000269296)
(0.117584 -1.00617e-05 -0.000240842)
(0.113485 -0.000116019 5.09855e-05)
(0.11509 0.000148279 -0.000481315)
(0.117625 6.5115e-06 -0.000299423)
(0.117631 0.000247077 0.000391858)
(0.1197 0.000154705 -4.80928e-05)
(0.11846 -4.33804e-05 -6.63876e-05)
(0.118892 -0.000170122 -0.000342014)
(0.117821 6.19137e-05 -0.000255429)
(0.117836 0.000213854 -0.000568949)
(0.119723 -0.000274133 -9.22765e-05)
(0.118961 -0.000431044 -0.000352765)
(0.120312 -8.52068e-05 -0.000581662)
(0.120525 -0.000418525 -0.000405441)
(0.120474 0.000487632 -5.23588e-05)
(0.119485 0.000348345 -0.000126634)
(0.12027 0.000316803 -0.000131928)
(0.117371 -0.000111425 -0.000474343)
(0.120765 -0.00043209 -0.000690902)
(0.120384 -0.000494781 -0.000616463)
(0.118533 -0.000159163 1.66478e-05)
(0.117648 -0.000347522 -3.52714e-05)
(0.112948 4.13154e-05 -0.000313132)
(0.120284 -0.000124673 -0.000181226)
(0.120218 -0.000118923 0.000213141)
(0.119512 -9.53122e-05 0.000109756)
(0.117608 -6.93955e-05 0.000131831)
(0.116492 -0.000308301 -6.42772e-05)
(0.117913 -0.000306398 -0.000174257)
(0.117345 -0.000263938 -6.57532e-05)
(0.112406 -0.000324269 -0.000108284)
(0.117695 -0.000376076 0.000721487)
(0.113599 -0.000293039 0.000417689)
(0.115192 -0.000345852 0.000654769)
(0.117899 -0.000272355 0.000272321)
(0.117276 0.000146138 0.000227117)
(0.118084 0.000259425 0.000242195)
(0.117716 0.000185935 0.000137791)
(0.119074 2.86239e-05 0.000123143)
(0.114012 0.000388657 0.00040669)
(0.114106 -0.000315613 0.000661935)
(0.117445 -6.33563e-05 0.000264563)
(0.117525 0.000104405 -0.000588016)
(0.115357 -0.000274216 -6.61865e-05)
(0.114151 0.000146471 -0.000668518)
(0.117947 -0.000114417 -0.000353958)
(0.118248 1.02417e-05 -7.8045e-05)
(0.119393 -0.000291573 -3.88877e-05)
(0.11905 -0.000439266 8.13851e-05)
(0.114561 -0.000147742 2.72166e-05)
(0.113518 -0.000190803 -0.000372241)
(0.115062 2.22715e-05 -0.000289811)
(0.113792 0.000251545 -0.000306268)
(0.105014 -0.000146405 -0.000450773)
(0.11922 -0.000385328 -0.000510997)
(0.12063 -0.000131249 -0.00057872)
(0.119655 -0.000225018 -0.000568613)
(0.120071 -0.000266976 -0.000683061)
(0.119908 0.000400289 -0.000230164)
(0.119858 0.00040986 -8.27944e-05)
(0.117719 0.000483197 -1.97149e-06)
(0.120554 0.000565179 -0.000227015)
(0.115109 0.00023221 -0.000215267)
(0.115439 -0.000129762 -0.000180612)
(0.117791 0.000186947 -0.000317077)
(0.118203 3.69543e-05 -4.48579e-06)
(0.113156 -1.65906e-05 8.71331e-05)
(0.116871 -9.4427e-05 -6.07616e-05)
(0.114822 0.000258132 -0.000402372)
(0.116975 -5.87965e-05 0.000222213)
(0.117623 6.29024e-05 -5.78981e-05)
(0.117646 -0.000287308 0.000160071)
(0.11959 -0.000161215 0.000693107)
(0.118056 -3.72326e-05 -0.000184063)
(0.119194 -0.000132112 -8.47428e-05)
(0.114318 -7.89171e-05 0.000309593)
(0.121138 0.000391975 0.000233215)
(0.119052 0.0004642 -0.00017321)
(0.121165 0.000401356 -3.60925e-06)
(0.11974 0.000150874 -0.000578902)
(0.118502 0.00023215 0.000386956)
(0.113133 0.000450185 -0.000193063)
(0.114763 0.000401523 0.000131719)
(0.120086 0.00014929 0.000241428)
(0.119241 -2.95092e-05 0.000290422)
(0.120104 0.000113616 0.000254105)
(0.120759 -0.000259449 -0.000210994)
(0.119377 -5.39003e-05 -1.74896e-05)
(0.12087 -0.000214084 -0.000137132)
(0.118898 -0.000116866 -0.000186239)
(0.117202 -0.000256637 -0.000119135)
(0.117213 -0.000109193 -0.000213162)
(0.114095 0.000261678 4.8326e-05)
(0.113675 -0.000305974 0.000331772)
(0.119969 0.000195297 -0.000442848)
(0.11938 2.18738e-05 -0.000297902)
(0.119968 -5.64517e-06 -0.000414617)
(0.120388 -1.81824e-05 -0.000331234)
(0.115216 -9.91593e-05 -0.000223666)
(0.114206 -0.000249826 8.17742e-05)
(0.118166 -0.000177414 3.76488e-05)
(0.118297 -2.46189e-05 0.000100061)
(0.11527 0.00024629 0.000129947)
(0.113211 0.000121185 0.000120321)
(0.113174 5.87766e-06 -0.000167017)
(0.105739 2.68038e-06 0.000113627)
(0.120258 0.00044909 -0.000200865)
(0.113049 3.39309e-05 -4.04756e-05)
(0.113194 -0.000419574 -0.000181924)
(0.111138 -0.000231079 4.48018e-05)
(0.10513 -0.00026463 -3.96035e-05)
(0.120763 -0.000372086 0.000310621)
(0.120672 -0.000548838 0.000183179)
(0.120851 -0.00016583 0.000444558)
(0.120134 -0.000447267 0.000310536)
(0.119054 -0.000283611 0.000326812)
(0.119069 -0.000252487 0.00051532)
(0.120394 -0.000281732 0.000574247)
(0.111958 0.000486599 -0.000383278)
(0.113131 -0.000271048 -3.41056e-06)
(0.105909 7.13812e-05 -0.000105797)
(0.116275 -6.8145e-05 -0.000139141)
(0.11404 -0.000107785 -0.000389299)
(0.106195 0.000101157 -0.000458295)
(0.114635 -0.000159422 0.000154707)
(0.114652 -0.000423267 -6.21051e-05)
(0.115568 -0.000351045 -5.22645e-05)
(0.10535 -0.000272638 0.000145361)
(0.120144 -0.000128426 0.000107955)
(0.118462 -0.000113336 -1.56297e-06)
(0.119297 -0.000291272 -0.000439255)
(0.120309 -0.000788714 -0.000441219)
(0.119081 -0.000780262 -0.000730751)
(0.120443 -0.000564014 -0.000842972)
(0.119735 -0.000493209 0.000597079)
(0.120028 -0.000653484 0.000212955)
(0.119403 -0.000202083 0.000265606)
(0.120919 -0.000568763 -0.000235139)
(0.119824 -0.000623639 -2.18207e-05)
(0.119292 -0.000371892 -0.000359996)
(0.120846 -0.00022963 -0.000449514)
(0.117463 -1.16869e-05 -0.000317393)
(0.116032 0.000421476 -0.000474131)
(0.111538 -3.35485e-05 -0.000298481)
(0.11827 0.000325696 -0.000477892)
(0.118571 3.09485e-05 -0.000346106)
(0.11627 0.000191918 -0.000729469)
(0.115037 0.000107699 -0.000280465)
(0.117187 -0.000181726 0.000201259)
(0.116913 -1.91098e-05 5.48537e-05)
(0.118958 -4.03699e-06 -0.000241097)
(0.117921 -0.000196785 0.000130323)
(0.11997 -0.000118429 -0.00036981)
(0.119328 -0.000225536 -0.000443462)
(0.119514 0.000101026 -0.000365604)
(0.120863 0.000212085 -0.000718178)
(0.121229 -6.0495e-05 -0.000331891)
(0.115223 -0.000118507 -0.000498657)
(0.113163 9.45163e-05 -0.000220151)
(0.113793 6.07854e-05 -0.000123519)
(0.104622 8.97416e-05 -0.000269533)
(0.119527 0.000609085 0.00013411)
(0.118719 0.000477209 0.000143793)
(0.120317 0.000530952 0.000138768)
(0.119873 0.000333043 0.000146574)
(0.112321 -0.000306715 4.72116e-05)
(0.105453 -0.000105994 0.000272333)
(0.116079 -0.000128449 -0.000249976)
(0.115899 -0.000348048 -2.55752e-05)
(0.118788 -0.000170655 -0.00027192)
(0.118826 -0.000278537 -7.54628e-05)
(0.116423 0.000162903 0.00023264)
(0.116924 8.80864e-05 0.000194496)
(0.118778 -0.000181548 5.29605e-05)
(0.114874 -1.23989e-05 -0.000673368)
(0.113682 -4.0856e-05 -0.000332167)
(0.115078 9.69028e-05 -0.000173777)
(0.105513 0.000357525 -0.000298738)
(0.119425 0.00013847 0.000464893)
(0.119073 -0.000154771 0.000147083)
(0.118121 4.40957e-05 0.000411464)
(0.114492 5.325e-05 0.00036867)
(0.119262 -0.00030612 0.000143313)
(0.11812 2.98701e-05 0.000412051)
(0.119219 -0.000101109 -3.28567e-06)
(0.113733 3.00385e-05 0.000224212)
(0.113111 -1.12604e-05 -0.000127365)
(0.113243 0.000419513 -0.000124973)
(0.106395 0.000109585 -0.000113517)
(0.117804 -0.000402231 -0.00049158)
(0.117501 -2.09669e-05 -0.00032513)
(0.117753 -0.000102411 -0.000169519)
(0.119428 0.000367757 8.95531e-05)
(0.118204 0.000405224 0.000180144)
(0.120211 0.000134111 -0.000124489)
(0.118815 0.000265031 -0.000184746)
(0.117535 -0.000132147 -0.000398436)
(0.115091 -0.000206546 -0.000520567)
(0.115174 -0.000190123 -0.000289809)
(0.10629 -0.000293136 -0.000234062)
(0.119126 -7.74459e-05 -7.28515e-05)
(0.119205 8.95297e-05 7.48451e-05)
(0.113201 6.86457e-05 -0.000167846)
(0.117363 6.04177e-05 -0.000102963)
(0.117652 0.000338555 2.38513e-07)
(0.119215 0.000382868 5.2724e-05)
(0.117813 0.000347667 0.000184694)
(0.12079 -6.38354e-05 -0.000589675)
(0.121005 -0.000159185 -0.000483123)
(0.120903 -0.000272423 -0.000415092)
(0.120276 -0.000171131 -0.000378078)
(0.116913 0.000316519 -0.00097972)
(0.118976 0.000209055 -0.000843774)
(0.119621 -0.000189815 -0.000697929)
(0.117838 -0.000382532 5.99194e-05)
(0.118993 -0.000290953 2.33362e-05)
(0.117823 -0.000127507 0.000161481)
(0.113911 -6.36847e-05 -0.000209845)
(0.1152 -0.000882813 -0.000419352)
(0.11567 0.000208297 -0.000322202)
(0.105561 -6.71229e-05 -0.000427434)
(0.120674 0.000299754 5.14093e-05)
(0.12097 0.000222937 -0.00028099)
(0.120495 5.21812e-05 -9.47767e-05)
(0.121066 9.15199e-05 -0.000395131)
(0.119893 0.000311101 -9.46712e-05)
(0.118211 0.000257552 -3.46091e-05)
(0.119269 3.56807e-05 -0.000161571)
(0.119039 0.000171077 -0.000315076)
(0.115538 -0.000123171 -0.00095132)
(0.115139 0.000150486 -0.000388163)
(0.11653 -5.13551e-05 -0.00073239)
(0.108822 -0.000641662 -0.000713551)
(0.118516 -0.000251775 -0.000582537)
(0.11857 -0.000316466 -0.000800586)
(0.120194 -0.00027057 -0.000456857)
(0.119965 -0.000238525 -0.000552103)
(0.119524 -0.000171751 -0.000213148)
(0.118181 -0.000237764 -0.000331157)
(0.118123 7.01597e-05 -0.000121765)
(0.11419 0.000110074 -0.000523155)
(0.119671 0.00047637 0.000259835)
(0.119174 0.000496381 -2.35127e-05)
(0.117836 0.00025716 -0.000162375)
(0.113271 -2.88991e-05 -0.000671609)
(0.11287 5.73028e-05 -0.000486099)
(0.114402 0.000260583 -0.000706535)
(0.104928 0.000339444 -0.000298182)
(0.120017 -0.000527664 -0.000110465)
(0.119811 -0.00057225 0.000116863)
(0.12096 -0.000510253 5.00703e-05)
(0.115638 0.000994576 -0.000592944)
(0.11864 7.24589e-05 -0.000408138)
(0.118211 0.000202534 -0.000423246)
(0.117872 -0.000232804 0.000441046)
(0.118282 1.06682e-05 0.000202519)
(0.118728 7.87943e-05 0.000304577)
(0.113205 -9.45926e-05 0.000318607)
(0.115228 -0.000201967 -0.000130735)
(0.119847 2.29847e-05 2.4492e-05)
(0.117854 0.000268283 4.20492e-06)
(0.11987 0.000415742 -9.28763e-05)
(0.11347 0.000343217 -0.000267655)
(0.116923 -0.000132329 -4.92396e-05)
(0.117166 -1.80753e-05 6.19421e-05)
(0.110865 -1.81564e-05 -0.000254758)
(0.111889 8.51851e-05 0.000271758)
(0.111501 -0.00020488 0.000104508)
(0.105434 -7.91547e-05 0.00011858)
(0.120762 1.81322e-05 0.000203963)
(0.119192 -2.52447e-05 -9.30993e-05)
(0.120729 -0.000180576 0.000157214)
(0.120054 -0.000430874 0.000208156)
(0.120117 -0.000431384 -0.000255497)
(0.119753 -2.84047e-05 -0.00011302)
(0.119636 -0.000126473 -0.000264042)
(0.113715 -0.000167944 3.96584e-05)
(0.11747 -0.000233941 -0.000127929)
(0.119176 -0.000252404 -0.000132383)
(0.119497 -9.45393e-05 -0.000187191)
(0.117473 3.58581e-05 9.90868e-05)
(0.120678 -8.90106e-05 -0.000122266)
(0.119039 -4.11366e-05 -0.00026127)
(0.119263 0.000105369 5.86403e-05)
(0.120673 -0.000145282 -3.7892e-05)
(0.120756 3.34269e-05 0.000179399)
(0.120189 -0.000107331 2.07308e-05)
(0.120944 -8.7052e-05 -0.000180281)
(0.119494 -0.000160504 -0.000234829)
(0.119293 -0.000256254 -0.000381657)
(0.120685 -9.0663e-05 -0.000574832)
(0.113222 0.00127193 -0.000876303)
(0.115956 0.00025191 -0.00123896)
(0.115009 0.000592474 -0.00085118)
(0.103566 0.000171111 -0.00042988)
(0.119621 -0.000175338 -0.000226285)
(0.119732 -0.000276122 -0.000258869)
(0.12078 -0.00020948 -0.000489133)
(0.118531 -0.000207357 0.000223444)
(0.119907 -0.000152207 0.000107177)
(0.113578 -5.40093e-05 -4.03309e-05)
(0.115416 -0.000198949 1.89245e-05)
(0.115062 -1.58802e-05 3.57466e-05)
(0.118034 -0.000256907 0.00022234)
(0.117819 -0.000317091 -4.03479e-05)
(0.114485 -0.000364958 -0.000869142)
(0.115021 -0.000499007 -8.63327e-05)
(0.104904 -0.000377474 -0.00011673)
(0.1164 0.000424417 -0.000738794)
(0.11794 0.000191395 -0.000867954)
(0.1125 -0.000268512 -0.00045888)
(0.11435 -0.000492849 -7.45946e-05)
(0.11723 -0.000575561 -0.000147176)
(0.113928 -0.000376168 -0.000358997)
(0.117043 -0.000408888 -0.000186575)
(0.118452 0.000556823 6.98834e-05)
(0.118276 0.000778804 -5.46716e-05)
(0.116904 0.000971724 0.00036668)
(0.113847 0.000622372 0.000294966)
(0.116766 0.000299215 -0.000194978)
(0.117514 -4.93475e-05 -0.000283175)
(0.119486 0.000252093 -6.49682e-05)
(0.11999 -0.000183142 -3.09815e-05)
(0.119662 -0.000135929 4.03631e-05)
(0.113398 -0.000121888 5.77038e-05)
(0.117649 7.6861e-05 0.000225339)
(0.11728 0.000330825 0.000149031)
(0.118564 7.13646e-05 0.000147909)
(0.113027 4.35204e-05 -0.000199816)
(0.114298 -0.000706382 0.000150296)
(0.114808 -0.000263372 3.88276e-06)
(0.113759 -0.00087879 -0.000267175)
(0.105282 -0.000591112 0.000177336)
(0.119114 0.000255292 0.000138505)
(0.119201 -6.10107e-05 0.00012375)
(0.117187 0.000119799 -0.000297038)
(0.119343 -0.000191584 -0.000171813)
(0.119081 0.000139364 0.000216027)
(0.117711 -0.00011428 0.000322394)
(0.1176 0.000499248 0.000126913)
(0.116365 -0.000313787 -0.000397223)
(0.112576 1.20981e-06 -0.00018895)
(0.113088 -3.25625e-05 -0.000243454)
(0.114693 -0.000324662 -0.000287065)
(0.113873 9.89622e-05 -0.000346437)
(0.105406 -4.96947e-05 4.81772e-05)
(0.115306 -3.61381e-05 -0.000271062)
(0.105134 -1.52211e-05 -0.000308137)
(0.119553 -0.000359159 -5.60502e-06)
(0.121112 -0.000141849 0.000274462)
(0.121209 -0.000259457 -6.07676e-05)
(0.10635 6.51529e-05 0.000231451)
(0.113888 -0.000535828 -0.000661193)
(0.114884 -0.000407377 -0.00028222)
(0.114456 -0.000703007 -0.000605367)
(0.104597 -0.000330115 -0.000878374)
(0.113767 0.00059362 -0.000134218)
(0.11694 0.000434577 -4.54337e-05)
(0.11318 -0.000201611 0.000603891)
(0.112166 0.000105201 0.000285499)
(0.113804 0.000375039 0.000578613)
(0.105296 -0.000143364 0.000292516)
(0.119728 -0.000894732 0.000237948)
(0.117783 -0.000915148 0.000460987)
(0.118121 -0.000752395 0.00034407)
(0.11978 -0.000824926 0.000140938)
(0.116345 -0.000259857 -0.000613876)
(0.115365 -0.000269903 -0.000273917)
(0.114688 -0.00014186 -0.00025771)
(0.10498 0.000109695 -0.000271677)
(0.118944 0.000235769 -0.000197566)
(0.118078 0.00020028 -0.000206435)
(0.118531 -0.000441859 -0.000189442)
(0.11453 6.28231e-05 -0.00037003)
(0.115281 -0.000418617 -0.000462367)
(0.115239 -0.000408295 -0.000574294)
(0.117748 -0.000468739 -0.000579548)
(0.11923 0.000110208 -0.000502776)
(0.11908 0.000163802 -0.00050641)
(0.118198 0.000194153 -0.000444973)
(0.113081 0.000410754 -0.000604228)
(0.114656 -2.42497e-05 7.05493e-05)
(0.113025 -0.000371867 0.000119095)
(0.113935 -0.000469184 0.000432276)
(0.105126 -0.000363125 -1.31902e-05)
(0.118745 0.000449474 0.000141024)
(0.115047 0.000382825 -0.000351652)
(0.11481 -0.000130463 -3.62497e-05)
(0.118291 -0.000658752 -5.9638e-05)
(0.115008 -0.000444454 4.98376e-05)
(0.118053 -0.000519932 0.00027584)
(0.119525 6.64222e-05 3.47437e-09)
(0.118069 -2.80113e-05 -0.000192364)
(0.11939 -1.45531e-05 -0.000194261)
(0.118889 0.000111584 0.000199379)
(0.118993 -0.000231854 -6.26571e-06)
(0.113772 -0.000253471 8.82689e-05)
(0.117727 -0.00040889 -0.000161697)
(0.118126 -0.000125947 -0.000384797)
(0.119345 -4.63685e-05 -0.000208282)
(0.118366 -0.000294343 -8.52038e-05)
(0.11871 -0.000350234 0.00029223)
(0.120084 -0.000205504 0.000201339)
(0.120686 -0.000360168 0.000166363)
(0.11907 3.68337e-05 -0.000548573)
(0.118993 -2.56284e-05 -0.000517719)
(0.120804 7.47247e-05 -0.00061188)
(0.117479 0.000237664 -0.000459434)
(0.11907 0.000176956 -0.000314037)
(0.119396 -0.000107243 -0.00065598)
(0.116212 -0.000698292 -0.00024034)
(0.12018 0.000209926 -0.00062628)
(0.11828 -0.000337127 0.000240756)
(0.119835 0.000124022 0.000388338)
(0.119752 -4.20573e-06 0.000175064)
(0.119923 -0.000253254 0.000184755)
(0.118388 7.7358e-05 7.80221e-05)
(0.11909 -0.000153732 0.000187524)
(0.112834 -4.83317e-05 2.38293e-05)
(0.11367 -8.04687e-05 -0.000529581)
(0.113727 -0.00027491 -0.00028143)
(0.114337 -0.000654568 -0.000301715)
(0.117285 -0.000571191 -0.000314303)
(0.11759 -0.000491699 -0.000346464)
(0.118662 -0.000397211 0.0001196)
(0.11842 -0.000311515 -6.42723e-05)
(0.120344 -0.000239448 -0.000304521)
(0.120346 -0.000234466 1.58761e-05)
(0.119702 -0.000112101 -0.000292649)
(0.118279 -0.00030771 -0.00040871)
(0.117975 0.000123133 -0.000219151)
(0.119632 0.000230263 -9.90166e-05)
(0.119474 0.000338593 -0.000362354)
(0.120599 5.45289e-05 -0.000608274)
(0.119856 0.000151708 -0.00016945)
(0.120539 -7.65983e-05 -0.000559667)
(0.119518 -0.000369319 -2.14545e-05)
(0.118762 -0.000129904 -2.19572e-05)
(0.117691 -0.000762309 0.000187449)
(0.119938 -0.00051779 6.3316e-05)
(0.119058 -0.00012415 4.47711e-05)
(0.115925 -0.000136095 -0.000348856)
(0.119801 -0.00011025 -1.96868e-05)
(0.115716 7.92336e-05 -0.000639505)
(0.119912 -6.93176e-05 -5.47138e-05)
(0.120688 -0.000166734 -0.000409865)
(0.119598 -1.94851e-05 -0.00028356)
(0.119542 -1.49787e-05 0.000230736)
(0.113269 -2.0537e-05 -9.04877e-05)
(0.113219 -0.000210195 -0.000424761)
(0.106209 -9.58465e-05 -0.000290244)
(0.113752 -0.000592317 -0.000776416)
(0.104982 -0.000348031 -0.000193068)
(0.120802 0.000226612 0.000676401)
(0.11911 0.000244169 0.00019439)
(0.118103 -0.000435174 -0.000393722)
(0.113239 -0.00029568 -0.000282528)
(0.119272 -6.40163e-05 -0.000702757)
(0.119019 -0.000105568 -0.000503109)
(0.117966 -0.000233963 -0.000293486)
(0.112792 -0.000197098 -0.000339984)
(0.120476 0.000329794 0.000606159)
(0.120527 0.000117324 0.000632779)
(0.120602 0.00018463 0.000564077)
(0.119666 0.000300877 0.000605719)
(0.119068 0.000602985 0.000261121)
(0.119121 0.000399839 0.000190701)
(0.120213 0.000481823 0.000192558)
(0.112943 -0.000168776 -0.000354137)
(0.114547 -6.51988e-05 -0.000201536)
(0.104611 -0.00030651 -0.00040364)
(0.115403 0.000277755 -0.00034247)
(0.114378 -9.35473e-05 -0.000291371)
(0.113703 0.00024411 -0.000379513)
(0.105387 -7.47815e-05 -0.000676105)
(0.120181 -8.41801e-05 3.92453e-05)
(0.118678 -0.000233391 -0.000392882)
(0.120249 -0.000371349 -0.00011495)
(0.11746 -0.000130227 -0.000276658)
(0.119207 -0.000266724 -0.000364641)
(0.114156 -0.000268123 -0.000485466)
(0.114739 -0.000188408 -0.000593289)
(0.105353 -0.000323393 -0.000363834)
(0.115478 -0.000295351 -0.000152118)
(0.113504 -4.52182e-05 -1.93349e-05)
(0.113149 -1.19856e-05 0.000203183)
(0.106324 -0.000113538 9.66511e-05)
(0.120456 -0.000538508 0.000133452)
(0.119125 -0.000369438 0.000345889)
(0.118954 -0.000333233 -1.41623e-05)
(0.120399 -0.000286565 -8.54271e-05)
(0.11516 -8.11201e-05 -0.0011518)
(0.114952 9.43341e-05 -0.000741233)
(0.117528 -0.000167155 -0.000766881)
(0.105725 -0.000207169 -0.00102622)
(0.117751 0.000237296 0.000191702)
(0.118206 -0.000387441 0.000218691)
(0.118069 -0.000117317 0.000248452)
(0.113324 -0.000174613 0.000283539)
(0.115455 -0.000476048 -0.000383814)
(0.118303 -0.000209044 -0.000574989)
(0.118138 1.55337e-05 -0.000723318)
(0.118764 -0.00011342 -0.000105076)
(0.12038 -0.000164008 4.87949e-05)
(0.119474 3.53751e-05 0.000318967)
(0.115973 0.000248697 -0.000984564)
(0.11384 0.000433786 -0.000676886)
(0.115499 0.000834379 -0.000743542)
(0.104255 -0.000260682 -0.000755868)
(0.12145 -6.05324e-05 6.58896e-05)
(0.121302 -0.000172201 3.72912e-05)
(0.119682 1.92762e-05 -1.82297e-05)
(0.121327 3.82775e-05 4.15262e-05)
(0.119525 -4.80353e-05 -0.000455488)
(0.117149 -0.000115609 -0.000318417)
(0.116689 2.58201e-05 -0.00063086)
(0.119301 -0.00019688 -0.000203198)
(0.11618 -0.000946777 -0.000335524)
(0.116514 -0.000853931 -4.83804e-05)
(0.105513 -0.000310678 -0.000455223)
(0.115173 -0.000626244 0.000853184)
(0.114062 -0.000254203 0.000799065)
(0.115673 -0.000558372 0.00056564)
(0.104313 3.88272e-05 0.000162826)
(0.117901 -0.000316516 -6.63449e-05)
(0.113561 -0.000292618 -2.03426e-05)
(0.115579 -0.000293062 -0.000719921)
(0.121257 -0.000148409 -0.000201667)
(0.119975 -0.000129519 -0.000306354)
(0.113921 0.000263118 0.000273534)
(0.113162 0.000132066 0.000238598)
(0.114866 -0.000124322 -9.67257e-05)
(0.104511 -0.000103734 0.000205408)
(0.116016 -0.000181502 -0.000785341)
(0.115872 0.000340525 -0.000508469)
(0.105566 -0.000368187 -0.000869253)
(0.113282 -0.000174325 0.00026998)
(0.115551 -4.19534e-05 0.00027454)
(0.113573 -0.000423121 8.33477e-05)
(0.105793 -0.000236809 0.000100115)
(0.113414 -0.000905207 -0.000242845)
(0.115785 -0.000722608 0.000339566)
(0.114462 -0.0010036 -0.000162352)
(0.104067 -0.000531515 -0.000280802)
(0.116124 0.000269838 -0.000424865)
(0.117407 0.000133392 5.81316e-05)
(0.117713 -0.000116069 -0.000201313)
(0.112218 4.54035e-05 -0.000111953)
(0.114216 0.000401113 0.000128116)
(0.113496 0.000238506 0.000263507)
(0.105737 0.000103079 0.00020205)
(0.120161 -0.000556493 1.10163e-05)
(0.11975 -0.00039722 0.000120508)
(0.120467 -0.000484667 -2.72979e-05)
(0.120093 -0.000465363 0.000159841)
(0.119142 -0.000290636 0.000215683)
(0.119263 -0.000204202 3.26512e-05)
(0.120821 -0.00029695 0.000233057)
(0.121086 -0.000298917 0.00026867)
(0.112265 0.000171672 -0.000963778)
(0.112375 0.000119668 -0.000369712)
(0.114181 0.000184124 -0.000568213)
(0.106391 -0.000234459 -0.000469891)
(0.114949 -0.000384363 0.000453254)
(0.115601 -0.00113463 5.04674e-06)
(0.115664 -0.000547632 0.000174101)
(0.108436 -0.000428466 0.000104787)
(0.117065 0.000817271 -0.000241521)
(0.118615 0.000499543 -0.000437041)
(0.118644 0.000439453 -0.000622235)
(0.114023 0.000189265 -0.00070491)
(0.115274 -2.75176e-06 6.19063e-05)
(0.113026 -7.54928e-05 -7.24958e-05)
(0.112475 -0.000240668 -0.000217437)
(0.105819 0.000118845 -9.85344e-05)
(0.119309 -4.5346e-05 0.000426572)
(0.114075 3.97442e-05 4.32147e-06)
(0.119239 -0.000428653 -0.000381004)
(0.120486 -6.79713e-05 -0.000396375)
(0.119733 -0.000112072 -0.000202681)
(0.11959 -7.80209e-05 -0.000233148)
(0.118159 0.000390103 5.1245e-05)
(0.117106 0.00034235 0.000151632)
(0.113761 0.000461433 0.000290174)
(0.11988 0.000163858 1.20536e-05)
(0.119054 0.000200519 0.00037998)
(0.119771 0.000130459 0.000365376)
(0.119751 0.000260633 0.000328887)
(0.119739 -0.000120189 -4.4377e-05)
(0.119616 -0.000379784 -0.000109717)
(0.113545 -0.000263865 -0.000119624)
(0.118217 -0.000144477 -0.000255656)
(0.117157 -0.000259705 -3.00318e-05)
(0.118194 -0.000274017 5.34128e-05)
(0.111911 -5.55536e-05 -0.000321416)
(0.118324 -1.74299e-05 -5.4631e-05)
(0.118604 0.000259641 5.03234e-05)
(0.113232 0.000161977 0.000141408)
(0.114738 -0.000479037 0.000584706)
(0.117964 -0.000453266 0.000416807)
(0.118158 -0.000713799 0.000548773)
(0.116539 2.77503e-05 0.000208286)
(0.117948 -0.000315238 -0.000103144)
(0.118067 -0.00023073 8.60651e-05)
(0.113022 -5.36775e-05 0.00023042)
(0.114719 0.00040994 -8.8356e-05)
(0.112265 0.000321844 -0.000444113)
(0.104747 0.000886404 -0.000435136)
(0.119096 -9.70001e-05 -2.84782e-05)
(0.12037 8.63093e-06 -0.000155012)
(0.120852 0.000503231 -0.000221427)
(0.117713 -0.000223604 0.000231556)
(0.118066 -0.000189866 0.000446247)
(0.111868 -0.000503061 0.000572834)
(0.119332 0.000316339 0.000127725)
(0.120139 -5.43354e-06 0.00010563)
(0.120012 0.000259995 -4.59367e-05)
(0.120158 0.000305354 -1.02379e-05)
(0.114752 -5.66421e-05 -0.000114496)
(0.115449 -0.000156469 0.000140259)
(0.114935 -0.000368777 -1.18123e-05)
(0.104642 0.000107762 6.12763e-05)
(0.113207 3.42222e-05 0.000362897)
(0.113043 -0.000186852 0.000332954)
(0.114333 -9.85459e-05 0.000549413)
(0.105064 -0.000258159 0.000316645)
(0.118874 -0.000251906 -0.000296257)
(0.119728 -0.000171227 0.000194379)
(0.120558 -0.000330863 -9.71258e-06)
(0.120256 -3.11571e-05 0.000178615)
(0.118967 -0.000342276 -0.000314806)
(0.120126 -2.3653e-06 -0.000398614)
(0.118595 0.000127054 -0.000317525)
(0.116714 -0.000191348 0.000685561)
(0.118702 -0.000237299 0.000165376)
(0.1183 -0.000151018 0.00032745)
(0.117196 -0.000219593 0.000688099)
(0.117591 -0.000131408 0.000159096)
(0.119 -0.000347438 3.61558e-05)
(0.113501 -9.76511e-05 0.00026383)
(0.119354 -0.000200144 -0.000587321)
(0.119489 5.57106e-05 -0.000483838)
(0.117722 -3.64723e-05 -0.000231489)
(0.113228 0.000208848 -0.000458331)
(0.11849 -5.32703e-05 -0.00065367)
(0.115386 -0.000139618 -0.000627386)
(0.118372 0.000135985 -0.000507733)
(0.115277 0.00026698 0.000279264)
(0.118358 0.000391538 0.000419147)
(0.116047 0.000142298 0.00061516)
(0.118693 0.000273573 0.00030255)
(0.120221 0.000154004 -0.000475424)
(0.117968 0.000320717 -0.0004981)
(0.118483 -0.000114561 -0.000718849)
(0.115272 3.04262e-06 -2.0005e-05)
(0.105477 -0.000114124 -0.00028031)
(0.114941 6.22075e-05 -5.23778e-05)
(0.117717 -0.000127677 -6.76527e-05)
(0.120629 0.000312698 2.18304e-05)
(0.120445 2.16063e-05 1.38526e-05)
(0.11991 0.000145104 0.000185961)
(0.120532 7.57405e-05 0.000277293)
(0.11956 -0.000473159 -1.05161e-05)
(0.119571 -0.000582229 -0.000165713)
(0.119415 -0.000482291 -0.000108512)
(0.119608 -0.000510402 -0.000290999)
(0.119612 -0.000522528 0.000106801)
(0.119377 -0.000587494 9.56973e-05)
(0.11775 -0.000523177 0.000274339)
(0.116885 -0.00110595 0.000106964)
(0.118847 -0.00107512 -0.000200669)
(0.118195 -0.00099725 -0.000431477)
(0.117008 -0.000128789 -0.000264819)
(0.116893 0.000157635 -0.000497833)
(0.113398 1.40484e-05 0.000192342)
(0.119495 0.000171988 -0.000410224)
(0.114026 -9.60724e-05 -0.000329004)
(0.116936 0.000546503 -0.000395967)
(0.117066 0.000573989 -0.00056571)
(0.118065 0.000131612 -0.000418002)
(0.112803 -4.30816e-05 -0.000372897)
(0.120105 0.00016435 -0.000280041)
(0.118685 0.00028183 -0.000307393)
(0.119268 8.21812e-05 -0.00044602)
(0.105622 1.1287e-05 -0.000176215)
(0.118009 0.000115149 -0.000211745)
(0.113749 -8.68366e-05 -0.000105038)
(0.115645 0.000166152 -0.000135108)
(0.118162 0.000217148 0.000196975)
(0.11535 0.000244493 -0.000145508)
(0.118437 0.000484926 -2.50868e-05)
(0.118685 1.0935e-05 -0.000285977)
(0.11819 1.41435e-05 -0.000382211)
(0.117839 5.87774e-05 -6.745e-05)
(0.114355 0.00021092 -0.00035795)
(0.120244 -5.98199e-05 -0.000392225)
(0.118768 -0.000158365 -0.000557339)
(0.119773 -0.000259515 -0.000546777)
(0.118494 -0.000386576 -0.000426012)
(0.118229 -0.000534667 -0.000392406)
(0.120074 -0.000379384 -0.00024783)
(0.119239 -0.000412458 -0.000124435)
(0.119887 0.000172516 -0.000406126)
(0.120127 -0.00010969 -0.000316074)
(0.114189 -0.000648749 -0.0004141)
(0.115114 -0.000845406 -0.000455946)
(0.104751 -8.42872e-05 -0.000385049)
(0.117273 -0.000592546 0.000274828)
(0.118578 -0.000367921 1.09827e-05)
(0.120304 -0.000340424 -0.000189082)
(0.118385 -0.000173343 -0.000245333)
(0.120455 -0.000376749 -0.00016621)
(0.120119 -4.14355e-05 0.000153759)
(0.119888 7.64133e-05 -0.000120084)
(0.119217 0.000246842 0.000222752)
(0.11595 -0.00023146 -0.000467945)
(0.119437 -0.000255958 -0.000561302)
(0.111179 0.000199982 0.000175775)
(0.113007 -0.000221986 0.000659421)
(0.112733 -0.000365402 0.000319353)
(0.103348 -0.000419359 0.000385137)
(0.119105 -0.000422443 9.35068e-06)
(0.118411 -0.000482048 0.000241478)
(0.114354 -0.000417855 0.000746469)
(0.112904 -0.000915797 -0.000332961)
(0.105866 -0.000459431 -0.000209668)
(0.11759 0.000333445 -0.000183012)
(0.117782 0.000445968 0.000167286)
(0.102774 0.000116051 -0.000217804)
(0.118556 -0.000202104 0.000324615)
(0.120405 -0.000340789 0.000314905)
(0.113683 -0.000287265 0.000248987)
(0.116066 0.000322398 0.000288243)
(0.116715 -0.000261838 3.39766e-05)
(0.114391 0.000436368 -0.000210718)
(0.114502 0.000191153 -0.000274588)
(0.114897 0.000352254 -0.00052855)
(0.104597 3.4694e-05 -0.000115879)
(0.118348 -9.81965e-05 0.000132793)
(0.117778 -2.66479e-05 0.000157434)
(0.117277 -2.19348e-05 0.000221829)
(0.119077 0.00061555 -0.00025117)
(0.11989 0.000645125 -0.00022962)
(0.11727 4.64435e-05 -0.000168118)
(0.118064 -9.31074e-06 -0.000313238)
(0.120041 -0.000513256 -0.00019769)
(0.119647 8.27308e-05 0.000244766)
(0.115214 -0.000489828 -4.2346e-05)
(0.115008 -0.000236947 -0.000106654)
(0.104045 -0.000248433 8.76778e-05)
(0.11381 -0.000817351 0.000142978)
(0.112602 -0.000531911 0.000479787)
(0.105524 -0.000510871 0.000126649)
(0.11941 -0.000643031 0.000287986)
(0.117819 -0.000164188 0.000466083)
(0.118832 -0.000469081 0.00053447)
(0.117656 -0.000313458 5.49676e-05)
(0.119726 0.000191299 -0.000614293)
(0.120527 6.863e-05 -0.000595646)
(0.118465 0.00021191 -0.000450419)
(0.114522 0.000485152 0.000106214)
(0.115253 0.000180222 3.19038e-05)
(0.103894 0.000310658 -0.000434909)
(0.119983 -0.000657232 8.65093e-05)
(0.119947 -0.000698166 0.00029447)
(0.119739 -0.000528823 0.00026148)
(0.116771 -6.49767e-05 -0.000208118)
(0.114716 0.000124519 -0.000469781)
(0.105752 -3.79914e-06 -0.000371927)
(0.11315 -0.00018928 0.000196771)
(0.113138 -0.000449166 8.42979e-05)
(0.106246 -0.000255256 -4.64257e-05)
(0.117654 0.000199529 -0.000369142)
(0.117341 0.000167355 -0.000283237)
(0.118649 0.00029456 -9.37795e-05)
(0.113504 -0.000193727 -0.000297858)
(0.117792 -0.000276348 -0.000285246)
(0.11951 -0.000410136 4.75848e-05)
(0.11761 -0.000250807 0.000406957)
(0.118977 -0.000278565 3.54284e-05)
(0.116315 -0.00102014 0.000292801)
(0.117838 -0.000784666 6.84958e-05)
(0.117957 -0.000765753 -4.44719e-05)
(0.111748 -0.000753097 -0.000106888)
(0.113431 -0.000272506 0.000535339)
(0.116899 6.16439e-05 0.000499264)